Title
43206
    1CHL1    C3    1   3.424   2.253   5.783  0.3209  0.4109 -0.5201
    1CHL1    H3    2   3.496   2.337   5.796  0.4626  0.0582  1.1817
    1CHL1    O3    3   3.391   2.208   5.907 -0.0890  0.4915 -0.3224
    1CHL1   H3'    4   3.340   2.280   5.945 -0.4356  0.6325 -1.0336
    1CHL1    C4    5   3.299   2.312   5.714 -1.0264  0.5470  0.2097
    1CHL1   H4A    6   3.220   2.233   5.719  0.1664 -0.6023  3.5304
    1CHL1   H4B    7   3.252   2.393   5.774 -0.0267  2.7946 -1.9026
    1CHL1    C5    8   3.334   2.358   5.575  0.6800 -1.4401 -0.0797
    1CHL1    C6    9   3.306   2.487   5.535 -0.1586  0.0570  0.3467
    1CHL1    H6   10   3.264   2.560   5.605  0.4888  1.2658 -0.4907
    1CHL1    C7   11   3.333   2.521   5.392  0.0448  0.0000  0.0259
    1CHL1   H7A   12   3.249   2.589   5.366 -2.0747 -2.2751  0.4880
    1CHL1   H7B   13   3.423   2.585   5.378 -0.7461  1.5451  1.6382
    1CHL1    C8   14   3.352   2.413   5.282  0.0780  0.3029  0.2748
    1CHL1    H8   15   3.247   2.381   5.263  0.8190 -1.7739 -0.6482
    1CHL1   C14   16   3.419   2.453   5.156  0.6715 -0.5409  0.3346
    1CHL1   H14   17   3.522   2.485   5.182  0.9663  1.8629 -3.0906
    1CHL1   C15   18   3.357   2.576   5.081  0.5056  0.3716 -0.4935
    1CHL1  H15A   19   3.247   2.592   5.081  0.4365 -0.0942  0.0699
    1CHL1  H15B   20   3.406   2.664   5.128 -1.9233  0.3115  2.4180
    1CHL1   C16   21   3.397   2.567   4.930 -0.4020  0.3358 -1.0870
    1CHL1  H16A   22   3.312   2.560   4.858 -1.6923 -0.7055  0.4751
    1CHL1  H16B   23   3.471   2.641   4.893  1.1262 -0.5083  0.1798
    1CHL1   C17   24   3.477   2.425   4.920 -0.7983 -0.0646 -0.2731
    1CHL1   H17   25   3.586   2.441   4.936 -0.4520  0.1340 -2.5544
    1CHL1   C13   26   3.425   2.345   5.044 -0.2997  0.0525  0.1768
    1CHL1   C18   27   3.287   2.286   5.014  0.3099  0.3772 -0.2114
    1CHL1  H18A   28   3.241   2.239   5.104 -0.2772 -0.2739 -0.8390
    1CHL1  H18B   29   3.219   2.365   4.976 -0.4652  0.5776  1.4614
    1CHL1  H18C   30   3.283   2.201   4.943 -2.8060 -1.1779  1.5949
    1CHL1   C12   31   3.521   2.240   5.106 -0.4515  0.4897  0.2340
    1CHL1  H12A   32   3.540   2.157   5.036  0.5733  1.0160 -0.1366
    1CHL1  H12B   33   3.622   2.285   5.122 -0.6375  0.5657  1.3140
    1CHL1   C11   34   3.474   2.193   5.236  0.0478  0.2418  1.0935
    1CHL1  H11A   35   3.395   2.119   5.211 -0.7001  2.2670 -3.6270
    1CHL1  H11B   36   3.559   2.137   5.281  0.8491 -1.8902 -2.6473
    1CHL1    C9   37   3.434   2.298   5.341  0.5789 -0.3563 -0.4640
    1CHL1    H9   38   3.531   2.346   5.364  2.0260 -2.9219 -0.8597
    1CHL1   C10   39   3.387   2.248   5.482  0.1674  0.2441 -0.3081
    1CHL1   C19   40   3.270   2.146   5.456  0.0506  0.5358  0.0412
    1CHL1  H19A   41   3.311   2.060   5.400 -0.6399  0.6975 -0.7352
    1CHL1  H19B   42   3.237   2.110   5.556 -1.2504  0.1597 -0.5068
    1CHL1  H19C   43   3.180   2.185   5.403 -1.8811 -0.2309  2.5554
    1CHL1    C1   44   3.500   2.180   5.559 -0.0352  0.4861 -0.5866
    1CHL1   H1A   45   3.551   2.097   5.505  0.1612 -0.7681  1.4144
    1CHL1   H1B   46   3.579   2.258   5.570 -0.2405  0.8431 -1.5524
    1CHL1    C2   47   3.476   2.133   5.706  0.1588 -0.1134  0.2508
    1CHL1   H2A   48   3.570   2.095   5.750  0.9235  1.4453  0.0176
    1CHL1   H2B   49   3.400   2.052   5.715  0.2729 -0.2872 -0.3077
    1CHL1   C20   50   3.462   2.356   4.787  0.7670  0.1472  0.6780
    1CHL1   H20   51   3.354   2.345   4.765  0.8110  1.3461 -0.2379
    1CHL1   C21   52   3.521   2.220   4.793  0.2666  0.5734  0.1622
    1CHL1  H21A   53   3.459   2.150   4.852  1.6870 -0.5645  0.3546
    1CHL1  H21B   54   3.629   2.219   4.822  0.4446  0.2645 -0.4885
    1CHL1  H21C   55   3.525   2.179   4.690 -2.1868  0.0651  0.2212
    1CHL1   C22   56   3.528   2.432   4.664 -0.5249 -0.8112  0.5834
    1CHL1  H22A   57   3.517   2.541   4.677  0.9518 -0.5472 -0.2500
    1CHL1  H22B   58   3.636   2.407   4.664 -0.4973 -0.7577  1.4891
    1CHL1   C23   59   3.476   2.385   4.531 -0.2134 -0.7295  0.0456
    1CHL1  H23A   60   3.536   2.299   4.496 -0.8569 -1.3876  0.5259
    1CHL1  H23B   61   3.366   2.373   4.539 -0.6912  2.3914 -0.5054
    1CHL1   C24   62   3.506   2.476   4.410  0.2343 -0.6137 -0.2340
    1CHL1  H24A   63   3.598   2.530   4.440  1.8030 -0.7417 -4.2395
    1CHL1  H24B   64   3.527   2.425   4.313 -1.1550  0.7347 -1.3021
    1CHL1   C25   65   3.403   2.585   4.383 -0.3675 -0.3751 -0.1659
    1CHL1   H25   66   3.380   2.623   4.485 -0.3710 -0.9328  0.0412
    1CHL1   C26   67   3.455   2.704   4.294 -0.2831  0.2565  0.1875
    1CHL1  H26A   68   3.540   2.761   4.337 -0.7289  0.9715  0.1320
    1CHL1  H26B   69   3.475   2.664   4.192 -4.4538 -2.9784  0.3630
    1CHL1  H26C   70   3.369   2.774   4.285 -1.3711 -1.0419  0.1553
    1CHL1   C27   71   3.265   2.524   4.332  0.1692  0.6810 -0.5088
    1CHL1  H27A   72   3.200   2.602   4.287 -0.6583  0.1005 -0.3508
    1CHL1  H27B   73   3.289   2.450   4.252 -1.2182  0.9475 -1.1945
    1CHL1  H27C   74   3.214   2.479   4.420  1.3511 -0.1486 -0.2060
    2CHL1    C3   75   4.688   2.241   6.285 -0.7747  0.4028  0.2667
    2CHL1    H3   76   4.763   2.323   6.286 -1.8249  1.4155  1.8683
    2CHL1    O3   77   4.659   2.192   6.412  0.1371 -0.6291 -0.3666
    2CHL1   H3'   78   4.574   2.147   6.408 -1.1471  1.5435  0.4647
    2CHL1    C4   79   4.568   2.303   6.213  1.1361 -0.1385 -0.1674
    2CHL1   H4A   80   4.481   2.235   6.227 -0.1918  1.2270 -1.3760
    2CHL1   H4B   81   4.545   2.393   6.274  1.6741  1.0087 -1.6092
    2CHL1    C5   82   4.592   2.333   6.064  0.8048  0.0705 -0.3130
    2CHL1    C6   83   4.557   2.448   6.005 -0.9032 -0.4623 -0.0836
    2CHL1    H6   84   4.525   2.526   6.076  2.8464  0.9585  0.2782
    2CHL1    C7   85   4.571   2.476   5.856 -0.4285  0.4293  0.2090
    2CHL1   H7A   86   4.479   2.515   5.808 -1.3324 -1.0839  0.6649
    2CHL1   H7B   87   4.667   2.532   5.849  1.2897 -2.4914 -3.0721
    2CHL1    C8   88   4.602   2.349   5.774 -0.6688 -0.8642  0.3085
    2CHL1    H8   89   4.504   2.296   5.773 -0.7834 -0.6987  1.4855
    2CHL1   C14   90   4.651   2.390   5.640 -0.0862 -0.2720  0.1890
    2CHL1   H14   91   4.753   2.433   5.654  0.1750 -0.4746 -0.9916
    2CHL1   C15   92   4.568   2.491   5.563 -0.0168 -0.5101 -0.4446
    2CHL1  H15A   93   4.461   2.460   5.565  0.0279 -0.6819 -0.7303
    2CHL1  H15B   94   4.575   2.594   5.602 -0.6473 -0.4457 -0.4849
    2CHL1   C16   95   4.626   2.482   5.425 -0.2301  0.5386  0.0936
    2CHL1  H16A   96   4.543   2.474   5.352  0.5890  0.5132 -0.8487
    2CHL1  H16B   97   4.690   2.570   5.401  1.7586 -0.6686  0.7318
    2CHL1   C17   98   4.713   2.350   5.412 -0.8347 -0.3688 -0.0868
    2CHL1   H17   99   4.814   2.388   5.440 -1.1085  1.2121 -1.1360
    2CHL1   C13  100   4.676   2.272   5.544  0.4353 -0.3545  0.5256
    2CHL1   C18  101   4.549   2.186   5.513 -1.1098  0.4420 -0.1384
    2CHL1  H18A  102   4.496   2.179   5.610 -0.2518 -1.5543  0.2099
    2CHL1  H18B  103   4.472   2.231   5.445 -0.2376 -1.1554 -2.3026
    2CHL1  H18C  104   4.567   2.090   5.461 -0.8257  0.0162  0.7295
    2CHL1   C12  105   4.792   2.188   5.603 -0.5014 -0.1133  0.8430
    2CHL1  H12A  106   4.818   2.093   5.552 -3.8976 -1.0100  0.5314
    2CHL1  H12B  107   4.888   2.245   5.611  0.5515 -1.7461  0.3859
    2CHL1   C11  108   4.754   2.147   5.748  0.5630  0.2842 -0.1198
    2CHL1  H11A  109   4.684   2.062   5.732 -0.7558  1.2484  0.3873
    2CHL1  H11B  110   4.848   2.107   5.793 -0.0460  0.8862  1.7715
    2CHL1    C9  111   4.703   2.259   5.844  0.2597 -0.6353 -0.1525
    2CHL1    H9  112   4.781   2.336   5.862 -0.8106  0.3513  0.3556
    2CHL1   C10  113   4.657   2.216   5.983 -0.6174  0.4109  0.6107
    2CHL1   C19  114   4.548   2.102   5.969 -0.5718  0.2473  0.5928
    2CHL1  H19A  115   4.468   2.145   5.906  0.6144  1.4423 -0.1572
    2CHL1  H19B  116   4.591   2.020   5.908  2.0555  1.1721  1.0436
    2CHL1  H19C  117   4.510   2.059   6.065 -1.5392  0.7243  0.4353
    2CHL1    C1  118   4.775   2.149   6.060 -0.2783  0.0243 -0.3301
    2CHL1   H1A  119   4.816   2.057   6.014  3.2074  0.1087  2.1770
    2CHL1   H1B  120   4.861   2.220   6.064  0.2038 -0.5991  0.6706
    2CHL1    C2  121   4.757   2.120   6.203 -0.1254  0.5125 -0.0526
    2CHL1   H2A  122   4.855   2.108   6.254 -0.5396 -1.6515  0.3305
    2CHL1   H2B  123   4.698   2.027   6.214  1.6232 -0.5700  0.6831
    2CHL1   C20  124   4.715   2.281   5.275 -0.4481  0.1755 -0.1741
    2CHL1   H20  125   4.618   2.232   5.252 -0.7880 -0.1122  1.7119
    2CHL1   C21  126   4.815   2.163   5.284 -1.0229 -0.2123  0.3427
    2CHL1  H21A  127   4.909   2.194   5.334 -1.6584  1.0743  0.7919
    2CHL1  H21B  128   4.838   2.104   5.193 -0.5785 -2.1918  1.6789
    2CHL1  H21C  129   4.770   2.086   5.351  0.2804 -0.4259  0.9950
    2CHL1   C22  130   4.755   2.379   5.162  0.7035  0.0897  0.4792
    2CHL1  H22A  131   4.688   2.467   5.170  1.0476  0.3021  1.1236
    2CHL1  H22B  132   4.861   2.411   5.174  1.0639 -0.3635 -1.2412
    2CHL1   C23  133   4.758   2.314   5.022  0.3594 -0.0897 -0.7856
    2CHL1  H23A  134   4.809   2.215   5.020 -3.8801 -2.5789  0.6446
    2CHL1  H23B  135   4.653   2.282   5.002  1.1076 -2.0852 -1.7910
    2CHL1   C24  136   4.824   2.402   4.915  0.5098  0.0760 -0.6370
    2CHL1  H24A  137   4.754   2.488   4.907  0.1011  0.0377  1.6863
    2CHL1  H24B  138   4.925   2.427   4.954  0.3064 -1.8548  1.3310
    2CHL1   C25  139   4.841   2.349   4.769 -0.1809 -0.9207 -0.2376
    2CHL1   H25  140   4.915   2.267   4.780  1.2405  0.3079 -0.3350
    2CHL1   C26  141   4.720   2.293   4.705 -0.0291  0.8923  0.3910
    2CHL1  H26A  142   4.651   2.376   4.679 -0.2556  0.5691 -0.0353
    2CHL1  H26B  143   4.738   2.258   4.601  1.5045  0.7791  0.6718
    2CHL1  H26C  144   4.679   2.201   4.752  1.0885  1.0717  1.7871
    2CHL1   C27  145   4.907   2.457   4.685  0.1983  0.1502 -0.4750
    2CHL1  H27A  146   5.010   2.471   4.723  0.6680  0.0835 -1.6720
    2CHL1  H27B  147   4.925   2.432   4.578 -1.9878 -1.3030 -0.5642
    2CHL1  H27C  148   4.850   2.552   4.678  1.0314  0.6067 -1.2679
    3CHL1    C3  149   5.266   1.833   6.209 -0.6121 -0.7040 -0.0316
    3CHL1    H3  150   5.367   1.818   6.165 -0.1976 -0.3518  0.7787
    3CHL1    O3  151   5.289   1.866   6.341  0.1339 -0.8926 -0.2888
    3CHL1   H3'  152   5.211   1.911   6.372  2.0868  1.7351  1.1756
    3CHL1    C4  153   5.198   1.954   6.148 -0.0694  0.3922 -0.1356
    3CHL1   H4A  154   5.101   1.962   6.201 -0.7718 -2.4975 -0.7925
    3CHL1   H4B  155   5.258   2.046   6.166  1.4456 -0.6488  0.3074
    3CHL1    C5  156   5.182   1.928   6.003  0.2717  0.9027 -0.0767
    3CHL1    C6  157   5.234   2.016   5.909  0.1934  0.2750  0.0091
    3CHL1    H6  158   5.284   2.106   5.948 -1.6931  1.6469 -0.6214
    3CHL1    C7  159   5.211   2.001   5.761  0.2841  0.2909 -0.5860
    3CHL1   H7A  160   5.184   2.098   5.713  0.5933  0.9811  0.5797
    3CHL1   H7B  161   5.307   1.982   5.708  0.4982 -2.6238  0.7056
    3CHL1    C8  162   5.106   1.885   5.730  0.0956  0.3873 -0.7321
    3CHL1    H8  163   5.001   1.922   5.729 -0.1971 -0.0238  2.4665
    3CHL1   C14  164   5.126   1.840   5.583 -0.7125  0.3096  0.1604
    3CHL1   H14  165   5.225   1.789   5.583 -0.4027  0.9025  0.6472
    3CHL1   C15  166   5.128   1.942   5.470 -0.1111 -0.3306  0.3266
    3CHL1  H15A  167   5.059   2.027   5.488 -0.5315 -0.5516 -0.2359
    3CHL1  H15B  168   5.231   1.983   5.466  0.5773 -1.8453  1.4830
    3CHL1   C16  169   5.089   1.873   5.338 -0.3759  0.3023 -1.0401
    3CHL1  H16A  170   5.005   1.936   5.300 -0.8196  0.5574  0.3123
    3CHL1  H16B  171   5.177   1.870   5.271 -0.2322  0.7070 -0.8691
    3CHL1   C17  172   5.051   1.719   5.383 -0.0177 -0.0540 -0.1844
    3CHL1   H17  173   5.150   1.670   5.370 -1.4397 -3.2844  0.0552
    3CHL1   C13  174   5.025   1.730   5.536 -0.4301  0.6238  0.3512
    3CHL1   C18  175   4.875   1.781   5.542 -0.5093 -0.0205  0.2013
    3CHL1  H18A  176   4.816   1.695   5.503 -0.1902  1.0680 -3.0277
    3CHL1  H18B  177   4.854   1.792   5.650 -0.2883  0.3354  0.2122
    3CHL1  H18C  178   4.863   1.874   5.481 -0.6808 -0.2021 -0.0432
    3CHL1   C12  179   5.041   1.604   5.629  0.4251 -0.1889  0.5550
    3CHL1  H12A  180   4.976   1.517   5.606 -0.7833  0.7400  0.3938
    3CHL1  H12B  181   5.146   1.570   5.613 -0.1330 -1.6812 -0.1757
    3CHL1   C11  182   5.033   1.641   5.777 -0.4137  0.5765 -0.1951
    3CHL1  H11A  183   4.925   1.658   5.796 -0.8381 -1.5415 -0.4705
    3CHL1  H11B  184   5.064   1.556   5.841  1.7956  1.0532 -0.5345
    3CHL1    C9  185   5.121   1.763   5.819  0.1273 -0.5305  0.0948
    3CHL1    H9  186   5.228   1.741   5.802  0.3062  1.6025 -2.1601
    3CHL1   C10  187   5.111   1.799   5.967 -0.5276  0.2971 -0.5954
    3CHL1   C19  188   4.967   1.838   6.003 -0.1616  0.1174 -0.5678
    3CHL1  H19A  189   4.937   1.918   5.932  0.0972 -0.1812 -1.0191
    3CHL1  H19B  190   4.897   1.752   5.991 -1.4388  1.1153 -0.5048
    3CHL1  H19C  191   4.952   1.856   6.111 -0.5111  0.8665 -0.7327
    3CHL1    C1  192   5.160   1.679   6.055  0.4797  0.0267 -0.2190
    3CHL1   H1A  193   5.075   1.608   6.049  0.9045 -0.3661 -1.9534
    3CHL1   H1B  194   5.247   1.635   6.002  0.2744 -1.5462  0.6899
    3CHL1    C2  195   5.187   1.702   6.200  0.2799 -0.5192 -0.6017
    3CHL1   H2A  196   5.248   1.617   6.239  1.5910  1.0141  0.8561
    3CHL1   H2B  197   5.105   1.710   6.275  0.8259  1.4720 -0.1437
    3CHL1   C20  198   4.950   1.654   5.293  0.0831 -0.2093 -0.2731
    3CHL1   H20  199   4.852   1.706   5.298  0.1304 -0.0516 -0.8931
    3CHL1   C21  200   4.929   1.508   5.322  0.1731  0.7803 -0.0448
    3CHL1  H21A  201   4.850   1.492   5.399  2.2078 -1.2679  1.7493
    3CHL1  H21B  202   5.027   1.466   5.351  0.8908  1.4728 -1.3476
    3CHL1  H21C  203   4.913   1.441   5.235  1.3983 -0.9836  1.0421
    3CHL1   C22  204   4.987   1.660   5.139  0.5401  0.0250 -0.1843
    3CHL1  H22A  205   4.911   1.596   5.089 -1.2139  2.5549 -0.9768
    3CHL1  H22B  206   4.962   1.764   5.107 -1.8409 -0.1086  1.0556
    3CHL1   C23  207   5.132   1.612   5.113  0.1669 -0.0891 -1.0037
    3CHL1  H23A  208   5.193   1.704   5.126  1.2335 -0.9647  0.5506
    3CHL1  H23B  209   5.171   1.541   5.190 -2.5112 -1.5636 -0.8732
    3CHL1   C24  210   5.144   1.528   4.981 -0.3579 -1.1340  0.1754
    3CHL1  H24A  211   5.071   1.445   4.992 -1.2340 -0.3072  0.7313
    3CHL1  H24B  212   5.110   1.585   4.892  1.0805  1.8529  1.4025
    3CHL1   C25  213   5.279   1.467   4.956  0.8726 -0.2649 -0.0281
    3CHL1   H25  214   5.297   1.414   5.052  0.6522  1.8095  1.2202
    3CHL1   C26  215   5.274   1.381   4.834  0.4844  0.4077 -0.8401
    3CHL1  H26A  216   5.268   1.448   4.746  1.8928  0.2143 -1.1025
    3CHL1  H26B  217   5.366   1.319   4.826  1.5393  1.7977  0.0873
    3CHL1  H26C  218   5.188   1.312   4.823  0.9397 -0.4876  0.8698
    3CHL1   C27  219   5.393   1.573   4.953  0.1604  0.0553  0.0492
    3CHL1  H27A  220   5.377   1.656   4.881  1.1399  1.4869  1.3981
    3CHL1  H27B  221   5.387   1.616   5.056 -1.3714 -2.7346  1.2089
    3CHL1  H27C  222   5.497   1.540   4.932 -0.4481 -1.3524 -0.8690
    4CHL1    C3  223   4.139   1.965   6.079 -0.4597  0.3421 -0.2359
    4CHL1    H3  224   4.237   1.916   6.059  0.3566  0.5393  2.7600
    4CHL1    O3  225   4.113   1.974   6.218 -0.1555 -0.2287 -0.1385
    4CHL1   H3'  226   4.085   1.884   6.237 -0.7558  0.3247  1.8489
    4CHL1    C4  227   4.121   2.112   6.032 -0.3733 -0.2555 -0.0130
    4CHL1   H4A  228   4.030   2.159   6.073 -1.6335 -2.6874  0.1565
    4CHL1   H4B  229   4.208   2.166   6.075 -0.5282 -0.9143  1.1579
    4CHL1    C5  230   4.117   2.129   5.878  0.9223  0.7039  0.0503
    4CHL1    C6  231   4.194   2.218   5.809  0.2116 -0.3040  0.3821
    4CHL1    H6  232   4.266   2.288   5.855  0.5536 -0.4370  0.0568
    4CHL1    C7  233   4.182   2.238   5.663 -0.0234 -0.2957  0.0862
    4CHL1   H7A  234   4.176   2.344   5.632  0.2355  0.0071  1.0292
    4CHL1   H7B  235   4.277   2.203   5.616  0.8536 -1.0189  2.2324
    4CHL1    C8  236   4.064   2.167   5.590  0.4824  0.5122  0.4559
    4CHL1    H8  237   3.977   2.233   5.614  1.5026  1.1361  2.6780
    4CHL1   C14  238   4.089   2.148   5.438 -0.2586 -0.2596 -0.6932
    4CHL1   H14  239   4.174   2.078   5.429 -0.5317 -0.8705  1.1475
    4CHL1   C15  240   4.123   2.279   5.365 -0.2346  0.4511  0.4605
    4CHL1  H15A  241   4.060   2.367   5.388  0.3895  0.8171  0.8143
    4CHL1  H15B  242   4.231   2.304   5.379  0.4463 -1.0372 -1.6382
    4CHL1   C16  243   4.118   2.238   5.215  0.6959  0.7305  0.8803
    4CHL1  H16A  244   4.066   2.317   5.157 -0.9374 -1.8930 -1.4757
    4CHL1  H16B  245   4.214   2.219   5.161 -0.2249 -1.1025 -0.2147
    4CHL1   C17  246   4.031   2.108   5.212 -0.4601 -0.8700  0.4597
    4CHL1   H17  247   4.101   2.025   5.191  1.2429  0.1122  1.9843
    4CHL1   C13  248   3.971   2.094   5.358 -0.5069 -0.1496  0.3257
    4CHL1   C18  249   3.846   2.180   5.381  0.0821  0.1383 -0.3349
    4CHL1  H18A  250   3.768   2.149   5.308  0.0817 -0.2298 -0.1762
    4CHL1  H18B  251   3.809   2.172   5.485  2.4334 -0.8469  0.4851
    4CHL1  H18C  252   3.862   2.288   5.358 -0.5861  0.6961  1.5872
    4CHL1   C12  253   3.967   1.949   5.407 -0.4035  0.4345  0.0117
    4CHL1  H12A  254   3.892   1.891   5.349 -0.8472  1.5917 -0.5972
    4CHL1  H12B  255   4.063   1.895   5.392 -1.4103 -0.9497 -1.9601
    4CHL1   C11  256   3.931   1.948   5.564  0.0756  0.6361  1.0249
    4CHL1  H11A  257   3.826   1.985   5.570 -0.3690  0.6517 -3.5441
    4CHL1  H11B  258   3.933   1.843   5.600 -0.3160  0.2416 -0.0655
    4CHL1    C9  259   4.038   2.033   5.646 -0.2358 -0.2431 -0.3557
    4CHL1    H9  260   4.137   1.982   5.647  0.1326  0.4621  1.3235
    4CHL1   C10  261   4.017   2.033   5.802  0.2949  0.0545  0.0799
    4CHL1   C19  262   3.873   2.084   5.833  0.0910 -0.2823 -0.1968
    4CHL1  H19A  263   3.851   2.093   5.942  2.0555 -0.6905  0.2678
    4CHL1  H19B  264   3.858   2.184   5.788  1.6717 -0.1198 -0.4365
    4CHL1  H19C  265   3.803   2.015   5.781  1.6303 -0.3501 -2.3140
    4CHL1    C1  266   4.024   1.889   5.868 -0.1541 -0.4056  0.2283
    4CHL1   H1A  267   3.937   1.826   5.842 -0.2447 -0.2442  0.1382
    4CHL1   H1B  268   4.114   1.841   5.824  0.7915  1.0453  0.5090
    4CHL1    C2  269   4.027   1.886   6.022  0.3777 -0.4766  0.2676
    4CHL1   H2A  270   4.043   1.781   6.053  2.5663  0.0986  1.2930
    4CHL1   H2B  271   3.929   1.915   6.065 -0.3253 -1.6110 -0.5273
    4CHL1   C20  272   3.934   2.110   5.095  0.7499  0.5438 -0.5450
    4CHL1   H20  273   3.872   2.201   5.099 -0.2555 -0.0700 -1.4375
    4CHL1   C21  274   3.837   1.995   5.093  0.2311  0.6173  0.2186
    4CHL1  H21A  275   3.882   1.894   5.089  0.8981  0.7871  2.3850
    4CHL1  H21B  276   3.754   2.002   5.020  0.4817 -0.2580 -0.1589
    4CHL1  H21C  277   3.786   1.986   5.191  0.3525 -1.8532  0.1085
    4CHL1   C22  278   4.015   2.107   4.962  0.0459  0.7400 -0.5376
    4CHL1  H22A  279   3.936   2.141   4.892 -1.0214 -0.3823  0.0578
    4CHL1  H22B  280   4.089   2.189   4.959  1.6950 -0.5930  0.8388
    4CHL1   C23  281   4.068   1.974   4.910  0.2335 -0.3323 -0.7665
    4CHL1  H23A  282   4.153   1.930   4.966  2.4859 -1.4910 -4.6476
    4CHL1  H23B  283   3.986   1.900   4.896  0.6065 -0.7472 -0.7728
    4CHL1   C24  284   4.134   2.008   4.773 -0.0296  0.0782 -0.5244
    4CHL1  H24A  285   4.057   2.027   4.695 -2.9620 -0.0730  2.1002
    4CHL1  H24B  286   4.193   2.102   4.779 -1.1457  0.7593  0.2513
    4CHL1   C25  287   4.239   1.911   4.704 -0.5974  0.5471  0.5988
    4CHL1   H25  288   4.310   1.890   4.787  1.0777  1.4274 -0.5417
    4CHL1   C26  289   4.185   1.774   4.663 -0.0703 -0.1607 -0.5362
    4CHL1  H26A  290   4.133   1.725   4.748  1.1172  0.3448  0.5162
    4CHL1  H26B  291   4.124   1.791   4.572 -0.3569  0.1716 -0.2865
    4CHL1  H26C  292   4.270   1.712   4.629  1.1898  0.4086  1.3776
    4CHL1   C27  293   4.314   1.977   4.583 -0.0125 -0.1469  0.3971
    4CHL1  H27A  294   4.411   1.925   4.570 -1.0151 -1.7920 -0.9551
    4CHL1  H27B  295   4.251   1.962   4.493  1.7931  0.9916 -1.1181
    4CHL1  H27C  296   4.336   2.084   4.600 -0.3626 -0.3694  2.5592
    5CHL1    C3  297   4.127   3.830   5.900  0.1747 -0.1057 -0.3484
    5CHL1    H3  298   4.137   3.728   5.942  2.2233 -0.3159 -1.2137
    5CHL1    O3  299   4.129   3.915   6.015  0.4714  0.1791  0.2714
    5CHL1   H3'  300   4.152   4.005   5.989  1.9329 -0.5121 -0.9892
    5CHL1    C4  301   4.239   3.860   5.798 -0.5536 -0.6497 -0.2796
    5CHL1   H4A  302   4.239   3.969   5.775  1.9329 -0.7178 -0.8485
    5CHL1   H4B  303   4.329   3.842   5.860  0.0311  1.9917 -0.2222
    5CHL1    C5  304   4.223   3.779   5.673  0.6184  0.0225  0.3273
    5CHL1    C6  305   4.330   3.704   5.629 -0.5818 -0.0989  0.4740
    5CHL1    H6  306   4.424   3.705   5.686  0.1470 -1.2646 -0.6498
    5CHL1    C7  307   4.313   3.621   5.505 -0.0352  0.3258  0.6599
    5CHL1   H7A  308   4.404   3.602   5.444 -1.8833 -2.6009 -1.4676
    5CHL1   H7B  309   4.300   3.518   5.545  0.0062  1.3553  3.4733
    5CHL1    C8  310   4.186   3.650   5.413 -0.2639  0.4073  0.0665
    5CHL1    H8  311   4.218   3.738   5.354  1.7457 -0.7272 -0.6322
    5CHL1   C14  312   4.164   3.542   5.313  0.4431 -0.3798 -0.2587
    5CHL1   H14  313   4.135   3.448   5.365  1.0136 -0.9361 -0.9194
    5CHL1   C15  314   4.288   3.490   5.227  0.1077 -0.6728  0.6453
    5CHL1  H15A  315   4.346   3.580   5.199  0.8812 -0.7439  1.9660
    5CHL1  H15B  316   4.358   3.419   5.275  0.9258 -0.6316 -0.4683
    5CHL1   C16  317   4.220   3.442   5.101  0.4050  0.2020  0.8275
    5CHL1  H16A  318   4.259   3.497   5.013 -0.6533  1.0318  0.8517
    5CHL1  H16B  319   4.230   3.332   5.087 -4.3904 -0.4210  0.6227
    5CHL1   C17  320   4.062   3.461   5.109 -0.3816 -0.0824  0.3677
    5CHL1   H17  321   4.024   3.367   5.156  1.6252 -2.0312 -1.6426
    5CHL1   C13  322   4.046   3.574   5.213 -0.8917 -0.3326  0.2601
    5CHL1   C18  323   4.078   3.707   5.138  0.2372 -0.1289 -0.1423
    5CHL1  H18A  324   4.177   3.709   5.087  0.2942 -1.4238 -0.1122
    5CHL1  H18B  325   3.997   3.737   5.069 -1.2414 -0.6489  1.3050
    5CHL1  H18C  326   4.081   3.793   5.209 -0.4252 -1.7796  1.9951
    5CHL1   C12  327   3.918   3.584   5.295 -0.2736  0.5657 -0.0534
    5CHL1  H12A  328   3.833   3.618   5.232 -1.8082 -1.8000  0.5879
    5CHL1  H12B  329   3.886   3.494   5.351  0.0113  0.1915 -0.4862
    5CHL1   C11  330   3.937   3.691   5.409  0.9390 -0.2143  0.2382
    5CHL1  H11A  331   3.938   3.788   5.354  0.1133 -0.7660 -0.7812
    5CHL1  H11B  332   3.852   3.695   5.481  1.3064 -1.7184  0.7888
    5CHL1    C9  333   4.068   3.678   5.497  0.3160 -0.0197  0.5518
    5CHL1    H9  334   4.050   3.584   5.553 -1.8234  0.3205  0.5319
    5CHL1   C10  335   4.086   3.787   5.609 -0.2714  0.0650 -0.5135
    5CHL1   C19  336   4.053   3.923   5.547 -0.4170 -0.5991  0.3054
    5CHL1  H19A  337   4.070   4.009   5.615 -2.0194  0.1959 -0.2506
    5CHL1  H19B  338   4.119   3.944   5.460 -0.9114  2.3764  0.5334
    5CHL1  H19C  339   3.949   3.931   5.510 -0.3653  0.7572  0.3928
    5CHL1    C1  340   3.978   3.754   5.719  0.2607  0.1729 -0.1728
    5CHL1   H1A  341   3.874   3.757   5.682  0.7246  1.5648 -1.4350
    5CHL1   H1B  342   3.993   3.648   5.750 -0.0249  0.4527  0.9975
    5CHL1    C2  343   3.989   3.842   5.842  0.9365 -0.3476  0.1151
    5CHL1   H2A  344   3.901   3.822   5.906  0.2996 -1.6368 -1.0839
    5CHL1   H2B  345   3.976   3.945   5.801  3.5281  0.0771  0.2011
    5CHL1   C20  346   3.986   3.475   4.972  0.2495  0.3937  0.0524
    5CHL1   H20  347   3.991   3.580   4.936  0.6293  1.4998  3.0457
    5CHL1   C21  348   3.837   3.442   5.000 -0.4300  0.4893 -0.5707
    5CHL1  H21A  349   3.824   3.340   5.044  0.0953 -0.4490 -2.4877
    5CHL1  H21B  350   3.773   3.446   4.910  0.4518 -1.1959 -1.3232
    5CHL1  H21C  351   3.807   3.520   5.074  0.9855  0.2015  0.3531
    5CHL1   C22  352   4.037   3.384   4.859  0.3406  0.4647 -0.0025
    5CHL1  H22A  353   4.146   3.406   4.857  0.5437 -0.4537  0.4523
    5CHL1  H22B  354   4.021   3.276   4.882  0.0575  0.5455  0.1775
    5CHL1   C23  355   3.985   3.424   4.720  0.0005  0.2241  0.6621
    5CHL1  H23A  356   3.880   3.386   4.720 -0.2741  0.9555  0.2718
    5CHL1  H23B  357   3.990   3.533   4.699 -2.6760  0.5121  1.1751
    5CHL1   C24  358   4.056   3.333   4.613 -0.3711 -0.4478 -0.6878
    5CHL1  H24A  359   4.167   3.344   4.611  0.0117 -3.2576  0.8019
    5CHL1  H24B  360   4.045   3.233   4.660 -0.1147  0.9129  2.5430
    5CHL1   C25  361   3.986   3.348   4.478  0.3659 -0.0354  0.0336
    5CHL1   H25  362   3.877   3.329   4.488  0.0310  1.4960 -0.3680
    5CHL1   C26  363   4.004   3.488   4.419 -0.2570 -0.1524 -0.0330
    5CHL1  H26A  364   3.955   3.569   4.479  0.3940  0.2494 -0.0405
    5CHL1  H26B  365   4.110   3.519   4.418 -0.8087  1.9492  1.0889
    5CHL1  H26C  366   3.971   3.489   4.313 -0.0595 -2.8859 -0.1798
    5CHL1   C27  367   4.034   3.250   4.371 -0.1394  1.0758  0.6003
    5CHL1  H27A  368   3.972   3.270   4.281 -0.4793  1.9586  1.0171
    5CHL1  H27B  369   4.145   3.252   4.360 -0.2051 -1.7865 -1.9630
    5CHL1  H27C  370   4.012   3.146   4.403 -1.1535  0.7371 -1.0294
    6CHL1    C3  371   3.299   1.157   5.761 -0.3924 -0.3703 -0.0194
    6CHL1    H3  372   3.387   1.096   5.730  0.2383  0.9800 -0.9475
    6CHL1    O3  373   3.279   1.152   5.899  0.2639  0.1062 -0.4140
    6CHL1   H3'  374   3.191   1.185   5.920  0.3571  1.2313 -1.6454
    6CHL1    C4  375   3.333   1.307   5.719 -0.2081  0.2556  0.5755
    6CHL1   H4A  376   3.250   1.374   5.747 -0.6500  0.0666 -0.2591
    6CHL1   H4B  377   3.412   1.345   5.787  0.4695  1.4966 -0.8482
    6CHL1    C5  378   3.365   1.305   5.564  0.2841  0.1823  0.0686
    6CHL1    C6  379   3.481   1.335   5.508 -0.1907 -0.3311  0.2080
    6CHL1    H6  380   3.552   1.373   5.583 -2.2165  0.5039  1.7967
    6CHL1    C7  381   3.522   1.329   5.364  0.0535  0.6342 -0.0630
    6CHL1   H7A  382   3.576   1.420   5.329  0.1644  0.6304  0.0999
    6CHL1   H7B  383   3.590   1.242   5.350 -0.1619  0.3416  0.6707
    6CHL1    C8  384   3.390   1.319   5.279 -0.1083 -0.7179 -0.0268
    6CHL1    H8  385   3.348   1.420   5.302  0.9044 -0.0798 -0.8776
    6CHL1   C14  386   3.429   1.296   5.131  0.1723  0.4928  1.1652
    6CHL1   H14  387   3.484   1.200   5.130 -0.6716 -0.0038  0.6282
    6CHL1   C15  388   3.524   1.402   5.064  0.0252  0.6553 -0.5941
    6CHL1  H15A  389   3.497   1.501   5.105 -1.3485 -0.2657  0.8819
    6CHL1  H15B  390   3.629   1.383   5.092  0.3550  0.6424 -1.7875
    6CHL1   C16  391   3.500   1.383   4.911 -0.6869 -1.5218 -0.6479
    6CHL1  H16A  392   3.470   1.480   4.866 -3.6956 -2.7713 -1.6447
    6CHL1  H16B  393   3.593   1.343   4.865  1.9258  0.1173  2.7696
    6CHL1   C17  394   3.374   1.282   4.894 -0.2789  0.0628  0.7087
    6CHL1   H17  395   3.429   1.185   4.886 -1.1164 -0.3834  0.3133
    6CHL1   C13  396   3.307   1.276   5.036 -0.3555  0.1245 -0.2049
    6CHL1   C18  397   3.208   1.404   5.034  0.2155 -0.1428  0.2164
    6CHL1  H18A  398   3.260   1.496   5.000  2.1194 -0.4283  2.1573
    6CHL1  H18B  399   3.129   1.397   4.955  0.5857  1.2108 -0.2942
    6CHL1  H18C  400   3.162   1.430   5.131  0.0356  0.5484 -0.0510
    6CHL1   C12  401   3.233   1.157   5.080 -0.0827 -0.4027  0.3798
    6CHL1  H12A  402   3.148   1.134   5.012  1.2530 -0.0513 -1.5134
    6CHL1  H12B  403   3.299   1.068   5.071  2.6078  1.6421 -2.0249
    6CHL1   C11  404   3.176   1.173   5.225 -0.3375 -0.1796  0.0443
    6CHL1  H11A  405   3.103   1.257   5.225  1.2375  1.2297  0.2266
    6CHL1  H11B  406   3.128   1.084   5.270 -1.6597  0.3276 -0.3073
    6CHL1    C9  407   3.286   1.219   5.331  0.1246 -0.0141 -0.7514
    6CHL1    H9  408   3.351   1.130   5.342 -0.1338  0.0366  1.7033
    6CHL1   C10  409   3.246   1.254   5.478 -0.0029  0.1820 -0.1851
    6CHL1   C19  410   3.130   1.356   5.472 -0.1150 -0.4936 -0.3677
    6CHL1  H19A  411   3.039   1.321   5.419 -0.2966 -0.5481 -0.0220
    6CHL1  H19B  412   3.088   1.389   5.570 -0.3618 -0.0757 -0.6116
    6CHL1  H19C  413   3.153   1.442   5.406 -1.2965 -1.3290 -1.9367
    6CHL1    C1  414   3.198   1.119   5.537  0.0056  0.6725  0.4943
    6CHL1   H1A  415   3.102   1.089   5.490  1.1364 -0.8838 -0.9314
    6CHL1   H1B  416   3.268   1.041   5.501 -0.9734 -0.0967  0.2353
    6CHL1    C2  417   3.178   1.109   5.687  0.4858 -0.3727 -0.1061
    6CHL1   H2A  418   3.157   1.005   5.720  3.3446 -0.8242  0.5550
    6CHL1   H2B  419   3.095   1.173   5.725  1.3875  0.5462  0.3586
    6CHL1   C20  420   3.295   1.292   4.761 -0.0123 -0.4600 -0.4362
    6CHL1   H20  421   3.223   1.377   4.767  0.4383 -0.1409  0.8740
    6CHL1   C21  422   3.209   1.169   4.732  0.0458 -0.0745 -0.5552
    6CHL1  H21A  423   3.149   1.161   4.639  0.0370 -2.6304 -0.4075
    6CHL1  H21B  424   3.118   1.163   4.796 -2.0548  1.3666 -3.1980
    6CHL1  H21C  425   3.273   1.078   4.736 -0.2563 -0.2742  2.4483
    6CHL1   C22  426   3.385   1.329   4.637  0.1089 -0.2761  0.5145
    6CHL1  H22A  427   3.448   1.417   4.659 -1.2015  1.1796 -1.2233
    6CHL1  H22B  428   3.455   1.243   4.624 -0.2644 -0.5489  0.2937
    6CHL1   C23  429   3.300   1.347   4.508 -0.4855  0.5310  0.1080
    6CHL1  H23A  430   3.263   1.245   4.483  1.1624 -0.1526  0.3041
    6CHL1  H23B  431   3.218   1.420   4.523  0.5993  1.4462  1.8369
    6CHL1   C24  432   3.394   1.389   4.384  0.0270  0.5153 -0.4610
    6CHL1  H24A  433   3.413   1.498   4.391  2.0318  0.2003 -0.1030
    6CHL1  H24B  434   3.491   1.334   4.388  1.3588  2.7645  0.3555
    6CHL1   C25  435   3.321   1.345   4.256 -0.2386 -0.1243  0.0308
    6CHL1   H25  436   3.271   1.246   4.269 -3.3027  1.3831  0.4521
    6CHL1   C26  437   3.206   1.437   4.215  0.2924  0.3629 -0.3092
    6CHL1  H26A  438   3.128   1.449   4.293  1.2090  0.3681  0.6320
    6CHL1  H26B  439   3.247   1.538   4.193  3.0252 -0.5185  0.4125
    6CHL1  H26C  440   3.149   1.393   4.131 -1.4058  0.2838  0.8355
    6CHL1   C27  441   3.413   1.326   4.133  0.1679  0.5682  0.5712
    6CHL1  H27A  442   3.454   1.425   4.106 -0.2244  0.7236  0.5517
    6CHL1  H27B  443   3.499   1.260   4.159  0.3792 -0.0800 -1.5509
    6CHL1  H27C  444   3.364   1.294   4.039 -0.3074  1.8350  0.3678
    7CHL1    C3  445   5.398   1.334   5.904  0.6788  0.5986 -0.3735
    7CHL1    H3  446   5.367   1.233   5.938 -0.5339  0.2170 -2.4317
    7CHL1    O3  447   5.407   1.434   6.005 -0.2362  0.6370  0.1137
    7CHL1   H3'  448   5.502   1.445   6.020 -0.1494  0.0190  0.0522
    7CHL1    C4  449   5.535   1.332   5.826  0.0943 -0.0885  0.1698
    7CHL1   H4A  450   5.561   1.438   5.803 -3.4579  0.3621 -2.7616
    7CHL1   H4B  451   5.612   1.300   5.899 -1.5305 -2.8153  0.8429
    7CHL1    C5  452   5.535   1.258   5.694 -0.5928 -0.2390 -0.0602
    7CHL1    C6  453   5.628   1.159   5.681  0.1703 -0.5566  0.4099
    7CHL1    H6  454   5.701   1.147   5.762 -2.2965  0.3305  2.9335
    7CHL1    C7  455   5.646   1.080   5.552  0.1252  0.1719 -0.9460
    7CHL1   H7A  456   5.749   1.073   5.512  0.6087 -1.1909  0.4673
    7CHL1   H7B  457   5.617   0.975   5.575 -0.3719  0.4807 -0.1084
    7CHL1    C8  458   5.539   1.126   5.451 -0.5422 -0.8812  0.0214
    7CHL1    H8  459   5.589   1.209   5.396  1.4991 -0.7111  1.9478
    7CHL1   C14  460   5.517   1.014   5.348 -0.0664 -0.4735 -0.0328
    7CHL1   H14  461   5.473   0.933   5.410  0.3989  0.2880  1.3164
    7CHL1   C15  462   5.639   0.957   5.269 -0.1576 -0.1467 -0.2223
    7CHL1  H15A  463   5.711   1.036   5.241 -0.4579  0.6034  1.0785
    7CHL1  H15B  464   5.700   0.881   5.323  0.5441  1.7746  1.8012
    7CHL1   C16  465   5.583   0.887   5.139  0.0495 -0.2735  0.3826
    7CHL1  H16A  466   5.627   0.941   5.053 -0.3186  0.5698  0.7119
    7CHL1  H16B  467   5.600   0.777   5.135 -0.7803 -0.4293  0.8561
    7CHL1   C17  468   5.426   0.919   5.146 -0.1745  0.0039  0.4450
    7CHL1   H17  469   5.383   0.833   5.202  0.3699 -2.0466 -2.1356
    7CHL1   C13  470   5.413   1.048   5.235 -0.5709 -0.3318  0.0133
    7CHL1   C18  471   5.452   1.176   5.155  0.2042 -0.4660  0.5953
    7CHL1  H18A  472   5.525   1.162   5.073 -0.0840 -0.8912  0.4053
    7CHL1  H18B  473   5.360   1.203   5.098 -0.7971 -2.0453  1.3726
    7CHL1  H18C  474   5.482   1.263   5.217 -1.3793  0.0875  0.6324
    7CHL1   C12  475   5.277   1.068   5.291 -0.0502 -0.7777  0.3044
    7CHL1  H12A  476   5.200   1.105   5.220  1.8580 -0.3219 -1.6562
    7CHL1  H12B  477   5.243   0.975   5.342 -1.7246 -1.3991 -1.7940
    7CHL1   C11  478   5.290   1.177   5.399 -0.2758  0.0549  0.9645
    7CHL1  H11A  479   5.291   1.278   5.351  0.3440  0.7770  2.4260
    7CHL1  H11B  480   5.192   1.179   5.452 -0.9259 -0.5553 -0.1790
    7CHL1    C9  481   5.400   1.169   5.500  0.5202  0.7141 -0.3196
    7CHL1    H9  482   5.368   1.088   5.569  0.6752  0.6102 -0.3716
    7CHL1   C10  483   5.413   1.285   5.604  0.2840  0.2117  0.7051
    7CHL1   C19  484   5.441   1.422   5.535  0.3305  0.3865  0.0188
    7CHL1  H19A  485   5.534   1.416   5.475  1.5817 -1.4094  1.9974
    7CHL1  H19B  486   5.350   1.454   5.481  0.4926  0.5919 -0.1350
    7CHL1  H19C  487   5.465   1.493   5.617  2.3680 -1.0841  0.7913
    7CHL1    C1  488   5.280   1.288   5.688  0.0727 -0.8467 -0.4642
    7CHL1   H1A  489   5.193   1.310   5.622  1.1565  1.5546 -1.2058
    7CHL1   H1B  490   5.272   1.185   5.727 -1.0851 -0.3598  0.6508
    7CHL1    C2  491   5.280   1.378   5.813 -1.1169  0.4345  0.2993
    7CHL1   H2A  492   5.179   1.369   5.858 -1.6982  0.1988 -1.0036
    7CHL1   H2B  493   5.300   1.483   5.782  2.1742 -0.9507 -3.2187
    7CHL1   C20  494   5.340   0.930   5.012 -0.2080  0.3647 -0.3913
    7CHL1   H20  495   5.257   1.003   5.025  0.9543  1.5777  0.5005
    7CHL1   C21  496   5.263   0.796   5.005 -0.1828 -0.1864  0.4375
    7CHL1  H21A  497   5.334   0.714   5.030  0.1666  0.9599  3.7299
    7CHL1  H21B  498   5.215   0.795   4.905 -0.9524  1.7339  0.7512
    7CHL1  H21C  499   5.186   0.783   5.085 -1.8171 -0.6738 -1.1607
    7CHL1   C22  500   5.420   0.962   4.889  0.2923  0.0278 -0.2602
    7CHL1  H22A  501   5.483   1.052   4.904  0.9176 -0.2842 -0.9518
    7CHL1  H22B  502   5.495   0.888   4.854  2.7669  2.1549  0.2703
    7CHL1   C23  503   5.328   0.978   4.763 -0.1656  0.4498 -0.1614
    7CHL1  H23A  504   5.291   0.877   4.735  0.7832 -0.7179  2.4544
    7CHL1  H23B  505   5.234   1.029   4.792  0.1594 -0.2937  2.4929
    7CHL1   C24  506   5.397   1.039   4.644 -0.3017  0.6808 -0.3167
    7CHL1  H24A  507   5.440   1.134   4.683 -3.2681  2.2438 -0.5896
    7CHL1  H24B  508   5.482   0.974   4.614  0.5775  1.0321  1.2916
    7CHL1   C25  509   5.312   1.065   4.518 -0.0841  0.4961  0.1928
    7CHL1   H25  510   5.274   0.966   4.485 -2.4096  1.1859  0.6230
    7CHL1   C26  511   5.194   1.153   4.532 -0.0493 -0.1292  0.5834
    7CHL1  H26A  512   5.125   1.126   4.615 -0.3188 -0.6797  0.1945
    7CHL1  H26B  513   5.239   1.254   4.539  2.3821 -0.8314 -2.6156
    7CHL1  H26C  514   5.133   1.144   4.439 -0.3360 -1.1052  0.8492
    7CHL1   C27  515   5.395   1.106   4.395 -0.8884 -0.0036  0.1906
    7CHL1  H27A  516   5.445   1.201   4.421  1.1160 -0.7599 -0.7179
    7CHL1  H27B  517   5.470   1.025   4.383  1.3765  1.6366  2.2994
    7CHL1  H27C  518   5.332   1.097   4.304 -1.9661 -0.7616  0.9729
    8CHL1    C3  519   2.612   1.208   5.704 -0.0178  0.5681  0.2562
    8CHL1    H3  520   2.536   1.287   5.687 -0.3217  0.7570  2.2550
    8CHL1    O3  521   2.619   1.196   5.842  0.1716  0.2646 -0.1758
    8CHL1   H3'  522   2.679   1.123   5.859 -0.4996 -0.2261  0.1454
    8CHL1    C4  523   2.578   1.076   5.639  0.3256 -0.0456  0.1927
    8CHL1   H4A  524   2.655   0.998   5.661  1.0937  0.4760 -0.5750
    8CHL1   H4B  525   2.484   1.031   5.677  0.9529 -1.0249  0.6496
    8CHL1    C5  526   2.556   1.094   5.487  0.2165  0.8905  0.2868
    8CHL1    C6  527   2.433   1.073   5.432  0.7498  0.3485  0.2867
    8CHL1    H6  528   2.351   1.019   5.482  1.8389 -1.9358 -0.2607
    8CHL1    C7  529   2.416   1.084   5.279 -0.6150  0.4685  0.1085
    8CHL1   H7A  530   2.371   0.987   5.247 -1.2226  0.9506 -0.5269
    8CHL1   H7B  531   2.354   1.171   5.250 -1.3429 -0.2461 -0.5172
    8CHL1    C8  532   2.559   1.086   5.212  0.1666  0.1236  0.6195
    8CHL1    H8  533   2.600   0.984   5.234 -1.1612 -0.2724  1.3609
    8CHL1   C14  534   2.533   1.118   5.062  0.2852 -0.1845  0.5127
    8CHL1   H14  535   2.498   1.223   5.051  0.0211 -0.3955 -0.8925
    8CHL1   C15  536   2.438   1.022   4.982 -0.9409  0.1534  0.5785
    8CHL1  H15A  537   2.465   0.919   5.015  0.2874 -0.0913 -1.1174
    8CHL1  H15B  538   2.333   1.056   4.998 -1.9524 -2.5443  0.2109
    8CHL1   C16  539   2.478   1.037   4.835 -0.6981 -0.2256  0.9664
    8CHL1  H16A  540   2.513   0.940   4.794  2.3711  0.3585  1.9893
    8CHL1  H16B  541   2.401   1.082   4.770  1.0402  0.4372 -0.6926
    8CHL1   C17  542   2.614   1.116   4.831 -0.5253 -0.0264 -0.1139
    8CHL1   H17  543   2.586   1.222   4.812  0.6949  0.2691 -0.3458
    8CHL1   C13  544   2.667   1.115   4.984 -0.4352 -0.1908  0.3073
    8CHL1   C18  545   2.743   0.981   5.002 -0.5472 -0.7089  0.2658
    8CHL1  H18A  546   2.802   0.968   5.095 -1.3497  0.7087  1.0070
    8CHL1  H18B  547   2.673   0.896   4.983  1.9239 -2.5460 -1.2385
    8CHL1  H18C  548   2.814   0.970   4.917  0.4724  0.8387  0.8757
    8CHL1   C12  549   2.739   1.243   5.033  0.2364 -0.1083  0.2916
    8CHL1  H12A  550   2.844   1.251   4.998  0.8171 -0.1554  1.9395
    8CHL1  H12B  551   2.679   1.332   5.004 -1.3376 -1.2969 -0.2500
    8CHL1   C11  552   2.764   1.233   5.181 -0.5949 -0.5699 -0.5400
    8CHL1  H11A  553   2.847   1.160   5.188  0.5042  0.6284 -0.7959
    8CHL1  H11B  554   2.815   1.326   5.214 -1.8577  0.7349 -2.1241
    8CHL1    C9  555   2.644   1.198   5.274 -0.2200  0.3916 -0.0438
    8CHL1    H9  556   2.571   1.282   5.272 -0.8023 -0.1181 -1.2182
    8CHL1   C10  557   2.677   1.167   5.420  0.0189  0.4070  0.0817
    8CHL1   C19  558   2.792   1.053   5.425 -0.3910 -0.1590 -0.0255
    8CHL1  H19A  559   2.767   0.962   5.366 -1.7380 -0.2383  0.6422
    8CHL1  H19B  560   2.887   1.102   5.393 -0.5513 -0.0667 -0.3747
    8CHL1  H19C  561   2.806   1.016   5.528  1.0644  2.2376  0.7429
    8CHL1    C1  562   2.723   1.289   5.501  0.1255 -0.2834 -0.8612
    8CHL1   H1A  563   2.813   1.338   5.458  0.0061  0.8957  0.1772
    8CHL1   H1B  564   2.652   1.374   5.492 -0.5746 -0.9096 -1.3685
    8CHL1    C2  565   2.747   1.253   5.648  0.9931 -0.5083 -0.4383
    8CHL1   H2A  566   2.778   1.346   5.702 -4.1762  1.5824 -0.4856
    8CHL1   H2B  567   2.823   1.174   5.664  1.7909  0.3988  0.4317
    8CHL1   C20  568   2.708   1.071   4.719  0.0235 -0.3337 -0.5522
    8CHL1   H20  569   2.732   0.962   4.722  0.7564 -0.1468  0.9518
    8CHL1   C21  570   2.844   1.142   4.736 -0.4836 -0.0307  0.3396
    8CHL1  H21A  571   2.881   1.128   4.841 -0.8218 -2.7181  0.1579
    8CHL1  H21B  572   2.837   1.250   4.713  0.1637  0.0670  0.5653
    8CHL1  H21C  573   2.922   1.096   4.672 -0.2555 -0.0609  0.6318
    8CHL1   C22  574   2.650   1.102   4.581 -0.3617 -0.2861  0.1812
    8CHL1  H22A  575   2.552   1.050   4.572 -1.2223  1.4377 -1.0084
    8CHL1  H22B  576   2.625   1.210   4.578  2.4223  0.4614  0.9029
    8CHL1   C23  577   2.750   1.073   4.471  0.1413 -0.2449 -0.2596
    8CHL1  H23A  578   2.708   1.111   4.376  1.0802  0.9902 -0.2074
    8CHL1  H23B  579   2.845   1.129   4.486  0.0754 -0.0915 -0.4147
    8CHL1   C24  580   2.777   0.929   4.431  0.2121 -0.6838 -0.0650
    8CHL1  H24A  581   2.818   0.885   4.524  1.4570 -0.9503 -0.7303
    8CHL1  H24B  582   2.698   0.857   4.401 -0.3668 -0.8228  1.7231
    8CHL1   C25  583   2.877   0.920   4.313  0.1169  0.4364  0.5472
    8CHL1   H25  584   2.899   0.815   4.281  2.7306  0.9974  0.2388
    8CHL1   C26  585   2.835   0.994   4.183  0.4696  0.7448  0.7714
    8CHL1  H26A  586   2.736   0.954   4.152  1.1267 -0.7957  0.6161
    8CHL1  H26B  587   2.837   1.105   4.191  0.6520  0.6836  1.5859
    8CHL1  H26C  588   2.903   0.962   4.101 -0.2025 -1.1978  0.9380
    8CHL1   C27  589   3.011   0.965   4.360 -0.4908  0.8025  0.1480
    8CHL1  H27A  590   3.080   0.940   4.277 -0.2998  0.6194  0.3618
    8CHL1  H27B  591   3.033   1.070   4.391  1.3706  0.9318 -1.4423
    8CHL1  H27C  592   3.039   0.903   4.447 -0.8540  1.1970  0.5524
    9CHL1    C3  593   5.609   1.955   6.181  0.1117 -0.2772 -0.4635
    9CHL1    H3  594   5.507   1.981   6.144  0.1171  0.3781 -0.0253
    9CHL1    O3  595   5.592   1.939   6.319 -0.6815 -0.1548 -0.2595
    9CHL1   H3'  596   5.558   1.849   6.329  0.8355 -0.7644 -0.4045
    9CHL1    C4  597   5.662   1.823   6.127  0.7308  0.1510 -0.3320
    9CHL1   H4A  598   5.767   1.821   6.160 -0.1907 -0.2121  2.8898
    9CHL1   H4B  599   5.609   1.741   6.179  1.0912 -0.0574 -0.2990
    9CHL1    C5  600   5.640   1.832   5.981  0.0671 -0.0178 -0.1117
    9CHL1    C6  601   5.553   1.749   5.921 -0.0312 -0.0885  0.3768
    9CHL1    H6  602   5.501   1.667   5.974  1.0508  0.6026  2.6161
    9CHL1    C7  603   5.531   1.744   5.775  0.1193 -0.0164  0.2239
    9CHL1   H7A  604   5.538   1.637   5.746  0.4343 -0.0917  0.5827
    9CHL1   H7B  605   5.428   1.782   5.756  0.4379  0.6688 -0.1838
    9CHL1    C8  606   5.638   1.827   5.693 -0.0932 -0.0113 -0.1348
    9CHL1    H8  607   5.728   1.764   5.680  0.9759  1.7178 -1.4591
    9CHL1   C14  608   5.581   1.857   5.563  0.2601  0.1326 -0.7058
    9CHL1   H14  609   5.482   1.902   5.585 -1.6655 -4.0961  0.0880
    9CHL1   C15  610   5.542   1.738   5.474 -0.3869  0.4334  0.2713
    9CHL1  H15A  611   5.626   1.667   5.465 -0.5810 -0.4616  3.9993
    9CHL1  H15B  612   5.445   1.696   5.510 -0.1337 -0.3338  0.0738
    9CHL1   C16  613   5.512   1.799   5.338 -0.0643 -0.0111 -0.3148
    9CHL1  H16A  614   5.551   1.744   5.250  2.6030  0.6282  0.3771
    9CHL1  H16B  615   5.406   1.827   5.321 -0.0624 -0.3599 -0.9248
    9CHL1   C17  616   5.582   1.948   5.344 -0.2016  1.0474  0.7870
    9CHL1   H17  617   5.497   2.018   5.357 -0.7585  1.0037 -2.0187
    9CHL1   C13  618   5.668   1.941   5.475 -0.4362 -0.3418 -0.1262
    9CHL1   C18  619   5.796   1.876   5.426 -0.3751  0.3162  0.4550
    9CHL1  H18A  620   5.781   1.783   5.368  1.0273 -0.0463  0.6456
    9CHL1  H18B  621   5.868   1.945   5.376  0.5957 -2.0763 -1.6627
    9CHL1  H18C  622   5.861   1.840   5.509 -1.1935 -0.4246  0.7936
    9CHL1   C12  623   5.686   2.074   5.540  0.5543  0.4046  0.0707
    9CHL1  H12A  624   5.744   2.155   5.491 -1.8930  2.1892 -0.0366
    9CHL1  H12B  625   5.585   2.117   5.552  0.0760 -0.5595 -0.4320
    9CHL1   C11  626   5.749   2.061   5.682 -0.0014  0.1333 -0.0879
    9CHL1  H11A  627   5.854   2.030   5.661 -0.2809  0.0068 -1.4302
    9CHL1  H11B  628   5.752   2.163   5.726 -1.7594 -0.0403  0.4978
    9CHL1    C9  629   5.669   1.961   5.767  0.5508  0.4914 -0.2125
    9CHL1    H9  630   5.569   2.010   5.774  0.3865 -0.0275  1.4248
    9CHL1   C10  631   5.719   1.948   5.913  0.5578 -0.6004  0.4824
    9CHL1   C19  632   5.863   1.907   5.910 -0.3286 -0.4460 -0.1214
    9CHL1  H19A  633   5.894   1.856   6.004 -0.3799 -0.4246 -0.0937
    9CHL1  H19B  634   5.889   1.860   5.813  0.7810 -1.2074  0.5200
    9CHL1  H19C  635   5.926   1.999   5.906 -0.5798 -0.3204 -1.3862
    9CHL1    C1  636   5.694   2.082   5.986  0.0183 -0.5578  0.8582
    9CHL1   H1A  637   5.756   2.162   5.940 -0.5152 -1.1158 -0.9017
    9CHL1   H1B  638   5.592   2.116   5.961  0.7147  0.8305 -0.2241
    9CHL1    C2  639   5.702   2.078   6.138 -0.4390  0.0969 -0.3895
    9CHL1   H2A  640   5.675   2.174   6.185  2.7025  0.5290  0.7477
    9CHL1   H2B  641   5.803   2.056   6.178 -0.5361  0.5243  0.1004
    9CHL1   C20  642   5.651   1.975   5.209 -0.7715  0.2771 -0.0480
    9CHL1   H20  643   5.723   1.894   5.185 -0.9142  0.2363 -0.3371
    9CHL1   C21  644   5.718   2.115   5.205 -0.3890  0.0191  0.0236
    9CHL1  H21A  645   5.660   2.202   5.243  1.1632  1.3333 -0.5068
    9CHL1  H21B  646   5.755   2.152   5.107 -2.7129  2.3112 -0.1066
    9CHL1  H21C  647   5.804   2.104   5.274 -0.4636  3.1633  0.7874
    9CHL1   C22  648   5.538   1.980   5.096 -0.3247  0.0067  0.1367
    9CHL1  H22A  649   5.478   1.887   5.092  1.1478 -1.0573  1.4632
    9CHL1  H22B  650   5.475   2.066   5.127  0.4357  1.5835 -2.4167
    9CHL1   C23  651   5.586   2.005   4.951  0.2213 -0.5740 -0.0262
    9CHL1  H23A  652   5.493   2.021   4.893  0.9788  3.1549 -0.4688
    9CHL1  H23B  653   5.649   2.097   4.955 -2.0573  1.0079  2.0470
    9CHL1   C24  654   5.657   1.878   4.904 -0.2927 -0.1423  0.9755
    9CHL1  H24A  655   5.756   1.873   4.955 -1.1957 -2.3146  2.6487
    9CHL1  H24B  656   5.599   1.788   4.930 -0.0508 -0.7692 -0.5327
    9CHL1   C25  657   5.690   1.877   4.756  0.7592  1.0527 -0.1264
    9CHL1   H25  658   5.602   1.870   4.690  0.5095 -1.7983  0.3757
    9CHL1   C26  659   5.765   2.004   4.713  0.8880  0.1520 -0.4536
    9CHL1  H26A  660   5.865   2.010   4.761 -0.0020 -0.9188  1.6655
    9CHL1  H26B  661   5.793   2.001   4.605  0.3054  1.6063 -0.6694
    9CHL1  H26C  662   5.711   2.097   4.739  0.3440 -0.4169  0.5208
    9CHL1   C27  663   5.776   1.757   4.718 -0.1603  1.0566  0.5962
    9CHL1  H27A  664   5.786   1.748   4.607 -1.5542 -0.4060  0.5441
    9CHL1  H27B  665   5.880   1.760   4.756  0.4369 -1.6482 -0.5571
    9CHL1  H27C  666   5.726   1.664   4.753  0.4824  0.0218 -1.1049
   10CHL1    C3  667   5.239   3.418   6.098 -0.7434 -0.2410  0.1071
   10CHL1    H3  668   5.144   3.475   6.096  0.2118  1.4075  0.3032
   10CHL1    O3  669   5.279   3.416   6.232  0.4284 -0.4176 -0.0052
   10CHL1   H3'  670   5.193   3.426   6.274 -0.7652 -0.0040 -2.3881
   10CHL1    C4  671   5.227   3.275   6.040 -0.1926 -0.5990 -0.3925
   10CHL1   H4A  672   5.320   3.219   6.066 -0.2987 -0.8229 -0.4893
   10CHL1   H4B  673   5.149   3.221   6.098 -1.7380  0.5048 -1.3584
   10CHL1    C5  674   5.204   3.257   5.895  0.5285  0.3538  0.4341
   10CHL1    C6  675   5.098   3.191   5.848 -0.5394  0.5278 -0.0641
   10CHL1    H6  676   5.032   3.132   5.913  2.0400 -1.0121  1.3583
   10CHL1    C7  677   5.060   3.176   5.698 -0.3459 -0.2047 -0.1889
   10CHL1   H7A  678   5.049   3.072   5.660 -1.7211 -1.3100  2.8819
   10CHL1   H7B  679   4.967   3.232   5.675  0.0953  0.8140  0.4479
   10CHL1    C8  680   5.169   3.230   5.605  0.3564 -0.3037  0.2964
   10CHL1    H8  681   5.252   3.157   5.617  1.6864  1.2080  0.6133
   10CHL1   C14  682   5.117   3.252   5.458 -0.3389 -0.9269 -0.6160
   10CHL1   H14  683   5.043   3.335   5.463  0.3952 -0.2901  0.2823
   10CHL1   C15  684   5.046   3.139   5.394 -0.0046  0.0629  0.4507
   10CHL1  H15A  685   5.089   3.040   5.422  0.2690  0.7199  2.5872
   10CHL1  H15B  686   4.938   3.132   5.418 -0.5271  2.3853 -0.9824
   10CHL1   C16  687   5.055   3.171   5.245 -0.0472 -0.0802  0.0426
   10CHL1  H16A  688   5.083   3.078   5.191 -1.8347 -0.8054  0.2955
   10CHL1  H16B  689   4.954   3.205   5.213 -0.2653 -0.7004  0.0676
   10CHL1   C17  690   5.150   3.294   5.221  0.7890  0.1842  0.1652
   10CHL1   H17  691   5.081   3.380   5.207 -1.4013 -1.6044 -0.5968
   10CHL1   C13  692   5.225   3.302   5.358  0.7056  0.2032  0.0945
   10CHL1   C18  693   5.345   3.205   5.361  0.5009  0.4679  0.3343
   10CHL1  H18A  694   5.428   3.243   5.298  0.5650 -0.0788  0.0854
   10CHL1  H18B  695   5.382   3.185   5.464 -1.4534 -1.8452  0.6671
   10CHL1  H18C  696   5.306   3.106   5.329 -0.4797  0.4827  1.4166
   10CHL1   C12  697   5.267   3.442   5.400  0.2665  0.2020  0.2901
   10CHL1  H12A  698   5.354   3.461   5.333  0.3411 -0.3854  0.2092
   10CHL1  H12B  699   5.177   3.505   5.392  0.1166 -0.2278 -2.7668
   10CHL1   C11  700   5.314   3.436   5.547 -0.3493 -0.1977 -0.3117
   10CHL1  H11A  701   5.412   3.384   5.541 -0.9228 -1.0887 -3.2854
   10CHL1  H11B  702   5.333   3.541   5.577  2.8978 -0.3846 -1.3613
   10CHL1    C9  703   5.228   3.358   5.655 -0.0557 -0.2138  0.2994
   10CHL1    H9  704   5.136   3.419   5.665 -0.1920 -0.4381  0.4078
   10CHL1   C10  705   5.293   3.343   5.801  0.1266 -0.0744  0.8138
   10CHL1   C19  706   5.425   3.263   5.798  0.7066  0.3872  0.5468
   10CHL1  H19A  707   5.493   3.303   5.720 -1.2670  2.4669 -0.2364
   10CHL1  H19B  708   5.474   3.263   5.898 -1.4928 -1.5649  1.7143
   10CHL1  H19C  709   5.415   3.161   5.755  2.4169  0.2455  0.4331
   10CHL1    C1  710   5.314   3.481   5.859 -0.0640 -0.0006  0.0343
   10CHL1   H1A  711   5.396   3.531   5.804  0.5534  0.2092  1.1327
   10CHL1   H1B  712   5.220   3.538   5.844  0.8969  2.5616  2.8686
   10CHL1    C2  713   5.347   3.486   6.009  0.3104 -0.2133 -0.0695
   10CHL1   H2A  714   5.366   3.591   6.040  2.7414 -0.2279 -1.2624
   10CHL1   H2B  715   5.440   3.428   6.027  0.0804  0.1474  2.7184
   10CHL1   C20  716   5.226   3.279   5.090  0.5125 -0.0080  0.7033
   10CHL1   H20  717   5.285   3.185   5.099  0.6905 -0.1213 -1.2257
   10CHL1   C21  718   5.325   3.398   5.050  0.5162  0.1196  0.6521
   10CHL1  H21A  719   5.372   3.375   4.952 -0.9091  2.6576 -0.7312
   10CHL1  H21B  720   5.399   3.411   5.131  0.3783 -0.6788  0.9063
   10CHL1  H21C  721   5.276   3.497   5.038 -1.9119 -0.9625  1.1482
   10CHL1   C22  722   5.142   3.240   4.962 -0.3672  0.4168 -0.3742
   10CHL1  H22A  723   5.213   3.215   4.880 -0.9079 -2.8318  0.0344
   10CHL1  H22B  724   5.084   3.148   4.981  0.3481 -0.1711 -1.0092
   10CHL1   C23  725   5.047   3.352   4.927 -0.1604 -0.2066 -0.3349
   10CHL1  H23A  726   4.966   3.342   5.003  0.0260 -3.3771 -0.4071
   10CHL1  H23B  727   5.083   3.457   4.919 -2.7832  0.6256 -2.9470
   10CHL1   C24  728   4.959   3.313   4.807 -0.0302  0.0333  0.3641
   10CHL1  H24A  729   4.921   3.210   4.826 -1.0636  0.3339 -0.0257
   10CHL1  H24B  730   4.878   3.386   4.785 -0.3330  0.3377  2.3290
   10CHL1   C25  731   5.030   3.298   4.666 -0.0702  0.1543  0.1163
   10CHL1   H25  732   5.139   3.278   4.668 -0.2935 -1.8627 -2.4295
   10CHL1   C26  733   4.959   3.199   4.569 -0.1703  0.3098 -0.0087
   10CHL1  H26A  734   4.856   3.231   4.541  0.0285 -0.7468 -2.1179
   10CHL1  H26B  735   5.020   3.194   4.477  0.7749 -5.6852  0.5676
   10CHL1  H26C  736   4.960   3.098   4.614 -1.3347 -0.4141 -1.4966
   10CHL1   C27  737   5.024   3.447   4.605 -0.2261  0.0704  0.6420
   10CHL1  H27A  738   4.923   3.495   4.610  0.3277  1.2276  1.1110
   10CHL1  H27B  739   5.092   3.514   4.663 -2.5997  2.1142  1.2763
   10CHL1  H27C  740   5.065   3.465   4.504  2.3427  1.0471  1.7741
   11CHL1    C3  741   2.853   0.585   5.573  0.4966  0.3505 -0.1182
   11CHL1    H3  742   2.953   0.568   5.617 -1.0871 -0.5505  3.5191
   11CHL1    O3  743   2.763   0.602   5.679  0.2037  0.8188 -0.0145
   11CHL1   H3'  744   2.812   0.645   5.750  0.2935  1.0317 -0.2021
   11CHL1    C4  745   2.841   0.713   5.491  0.3695 -0.1998 -0.3350
   11CHL1   H4A  746   2.733   0.730   5.472  0.6551  0.5031 -1.4102
   11CHL1   H4B  747   2.876   0.796   5.556 -1.3711 -0.6470  1.2349
   11CHL1    C5  748   2.928   0.704   5.368 -0.7072 -0.7464 -0.4617
   11CHL1    C6  749   3.038   0.781   5.347  0.0215  0.1344 -0.8329
   11CHL1    H6  750   3.067   0.857   5.421  0.8728  0.5107 -1.5243
   11CHL1    C7  751   3.105   0.781   5.215 -0.6748 -0.3555  0.0709
   11CHL1   H7A  752   3.126   0.884   5.177 -1.4548 -0.5108 -0.8400
   11CHL1   H7B  753   3.201   0.726   5.220  0.8808  1.7287 -3.2993
   11CHL1    C8  754   3.021   0.719   5.099 -0.1713 -0.5795 -0.0139
   11CHL1    H8  755   2.930   0.781   5.093  0.1878  0.0571  0.8439
   11CHL1   C14  756   3.107   0.701   4.975  0.3476  0.1471  0.4038
   11CHL1   H14  757   3.187   0.627   4.995 -1.8353 -2.9484 -1.3860
   11CHL1   C15  758   3.174   0.822   4.908 -0.4477 -0.3439 -0.0394
   11CHL1  H15A  759   3.114   0.914   4.914 -1.6777 -1.0618 -0.9591
   11CHL1  H15B  760   3.266   0.831   4.970 -1.4398  1.8787  1.2296
   11CHL1   C16  761   3.196   0.781   4.762  0.2512 -0.0724  0.5119
   11CHL1  H16A  762   3.142   0.851   4.695  1.2889 -0.8240 -1.1789
   11CHL1  H16B  763   3.303   0.783   4.730  0.4108 -0.9985  0.9704
   11CHL1   C17  764   3.133   0.642   4.741 -0.5791  0.1522 -0.2171
   11CHL1   H17  765   3.215   0.574   4.772 -1.6235 -0.7629  0.6184
   11CHL1   C13  766   3.034   0.632   4.853  0.9386 -0.4056 -0.8771
   11CHL1   C18  767   2.903   0.714   4.820 -0.0545 -1.0096  0.2480
   11CHL1  H18A  768   2.922   0.818   4.785 -1.5065 -1.0505 -0.7571
   11CHL1  H18B  769   2.844   0.658   4.745  0.4971 -1.4720  0.1557
   11CHL1  H18C  770   2.837   0.739   4.906  1.3177  2.4804  0.4868
   11CHL1   C12  771   2.999   0.491   4.894 -0.8615 -0.0726 -1.0840
   11CHL1  H12A  772   2.935   0.439   4.820 -1.0866  2.1246 -2.5148
   11CHL1  H12B  773   3.090   0.432   4.916  1.5564  4.1360  1.6273
   11CHL1   C11  774   2.921   0.491   5.024  0.2355 -0.3611 -0.7164
   11CHL1  H11A  775   2.821   0.535   5.003 -0.2339 -0.1265  1.6390
   11CHL1  H11B  776   2.900   0.392   5.070 -2.1223  1.2994  2.1441
   11CHL1    C9  777   2.973   0.584   5.144 -0.0236  0.4147 -0.3417
   11CHL1    H9  778   3.067   0.528   5.166 -0.5227 -1.3803 -2.3555
   11CHL1   C10  779   2.880   0.597   5.270  0.2946  0.1479 -0.1323
   11CHL1   C19  780   2.744   0.636   5.223  0.3626 -0.0403  0.0249
   11CHL1  H19A  781   2.725   0.733   5.173  1.0155  1.7371  3.0313
   11CHL1  H19B  782   2.699   0.561   5.153 -1.5661 -0.7165  1.8853
   11CHL1  H19C  783   2.669   0.642   5.305  1.0138 -0.8745  0.6975
   11CHL1    C1  784   2.891   0.466   5.355 -0.2524 -0.2944 -0.3373
   11CHL1   H1A  785   2.876   0.375   5.294 -0.9327 -1.1158  0.9952
   11CHL1   H1B  786   2.998   0.455   5.382 -0.3462  0.2127  0.2791
   11CHL1    C2  787   2.812   0.460   5.485 -0.2928  0.2073 -0.4822
   11CHL1   H2A  788   2.844   0.370   5.541  1.5012  1.0519 -0.0700
   11CHL1   H2B  789   2.703   0.469   5.468 -0.0138 -0.1615 -2.6977
   11CHL1   C20  790   3.088   0.626   4.597  0.5542 -0.1094 -0.1086
   11CHL1   H20  791   3.009   0.700   4.572  1.9488  1.4179 -0.1624
   11CHL1   C21  792   3.026   0.490   4.577  0.0332  0.1486 -1.0202
   11CHL1  H21A  793   3.010   0.474   4.468 -0.0759 -2.1154 -0.7243
   11CHL1  H21B  794   2.925   0.482   4.623  1.5428 -1.6814  2.3469
   11CHL1  H21C  795   3.094   0.417   4.624  1.5112  1.4316 -1.0858
   11CHL1   C22  796   3.207   0.643   4.495  0.1125  0.0496  0.6236
   11CHL1  H22A  797   3.170   0.637   4.390  1.5571 -1.5874  0.1562
   11CHL1  H22B  798   3.269   0.735   4.502 -2.4323  1.8216  1.4493
   11CHL1   C23  799   3.313   0.531   4.512 -0.6491  0.0966  0.1659
   11CHL1  H23A  800   3.341   0.520   4.619  0.0632  1.2245  0.1000
   11CHL1  H23B  801   3.257   0.439   4.483 -2.8343  1.6958 -1.0034
   11CHL1   C24  802   3.438   0.555   4.430  0.2943 -0.3904 -0.6383
   11CHL1  H24A  803   3.414   0.547   4.322  0.3228  4.0413 -1.1619
   11CHL1  H24B  804   3.487   0.654   4.448  1.8040 -0.5465 -3.3784
   11CHL1   C25  805   3.551   0.446   4.462 -0.3572  0.4939 -0.6440
   11CHL1   H25  806   3.581   0.442   4.569  0.4798 -3.1234 -0.8801
   11CHL1   C26  807   3.502   0.307   4.423 -0.0863  0.0364 -0.2623
   11CHL1  H26A  808   3.582   0.231   4.435 -1.4468 -1.5084 -0.6166
   11CHL1  H26B  809   3.411   0.276   4.480  1.2334  0.7453  2.3609
   11CHL1  H26C  810   3.466   0.297   4.318 -1.4067 -0.4610  0.2164
   11CHL1   C27  811   3.677   0.485   4.386  0.4945  0.4244  0.0913
   11CHL1  H27A  812   3.702   0.593   4.398 -0.7939  0.9101 -1.2809
   11CHL1  H27B  813   3.760   0.418   4.416  1.9306  2.3571  0.6679
   11CHL1  H27C  814   3.654   0.466   4.279  2.3850 -1.3646 -0.0548
   12CHL1    C3  815   4.370   0.294   5.789 -0.1065 -0.2611 -0.0531
   12CHL1    H3  816   4.448   0.302   5.710  1.2658  1.3464  1.3795
   12CHL1    O3  817   4.413   0.334   5.919  0.6358 -0.2853 -0.1102
   12CHL1   H3'  818   4.341   0.318   5.981  1.4015  2.8514  1.8100
   12CHL1    C4  819   4.245   0.366   5.741  0.1551  0.2871 -0.1810
   12CHL1   H4A  820   4.175   0.352   5.826  1.0929 -0.8645  0.4441
   12CHL1   H4B  821   4.280   0.470   5.724 -2.8969  1.7429  1.6499
   12CHL1    C5  822   4.199   0.300   5.614  0.1253  0.0679  0.8461
   12CHL1    C6  823   4.175   0.368   5.502 -0.5025  0.3800 -0.1288
   12CHL1    H6  824   4.179   0.478   5.506 -0.2907  0.3403  1.2713
   12CHL1    C7  825   4.121   0.303   5.370  0.0396 -0.0297  0.0791
   12CHL1   H7A  826   4.036   0.360   5.326  0.1075  0.1948  0.2409
   12CHL1   H7B  827   4.200   0.314   5.292  0.8037  1.6914  1.0265
   12CHL1    C8  828   4.069   0.160   5.384 -0.0106  0.3180 -0.0438
   12CHL1    H8  829   3.964   0.151   5.419 -0.8786 -0.3231 -2.6192
   12CHL1   C14  830   4.071   0.089   5.245  0.1685 -0.0388 -0.6406
   12CHL1   H14  831   4.179   0.099   5.222  0.6710 -1.5742  0.7418
   12CHL1   C15  832   4.005   0.168   5.134  0.1073 -0.1501  0.3688
   12CHL1  H15A  833   3.922   0.234   5.167  0.4960  0.1766  0.6863
   12CHL1  H15B  834   4.079   0.229   5.080 -1.1276  1.9273  0.9232
   12CHL1   C16  835   3.965   0.047   5.038  0.2024 -0.3541 -0.7305
   12CHL1  H16A  836   3.858   0.017   5.043 -0.7298  2.6563 -0.8211
   12CHL1  H16B  837   3.985   0.064   4.930  1.5890 -2.8454 -0.9355
   12CHL1   C17  838   4.046  -0.081   5.099 -0.7209 -0.7134  0.1147
   12CHL1   H17  839   4.153  -0.069   5.069 -0.6264  1.0679  1.0262
   12CHL1   C13  840   4.036  -0.055   5.250  0.1873 -0.8023 -0.0579
   12CHL1   C18  841   3.898  -0.070   5.307  0.0821 -0.2839  0.5508
   12CHL1  H18A  842   3.814  -0.026   5.249  1.0641 -0.6001 -1.1709
   12CHL1  H18B  843   3.877  -0.179   5.312  0.1654 -0.2984  0.5874
   12CHL1  H18C  844   3.886  -0.037   5.413  2.4733 -0.6282  0.9849
   12CHL1   C12  845   4.137  -0.125   5.334  0.1486 -0.9875 -0.0356
   12CHL1  H12A  846   4.100  -0.229   5.344 -1.1807 -0.5796 -0.4795
   12CHL1  H12B  847   4.229  -0.122   5.273  0.6789 -0.5744  0.7684
   12CHL1   C11  848   4.143  -0.073   5.481 -0.1257  0.1686 -0.2158
   12CHL1  H11A  849   4.055  -0.108   5.539 -1.4066 -1.4450 -2.9408
   12CHL1  H11B  850   4.236  -0.122   5.516 -0.7098 -0.3863  0.6084
   12CHL1    C9  851   4.164   0.081   5.479 -0.2757  0.1889  0.7518
   12CHL1    H9  852   4.261   0.092   5.425 -0.2948 -0.0933  0.6559
   12CHL1   C10  853   4.182   0.144   5.616  0.1041 -0.1503 -0.0932
   12CHL1   C19  854   4.052   0.124   5.688  0.2069  0.1449  0.2847
   12CHL1  H19A  855   4.058   0.169   5.790 -0.3423 -1.1299  0.9101
   12CHL1  H19B  856   3.962   0.160   5.634 -0.9830 -1.3428  1.2048
   12CHL1  H19C  857   4.040   0.016   5.713 -2.2443  0.7832  2.3022
   12CHL1    C1  858   4.302   0.071   5.690  0.9106  0.3553  0.6271
   12CHL1   H1A  859   4.262  -0.029   5.719  0.2281  0.0596 -1.2166
   12CHL1   H1B  860   4.379   0.060   5.611  0.8055 -0.5089  0.6320
   12CHL1    C2  861   4.353   0.147   5.813  0.3061  0.3600  0.6088
   12CHL1   H2A  862   4.448   0.104   5.851 -0.1087 -0.5307  0.6692
   12CHL1   H2B  863   4.270   0.126   5.885 -0.0928 -0.3602 -0.0428
   12CHL1   C20  864   3.987  -0.214   5.043 -0.0406 -0.4953 -0.5031
   12CHL1   H20  865   3.887  -0.221   5.091 -0.2464 -0.9934 -0.9917
   12CHL1   C21  866   4.068  -0.345   5.070  0.7373 -0.2409  0.1104
   12CHL1  H21A  867   4.171  -0.318   5.038  0.8320  0.0699  0.6668
   12CHL1  H21B  868   4.021  -0.424   5.008 -0.5489 -0.1052  0.8761
   12CHL1  H21C  869   4.068  -0.378   5.176 -0.5104 -1.1565 -0.1433
   12CHL1   C22  870   3.965  -0.209   4.888 -0.0874 -0.9158 -0.1913
   12CHL1  H22A  871   3.917  -0.306   4.860  0.5073 -1.3490  0.2685
   12CHL1  H22B  872   3.896  -0.127   4.858  2.9337  2.3216  1.1335
   12CHL1   C23  873   4.099  -0.208   4.807 -0.4542 -0.5965 -0.1075
   12CHL1  H23A  874   4.165  -0.141   4.866  1.5303 -1.0322 -1.7456
   12CHL1  H23B  875   4.154  -0.305   4.803  1.2872  0.2555  1.6563
   12CHL1   C24  876   4.073  -0.152   4.673  0.0464  0.0856  0.4990
   12CHL1  H24A  877   4.025  -0.227   4.607  1.0015 -0.9811  0.9792
   12CHL1  H24B  878   4.003  -0.066   4.681 -0.0845  0.0601 -0.2722
   12CHL1   C25  879   4.205  -0.106   4.604  0.2777 -0.3279  0.1186
   12CHL1   H25  880   4.281  -0.186   4.621  2.1318  0.7981 -2.3488
   12CHL1   C26  881   4.199  -0.110   4.455  0.3216 -0.2800 -0.0893
   12CHL1  H26A  882   4.167  -0.207   4.412 -1.1156 -0.8062  2.0137
   12CHL1  H26B  883   4.127  -0.031   4.426 -0.8751 -0.9616  0.9070
   12CHL1  H26C  884   4.297  -0.082   4.411  1.0358 -3.5886 -0.8431
   12CHL1   C27  885   4.252   0.033   4.658 -0.2539  0.4667 -0.6113
   12CHL1  H27A  886   4.173   0.110   4.651 -1.7694 -0.5906  2.8210
   12CHL1  H27B  887   4.285   0.023   4.764  0.8298 -0.4511 -1.0065
   12CHL1  H27C  888   4.341   0.059   4.596 -0.7705 -1.4388 -2.2757
   13CHL1    C3  889   3.549   0.008   6.000  0.3449  0.5086  0.5397
   13CHL1    H3  890   3.657  -0.011   5.980  0.2334  0.8132 -0.4054
   13CHL1    O3  891   3.517  -0.022   6.134  0.4043  0.1668  0.0400
   13CHL1   H3'  892   3.515  -0.117   6.148 -1.0218  0.0962 -0.4614
   13CHL1    C4  893   3.521   0.153   5.973  0.4137 -0.0239  0.2951
   13CHL1   H4A  894   3.418   0.177   6.005  1.0330  0.1738  2.2921
   13CHL1   H4B  895   3.584   0.207   6.047  0.5072  0.7591 -0.3467
   13CHL1    C5  896   3.551   0.191   5.831  0.6044  0.0675 -0.2303
   13CHL1    C6  897   3.632   0.289   5.806  0.0270  0.0014 -0.4468
   13CHL1    H6  898   3.659   0.346   5.895 -2.5303 -1.0212  1.1144
   13CHL1    C7  899   3.665   0.326   5.660 -0.0184  0.2232 -0.2514
   13CHL1   H7A  900   3.665   0.437   5.652  0.0333  0.2241 -0.2385
   13CHL1   H7B  901   3.765   0.279   5.654  0.0222  0.3703 -0.7151
   13CHL1    C8  902   3.572   0.274   5.555 -0.3732  0.2979  0.1705
   13CHL1    H8  903   3.480   0.336   5.570  0.4196  0.9992  2.4802
   13CHL1   C14  904   3.624   0.302   5.414 -0.0730  0.8575 -0.4977
   13CHL1   H14  905   3.715   0.240   5.403 -0.7833 -0.6699  1.5765
   13CHL1   C15  906   3.669   0.436   5.369 -0.6517 -0.3948  0.5828
   13CHL1  H15A  907   3.589   0.509   5.397 -0.4652 -0.7722  2.2269
   13CHL1  H15B  908   3.764   0.462   5.419 -0.5562 -0.9031  0.6654
   13CHL1   C16  909   3.677   0.431   5.214  0.5797  0.1139 -0.7464
   13CHL1  H16A  910   3.616   0.517   5.180  0.4766 -0.1863 -1.3344
   13CHL1  H16B  911   3.780   0.432   5.173  0.1782  0.4209 -1.7720
   13CHL1   C17  912   3.610   0.301   5.181  0.7695  0.2098 -0.1258
   13CHL1   H17  913   3.690   0.227   5.161  1.7910  1.0043  0.8870
   13CHL1   C13  914   3.529   0.255   5.302 -0.4437 -0.4136  0.0849
   13CHL1   C18  915   3.399   0.333   5.311  0.6167 -0.2179  0.6866
   13CHL1  H18A  916   3.418   0.439   5.281 -0.1748  0.0369  1.0620
   13CHL1  H18B  917   3.321   0.295   5.241  1.4778  0.3114 -0.6000
   13CHL1  H18C  918   3.354   0.343   5.412 -3.3152 -0.8793 -0.8145
   13CHL1   C12  919   3.521   0.101   5.312 -0.4587  0.8280 -0.4431
   13CHL1  H12A  920   3.447   0.052   5.245 -1.1332 -0.2991  1.0669
   13CHL1  H12B  921   3.615   0.047   5.291 -0.5489 -0.6810  2.5629
   13CHL1   C11  922   3.476   0.070   5.456 -0.0781  0.1143  0.0948
   13CHL1  H11A  923   3.372   0.110   5.451 -0.8025 -1.5790  0.9148
   13CHL1  H11B  924   3.461  -0.039   5.470  1.0415 -0.1227 -0.4339
   13CHL1    C9  925   3.550   0.126   5.582  0.3496 -0.8025  0.0817
   13CHL1    H9  926   3.648   0.073   5.585  0.6569 -0.2095  1.9102
   13CHL1   C10  927   3.475   0.102   5.719 -0.7790 -0.4919 -0.3041
   13CHL1   C19  928   3.335   0.151   5.711 -0.0663 -0.0835 -0.3521
   13CHL1  H19A  929   3.286   0.142   5.810  0.4259 -0.0956 -0.1088
   13CHL1  H19B  930   3.337   0.261   5.692  0.5883  0.4004  2.1987
   13CHL1  H19C  931   3.281   0.101   5.628  0.7585 -0.4392 -0.6852
   13CHL1    C1  932   3.486  -0.050   5.755 -0.5119  0.1084  0.2755
   13CHL1   H1A  933   3.416  -0.107   5.691 -0.2592  0.3606 -0.2325
   13CHL1   H1B  934   3.587  -0.085   5.727  0.4619  0.5460  2.9306
   13CHL1    C2  935   3.459  -0.073   5.903 -0.5542  0.1961  0.2861
   13CHL1   H2A  936   3.477  -0.180   5.927 -1.1374 -0.1092 -0.5791
   13CHL1   H2B  937   3.353  -0.051   5.927 -0.2321  0.8352  1.1612
   13CHL1   C20  938   3.533   0.315   5.048 -0.0426  0.1277 -0.7710
   13CHL1   H20  939   3.441   0.375   5.065 -1.0621 -1.3735 -0.7972
   13CHL1   C21  940   3.481   0.181   4.995 -0.1499 -0.4908  0.1401
   13CHL1  H21A  941   3.428   0.199   4.900 -0.4470  0.6089  0.5006
   13CHL1  H21B  942   3.416   0.130   5.069  1.4109 -0.9428  1.2557
   13CHL1  H21C  943   3.567   0.111   4.985 -1.0084 -1.5724  0.1620
   13CHL1   C22  944   3.610   0.396   4.939 -0.6676 -0.5100  0.0444
   13CHL1  H22A  945   3.539   0.395   4.854 -0.4756 -0.5960 -0.1179
   13CHL1  H22B  946   3.614   0.504   4.965  0.2448 -0.6699  0.6132
   13CHL1   C23  947   3.744   0.334   4.892  0.5688 -0.2091 -0.4863
   13CHL1  H23A  948   3.804   0.299   4.978 -0.6949  0.8255  0.8619
   13CHL1  H23B  949   3.730   0.239   4.837 -2.9350  0.4881 -1.0435
   13CHL1   C24  950   3.835   0.427   4.809  0.1582 -0.2261 -0.9156
   13CHL1  H24A  951   3.783   0.479   4.726 -0.0071 -0.0018 -0.6739
   13CHL1  H24B  952   3.875   0.508   4.873  0.6556 -1.2474  0.1013
   13CHL1   C25  953   3.964   0.363   4.746  0.0315  0.3412  0.3878
   13CHL1   H25  954   4.009   0.306   4.831 -0.2481  1.0849  1.0435
   13CHL1   C26  955   3.930   0.259   4.635 -0.2088 -0.3599 -0.1915
   13CHL1  H26A  956   4.015   0.266   4.564 -1.2211  3.7449 -1.3030
   13CHL1  H26B  957   3.913   0.154   4.665 -0.9036  0.1660  1.3738
   13CHL1  H26C  958   3.839   0.286   4.578 -0.8375  2.3922  1.8882
   13CHL1   C27  959   4.068   0.467   4.697  0.1198 -0.5583  0.1284
   13CHL1  H27A  960   4.115   0.508   4.789 -1.4376 -0.1092  0.7495
   13CHL1  H27B  961   4.140   0.407   4.636  0.0635  0.9279 -1.5028
   13CHL1  H27C  962   4.023   0.544   4.631 -0.6312 -1.6092 -0.6257
   14CHL1    C3  963   2.451   3.985   5.920  0.7480 -0.8946 -0.2139
   14CHL1    H3  964   2.340   3.981   5.917  0.6402  1.0611 -3.2154
   14CHL1    O3  965   2.471   3.971   6.061 -0.7451 -0.1013 -0.2184
   14CHL1   H3'  966   2.564   3.949   6.072 -0.6217  0.3381 -0.3511
   14CHL1    C4  967   2.519   3.875   5.843 -0.0249  0.2268 -0.4837
   14CHL1   H4A  968   2.628   3.873   5.864  0.1180 -0.8668 -1.2298
   14CHL1   H4B  969   2.478   3.778   5.878 -1.0530  1.1604  1.0229
   14CHL1    C5  970   2.490   3.882   5.693  1.0882  0.5753 -0.3453
   14CHL1    C6  971   2.439   3.781   5.623 -0.8355  1.1755  0.0211
   14CHL1    H6  972   2.424   3.682   5.670 -2.3421  2.1150  1.6109
   14CHL1    C7  973   2.407   3.788   5.475  0.5690 -0.4522 -1.3093
   14CHL1   H7A  974   2.454   3.701   5.424  2.1180 -0.6854  0.4191
   14CHL1   H7B  975   2.298   3.800   5.457  0.3389  1.9361  1.0830
   14CHL1    C8  976   2.476   3.913   5.414 -0.1769 -0.6542  0.5805
   14CHL1    H8  977   2.586   3.903   5.404  0.1030  1.1790  1.3235
   14CHL1   C14  978   2.431   3.934   5.268  0.3686  0.1636 -0.1617
   14CHL1   H14  979   2.322   3.957   5.271  0.6714  1.7788 -0.7669
   14CHL1   C15  980   2.449   3.818   5.166  0.6691 -0.3220  0.9689
   14CHL1  H15A  981   2.552   3.779   5.179  0.3828 -0.2978  4.0923
   14CHL1  H15B  982   2.382   3.731   5.182  3.6193 -3.4374 -1.8955
   14CHL1   C16  983   2.420   3.877   5.027 -0.7308 -0.4926  0.5409
   14CHL1  H16A  984   2.495   3.851   4.949 -1.7309  2.2769 -1.5244
   14CHL1  H16B  985   2.319   3.854   4.985 -0.1247  1.5474 -2.3560
   14CHL1   C17  986   2.416   4.038   5.058 -0.4042 -0.0207 -0.3509
   14CHL1   H17  987   2.307   4.062   5.065 -0.8719 -1.8305 -0.9806
   14CHL1   C13  988   2.485   4.048   5.195 -0.0659 -0.0765  0.0157
   14CHL1   C18  989   2.635   4.027   5.174  0.5341  0.1603  0.1660
   14CHL1  H18A  990   2.662   3.948   5.100  0.6400 -0.5733  0.9620
   14CHL1  H18B  991   2.672   4.121   5.129 -1.1559  1.3822  1.2411
   14CHL1  H18C  992   2.694   4.001   5.265  2.1946  1.3373 -0.5134
   14CHL1   C12  993   2.448   4.175   5.270 -0.4876  0.1869  0.9484
   14CHL1  H12A  994   2.496   4.263   5.223  1.0708 -0.9256  0.3945
   14CHL1  H12B  995   2.338   4.189   5.267 -1.0001 -2.2948  3.7466
   14CHL1   C11  996   2.488   4.171   5.421 -0.0660  0.3437 -0.1964
   14CHL1  H11A  997   2.597   4.193   5.422 -0.5468  3.0019  0.7497
   14CHL1  H11B  998   2.438   4.254   5.474  0.2451  0.0583  0.5517
   14CHL1    C9  999   2.451   4.039   5.496  0.2865 -0.8816  0.4843
   14CHL1    H9 1000   2.341   4.032   5.509  0.2013 -0.9071 -0.2421
   14CHL1   C10 1001   2.512   4.015   5.631  0.5211  0.1062 -0.1084
   14CHL1   C19 1002   2.673   4.031   5.615  0.5667 -0.8309  0.3288
   14CHL1  H19A 1003   2.732   4.029   5.709  1.3700  1.8048 -0.0251
   14CHL1  H19B 1004   2.713   3.957   5.542  3.0887 -0.5414  1.3457
   14CHL1  H19C 1005   2.681   4.135   5.576 -1.6059 -1.3254 -1.7204
   14CHL1    C1 1006   2.448   4.133   5.718  0.4524  0.1848 -0.1999
   14CHL1   H1A 1007   2.482   4.239   5.711  0.0102  0.5875  2.5013
   14CHL1   H1B 1008   2.338   4.126   5.711  0.5027 -0.4992 -0.3722
   14CHL1    C2 1009   2.489   4.121   5.869  0.3513 -0.0820  0.3005
   14CHL1   H2A 1010   2.453   4.212   5.922  2.0453 -0.0377  1.4749
   14CHL1   H2B 1011   2.600   4.131   5.868  0.3722  0.5562 -3.1464
   14CHL1   C20 1012   2.467   4.126   4.936  0.3841 -0.5533 -0.2454
   14CHL1   H20 1013   2.573   4.153   4.953 -0.2173  1.0720  1.2826
   14CHL1   C21 1014   2.381   4.252   4.926 -0.0274  0.3838 -0.3667
   14CHL1  H21A 1015   2.378   4.301   5.026 -0.6904 -1.4224  0.5519
   14CHL1  H21B 1016   2.279   4.228   4.887  0.7502 -0.5047 -1.9353
   14CHL1  H21C 1017   2.418   4.322   4.849 -3.1014  2.1471 -0.3965
   14CHL1   C22 1018   2.463   4.054   4.799  0.3674 -0.0569  0.3266
   14CHL1  H22A 1019   2.511   4.127   4.731 -0.0672  0.7882  0.9123
   14CHL1  H22B 1020   2.531   3.967   4.785 -0.0706 -0.0442 -2.4694
   14CHL1   C23 1021   2.324   4.008   4.740 -0.3583  0.2081 -0.2046
   14CHL1  H23A 1022   2.315   3.900   4.719 -2.1340 -0.1595  1.9957
   14CHL1  H23B 1023   2.251   4.018   4.823  1.4122 -0.8404  1.5481
   14CHL1   C24 1024   2.277   4.090   4.618  0.0833 -0.6008 -0.1966
   14CHL1  H24A 1025   2.297   4.197   4.643  0.1965 -1.2191  2.7551
   14CHL1  H24B 1026   2.351   4.065   4.539  2.2936 -1.1469  1.9054
   14CHL1   C25 1027   2.128   4.081   4.579 -0.0899  0.3003 -0.2727
   14CHL1   H25 1028   2.062   4.101   4.666 -1.4285  2.9155 -1.7801
   14CHL1   C26 1029   2.079   4.187   4.476 -0.5023 -0.1296  0.2629
   14CHL1  H26A 1030   1.977   4.180   4.434  0.3740 -0.1526 -2.0280
   14CHL1  H26B 1031   2.089   4.285   4.528  1.6559 -0.4050  0.4615
   14CHL1  H26C 1032   2.151   4.196   4.391 -0.4366  0.0314  0.3334
   14CHL1   C27 1033   2.105   3.940   4.533  0.4452 -0.0193  0.5651
   14CHL1  H27A 1034   2.106   3.872   4.621 -0.8132  0.5236  1.0301
   14CHL1  H27B 1035   2.006   3.937   4.482  1.3940  1.0909 -1.4561
   14CHL1  H27C 1036   2.185   3.910   4.463  1.3008  1.5949  0.7934
   15CHL1    C3 1037   3.615   3.976   5.656 -0.3074  0.1000 -0.4275
   15CHL1    H3 1038   3.716   3.934   5.675 -0.2746  1.1967  2.2366
   15CHL1    O3 1039   3.555   3.997   5.782 -0.3965  0.1117  0.1793
   15CHL1   H3' 1040   3.562   3.909   5.819 -0.3726 -1.4852 -3.2319
   15CHL1    C4 1041   3.628   4.116   5.595 -0.1902 -0.0429 -0.4438
   15CHL1   H4A 1042   3.531   4.169   5.600 -0.7159 -1.0657  0.9310
   15CHL1   H4B 1043   3.701   4.174   5.655 -0.0115  1.9815 -2.4544
   15CHL1    C5 1044   3.683   4.093   5.455 -1.0069  0.6654  0.6280
   15CHL1    C6 1045   3.799   4.147   5.411  0.3554 -0.0958 -0.0169
   15CHL1    H6 1046   3.854   4.215   5.479  0.5501  0.8491 -1.0700
   15CHL1    C7 1047   3.857   4.146   5.278 -0.0523  0.3509  0.2207
   15CHL1   H7A 1048   3.906   4.240   5.245  1.2447  0.4155  2.1873
   15CHL1   H7B 1049   3.943   4.075   5.287  0.4261  1.0456  1.2958
   15CHL1    C8 1050   3.757   4.096   5.166  0.1724 -0.6362 -0.3558
   15CHL1    H8 1051   3.685   4.176   5.138 -0.2459 -1.4733 -1.7719
   15CHL1   C14 1052   3.823   4.057   5.042  0.2332  0.0343 -0.5241
   15CHL1   H14 1053   3.895   3.977   5.069 -1.0205 -0.6622  0.8930
   15CHL1   C15 1054   3.897   4.166   4.972 -0.5973  0.0382  0.5058
   15CHL1  H15A 1055   3.837   4.259   4.965 -0.8998 -0.1364  0.7565
   15CHL1  H15B 1056   3.995   4.197   5.013 -0.8956  2.6658 -0.5216
   15CHL1   C16 1057   3.918   4.105   4.827  0.6991 -0.0495 -0.0436
   15CHL1  H16A 1058   3.900   4.185   4.752 -0.8792  0.7743  1.1550
   15CHL1  H16B 1059   4.027   4.086   4.823  1.1529  2.2492 -3.7511
   15CHL1   C17 1060   3.832   3.979   4.813  0.5552  0.0279  0.3611
   15CHL1   H17 1061   3.890   3.891   4.848  0.0636 -0.3769  0.1567
   15CHL1   C13 1062   3.736   3.994   4.938  0.0814 -0.3148  0.3230
   15CHL1   C18 1063   3.616   4.079   4.898 -0.0992  0.3945  0.1353
   15CHL1  H18A 1064   3.561   4.116   4.987  1.3038  3.9832 -0.2921
   15CHL1  H18B 1065   3.644   4.172   4.844  1.5092 -0.5603 -0.7482
   15CHL1  H18C 1066   3.556   4.012   4.832  0.3288 -0.6142  0.7579
   15CHL1   C12 1067   3.685   3.860   4.988  0.1087 -0.3216 -0.7925
   15CHL1  H12A 1068   3.619   3.815   4.910 -1.3711 -1.3902  0.9840
   15CHL1  H12B 1069   3.756   3.777   5.011 -0.4922 -0.5055  0.4962
   15CHL1   C11 1070   3.606   3.886   5.118 -0.3513  0.1891 -0.4107
   15CHL1  H11A 1071   3.511   3.937   5.093 -0.1407  0.8726  0.1607
   15CHL1  H11B 1072   3.576   3.787   5.160  1.0661 -1.2482 -2.6056
   15CHL1    C9 1073   3.681   3.976   5.226 -0.2310  0.1936  1.0976
   15CHL1    H9 1074   3.769   3.916   5.259  0.8706  2.5843  2.8410
   15CHL1   C10 1075   3.603   4.013   5.359 -0.0686 -0.9348  0.4982
   15CHL1   C19 1076   3.473   4.088   5.319  0.0134  0.4369  0.1211
   15CHL1  H19A 1077   3.495   4.185   5.269 -0.5406 -0.1409 -1.2952
   15CHL1  H19B 1078   3.413   4.023   5.252  0.0591 -0.9859  1.4278
   15CHL1  H19C 1079   3.416   4.118   5.410 -1.2697  2.1660 -1.1746
   15CHL1    C1 1080   3.579   3.879   5.428 -0.0606  0.2984  0.2981
   15CHL1   H1A 1081   3.505   3.823   5.366 -0.5926 -0.8045  1.8630
   15CHL1   H1B 1082   3.670   3.817   5.414  1.4138  2.3810  0.2521
   15CHL1    C2 1083   3.528   3.888   5.577  0.4734 -0.9336 -0.2304
   15CHL1   H2A 1084   3.519   3.786   5.620 -1.8372 -0.9132 -0.5502
   15CHL1   H2B 1085   3.424   3.927   5.572  0.3191 -1.3512 -0.3471
   15CHL1   C20 1086   3.780   3.949   4.670  0.7361  0.6605 -0.3295
   15CHL1   H20 1087   3.684   3.894   4.682  0.9343  0.6479  1.4930
   15CHL1   C21 1088   3.871   3.847   4.595  0.5600 -0.6627 -0.0798
   15CHL1  H21A 1089   3.890   3.761   4.663  0.8376 -0.1072  0.5532
   15CHL1  H21B 1090   3.967   3.890   4.560  0.2271  2.3684  2.2582
   15CHL1  H21C 1091   3.830   3.805   4.501  2.7250  1.8411 -2.2959
   15CHL1   C22 1092   3.742   4.067   4.584  0.2807 -0.0425  1.0349
   15CHL1  H22A 1093   3.675   4.144   4.629 -2.1159 -1.3411 -0.1015
   15CHL1  H22B 1094   3.835   4.116   4.548 -0.4783  1.6595  1.3115
   15CHL1   C23 1095   3.662   4.027   4.456 -0.0783  0.0253  0.3345
   15CHL1  H23A 1096   3.722   3.968   4.383 -1.5315 -1.2141  0.0943
   15CHL1  H23B 1097   3.573   3.966   4.481 -1.1776  1.3475 -0.2361
   15CHL1   C24 1098   3.607   4.154   4.397  0.3192  0.4269 -0.7056
   15CHL1  H24A 1099   3.547   4.223   4.459  0.7660 -0.2670  0.5477
   15CHL1  H24B 1100   3.704   4.208   4.393  0.8341 -0.4731 -0.8457
   15CHL1   C25 1101   3.524   4.148   4.267  0.2595  0.0116 -0.6909
   15CHL1   H25 1102   3.596   4.103   4.195  2.0899 -0.7375  1.5123
   15CHL1   C26 1103   3.410   4.049   4.278 -0.8146 -0.2560 -0.5825
   15CHL1  H26A 1104   3.324   4.081   4.341 -0.9901 -0.6461 -0.6273
   15CHL1  H26B 1105   3.361   4.028   4.181  0.6063 -0.0379 -1.3773
   15CHL1  H26C 1106   3.429   3.944   4.306  2.2529  0.6354  1.0564
   15CHL1   C27 1107   3.465   4.286   4.210 -0.3368  0.3510  0.5479
   15CHL1  H27A 1108   3.382   4.307   4.280 -0.5725  0.4280  0.2499
   15CHL1  H27B 1109   3.547   4.360   4.204 -0.7200  0.6760 -1.0833
   15CHL1  H27C 1110   3.442   4.283   4.101 -0.6712 -2.2018  0.6236
   16CHL1    C3 1111   1.628   1.321   5.859 -0.6823  0.1743  0.0434
   16CHL1    H3 1112   1.643   1.220   5.815  1.3969  1.0500 -1.3641
   16CHL1    O3 1113   1.653   1.309   5.996  0.7778 -0.6546  0.3444
   16CHL1   H3' 1114   1.607   1.379   6.042 -1.4078 -1.5202 -0.4170
   16CHL1    C4 1115   1.715   1.436   5.804  0.4605 -0.5095 -0.1050
   16CHL1   H4A 1116   1.699   1.534   5.853 -1.4970 -0.5897 -0.4959
   16CHL1   H4B 1117   1.822   1.407   5.813  0.8786  0.2321 -2.1071
   16CHL1    C5 1118   1.669   1.445   5.655 -0.3139 -0.5057 -0.5347
   16CHL1    C6 1119   1.760   1.438   5.559  0.2536 -0.9399  0.6238
   16CHL1    H6 1120   1.863   1.402   5.573  0.5438 -0.6357 -0.6526
   16CHL1    C7 1121   1.728   1.467   5.414  0.1694 -0.0667 -0.3915
   16CHL1   H7A 1122   1.817   1.509   5.361 -0.4983  1.8676 -0.0808
   16CHL1   H7B 1123   1.695   1.373   5.366 -2.8514  1.2165 -1.0564
   16CHL1    C8 1124   1.604   1.556   5.394  0.0573  0.1756  0.3247
   16CHL1    H8 1125   1.624   1.662   5.421  1.0253 -0.3227  1.7032
   16CHL1   C14 1126   1.552   1.556   5.250  0.1861  0.4019 -0.3491
   16CHL1   H14 1127   1.531   1.449   5.226  0.4086 -0.1188  1.6025
   16CHL1   C15 1128   1.645   1.603   5.143 -0.5545 -0.6573 -0.1149
   16CHL1  H15A 1129   1.689   1.702   5.167 -3.0079  0.3013  0.6351
   16CHL1  H15B 1130   1.733   1.535   5.134 -1.9662 -2.7669  1.0692
   16CHL1   C16 1131   1.554   1.611   5.017 -0.6374 -0.2345 -0.4665
   16CHL1  H16A 1132   1.584   1.701   4.960 -2.0790  0.1838 -0.6142
   16CHL1  H16B 1133   1.567   1.522   4.951  0.7533 -0.5335  0.1811
   16CHL1   C17 1134   1.406   1.607   5.069 -0.0052 -0.7900  0.6432
   16CHL1   H17 1135   1.371   1.502   5.059 -1.6146 -0.1872 -0.4978
   16CHL1   C13 1136   1.422   1.630   5.221  0.1498 -0.2222  0.3260
   16CHL1   C18 1137   1.432   1.777   5.256 -0.4062  0.6249 -0.0382
   16CHL1  H18A 1138   1.336   1.829   5.234  0.4894  1.5283 -2.1370
   16CHL1  H18B 1139   1.459   1.803   5.360 -2.1628  2.5558  0.0015
   16CHL1  H18C 1140   1.508   1.823   5.189  3.1920 -0.2277  3.1756
   16CHL1   C12 1141   1.313   1.570   5.306  0.3253 -0.4550 -0.7413
   16CHL1  H12A 1142   1.217   1.625   5.304  0.8101  0.4659  0.3603
   16CHL1  H12B 1143   1.301   1.465   5.270  3.1860 -0.9613 -0.4794
   16CHL1   C11 1144   1.354   1.568   5.455 -0.1703 -0.1526  0.0086
   16CHL1  H11A 1145   1.348   1.675   5.485 -2.6273  0.0167 -0.8611
   16CHL1  H11B 1146   1.270   1.527   5.515 -0.9231  1.1577 -0.1090
   16CHL1    C9 1147   1.489   1.501   5.477 -0.6855  0.2612  0.5669
   16CHL1    H9 1148   1.479   1.395   5.446  2.7964  0.1221 -0.4795
   16CHL1   C10 1149   1.525   1.480   5.630 -0.5754  0.4999  0.6923
   16CHL1   C19 1150   1.481   1.620   5.697  0.5280 -0.2023  0.7282
   16CHL1  H19A 1151   1.374   1.645   5.683  1.2584  2.6159 -0.4935
   16CHL1  H19B 1152   1.499   1.621   5.807 -1.2067  0.0884  1.0249
   16CHL1  H19C 1153   1.547   1.700   5.656  0.4281 -0.6989 -0.4449
   16CHL1    C1 1154   1.438   1.373   5.696 -0.2343 -0.1690  0.2868
   16CHL1   H1A 1155   1.332   1.406   5.694  0.3116  1.6625  0.2039
   16CHL1   H1B 1156   1.438   1.280   5.635  0.3982  0.1915 -0.2722
   16CHL1    C2 1157   1.478   1.339   5.844 -0.6848  0.2771  0.2413
   16CHL1   H2A 1158   1.424   1.248   5.878  0.7039 -1.2135 -1.3626
   16CHL1   H2B 1159   1.444   1.421   5.912 -2.8388  1.6270 -2.2579
   16CHL1   C20 1160   1.302   1.689   4.987 -0.1190  0.2745 -0.0935
   16CHL1   H20 1161   1.317   1.792   5.027 -0.2861  0.1284  0.3440
   16CHL1   C21 1162   1.157   1.648   5.036  0.1185  0.7234 -0.0971
   16CHL1  H21A 1163   1.079   1.649   4.957 -0.5901  1.0161  0.5939
   16CHL1  H21B 1164   1.121   1.709   5.122  1.8822 -0.4517  1.5590
   16CHL1  H21C 1165   1.163   1.540   5.060  2.2677  0.5046 -1.3571
   16CHL1   C22 1166   1.321   1.680   4.836 -0.3603  0.2162 -0.0364
   16CHL1  H22A 1167   1.430   1.692   4.816 -0.4340  2.3975  0.6411
   16CHL1  H22B 1168   1.295   1.575   4.812  1.4255 -0.5481  1.0793
   16CHL1   C23 1169   1.242   1.790   4.758  0.4276  0.0675 -0.8565
   16CHL1  H23A 1170   1.136   1.781   4.788  0.3450 -1.1507 -1.4339
   16CHL1  H23B 1171   1.279   1.887   4.796 -2.2259  0.5148  0.7882
   16CHL1   C24 1172   1.260   1.774   4.615 -0.1827  0.2955 -0.4050
   16CHL1  H24A 1173   1.370   1.777   4.598  0.0419  1.7281  1.0660
   16CHL1  H24B 1174   1.229   1.675   4.574  1.1026  0.0065 -0.7168
   16CHL1   C25 1175   1.190   1.876   4.522  0.0986  0.2952  0.1390
   16CHL1   H25 1176   1.211   1.982   4.551 -0.1832  1.1708 -2.5433
   16CHL1   C26 1177   1.240   1.856   4.381 -0.4125 -0.5717 -0.1059
   16CHL1  H26A 1178   1.351   1.865   4.377 -0.4645 -0.3348 -1.5268
   16CHL1  H26B 1179   1.215   1.753   4.348 -0.1270 -0.8334  0.4856
   16CHL1  H26C 1180   1.189   1.928   4.314 -0.7637 -1.5307 -0.8995
   16CHL1   C27 1181   1.039   1.852   4.534 -0.1420  1.1781  0.8059
   16CHL1  H27A 1182   0.980   1.898   4.451  0.5343 -1.7379 -1.4646
   16CHL1  H27B 1183   1.015   1.744   4.530  0.6631  1.0264 -0.4091
   16CHL1  H27C 1184   1.004   1.906   4.624  1.3292  1.8909  0.9894
   17CHL1    C3 1185   3.093   4.980   6.023 -0.5843  0.3511  0.2835
   17CHL1    H3 1186   3.138   4.882   5.995 -1.3560 -0.8792  3.0522
   17CHL1    O3 1187   3.118   4.993   6.165  0.0905  0.3455  0.2731
   17CHL1   H3' 1188   3.031   5.021   6.195 -0.1537  1.5205 -1.4081
   17CHL1    C4 1189   3.174   5.091   5.945 -0.0142  0.4863  1.1148
   17CHL1   H4A 1190   3.136   5.185   5.991  0.5608  0.3664  1.8530
   17CHL1   H4B 1191   3.282   5.082   5.969 -0.0771 -0.5298  1.0434
   17CHL1    C5 1192   3.148   5.090   5.792  0.4195  0.3526  0.2927
   17CHL1    C6 1193   3.251   5.071   5.704 -0.1932  0.3711  0.4964
   17CHL1    H6 1194   3.356   5.079   5.735  0.6922 -0.6986 -1.9182
   17CHL1    C7 1195   3.232   5.061   5.558 -0.0078 -0.5706  0.9620
   17CHL1   H7A 1196   3.303   5.129   5.506 -0.8399 -0.6110 -0.2612
   17CHL1   H7B 1197   3.252   4.957   5.525 -0.3582  0.6370 -3.8589
   17CHL1    C8 1198   3.088   5.093   5.512  0.7069  0.1903 -0.8367
   17CHL1    H8 1199   3.073   5.203   5.517 -0.3101  0.1195 -1.8697
   17CHL1   C14 1200   3.058   5.066   5.369 -0.5781 -0.4720 -0.3426
   17CHL1   H14 1201   3.068   4.956   5.361  1.7135 -0.3730  0.3550
   17CHL1   C15 1202   3.168   5.125   5.278  0.2297 -0.1866 -0.2348
   17CHL1  H15A 1203   3.203   5.227   5.307 -2.4568  0.4754  0.9875
   17CHL1  H15B 1204   3.264   5.069   5.283  1.9778  2.6074  4.4214
   17CHL1   C16 1205   3.100   5.125   5.137 -0.0162 -0.0787  0.0683
   17CHL1  H16A 1206   3.095   5.232   5.106  0.1237  0.1527  0.7975
   17CHL1  H16B 1207   3.159   5.062   5.068  0.7757 -1.0621  1.5703
   17CHL1   C17 1208   2.960   5.072   5.162  0.1760  0.0904 -0.3219
   17CHL1   H17 1209   2.969   4.961   5.166 -0.0832  0.1012  0.7425
   17CHL1   C13 1210   2.927   5.110   5.312 -0.9030  0.4034  0.0482
   17CHL1   C18 1211   2.902   5.261   5.323 -0.9418 -0.1274 -0.6469
   17CHL1  H18A 1212   2.985   5.315   5.275 -0.7453  0.4630  0.3333
   17CHL1  H18B 1213   2.802   5.290   5.284 -1.9148 -1.5742  0.6302
   17CHL1  H18C 1214   2.911   5.296   5.428 -0.8317  1.6069 -1.2023
   17CHL1   C12 1215   2.820   5.032   5.393 -0.2572  0.3193  0.1787
   17CHL1  H12A 1216   2.719   5.047   5.349 -0.0704  0.9638 -0.0326
   17CHL1  H12B 1217   2.849   4.926   5.374  1.6034  1.1971 -2.3863
   17CHL1   C11 1218   2.843   5.062   5.546  0.1045  0.1962  0.2303
   17CHL1  H11A 1219   2.813   5.168   5.560  2.1319  1.1005 -1.5527
   17CHL1  H11B 1220   2.771   5.000   5.603 -1.7397 -1.2952 -3.4099
   17CHL1    C9 1221   2.986   5.033   5.606  0.4597 -0.5993 -0.1048
   17CHL1    H9 1222   3.005   4.924   5.605 -1.2876 -0.9324 -0.0509
   17CHL1   C10 1223   2.999   5.079   5.757 -0.2566 -0.3188  0.3169
   17CHL1   C19 1224   2.937   5.216   5.785  0.9000  0.0643 -0.0455
   17CHL1  H19A 1225   2.939   5.253   5.890 -0.7887 -2.0354  0.8081
   17CHL1  H19B 1226   2.986   5.278   5.707  1.3589 -0.3594 -0.1016
   17CHL1  H19C 1227   2.833   5.222   5.746  1.3675  0.5643 -1.2738
   17CHL1    C1 1228   2.919   4.974   5.843 -0.2551  0.2150 -0.3407
   17CHL1   H1A 1229   2.812   4.985   5.814 -0.0433  0.2633 -1.1445
   17CHL1   H1B 1230   2.956   4.871   5.823 -0.9098 -0.5668  2.1583
   17CHL1    C2 1231   2.942   4.982   5.995 -0.4198 -0.2567  0.4136
   17CHL1   H2A 1232   2.897   4.895   6.048 -0.0051 -0.5891  0.2188
   17CHL1   H2B 1233   2.897   5.076   6.035  0.9539  1.6218 -2.1625
   17CHL1   C20 1234   2.863   5.102   5.052 -0.2007 -0.0626  0.5909
   17CHL1   H20 1235   2.865   5.213   5.039  1.4319 -0.1538 -0.1850
   17CHL1   C21 1236   2.723   5.064   5.086  0.2295  0.1041  0.1204
   17CHL1  H21A 1237   2.689   5.131   5.168  2.5169  1.9342 -0.3357
   17CHL1  H21B 1238   2.722   4.956   5.112 -2.2294 -0.1700 -0.8417
   17CHL1  H21C 1239   2.658   5.087   5.000 -1.3590 -0.7962  1.0328
   17CHL1   C22 1240   2.905   5.027   4.923  1.0355  0.1736 -0.3881
   17CHL1  H22A 1241   3.016   5.025   4.915  0.9929  2.7227 -2.8195
   17CHL1  H22B 1242   2.863   4.924   4.926 -2.7488  1.5800 -0.3668
   17CHL1   C23 1243   2.845   5.094   4.794  0.1982  0.2935 -0.7368
   17CHL1  H23A 1244   2.735   5.082   4.805  0.4436 -0.7318  0.9952
   17CHL1  H23B 1245   2.865   5.203   4.784  1.6555 -0.1044 -2.6637
   17CHL1   C24 1246   2.859   5.023   4.660  0.3253  0.0713  0.1281
   17CHL1  H24A 1247   2.960   5.010   4.615  0.3090 -0.1294  0.1475
   17CHL1  H24B 1248   2.833   4.919   4.692  1.5872 -0.4254 -0.4075
   17CHL1   C25 1249   2.762   5.062   4.544  1.1178  0.8260 -0.3177
   17CHL1   H25 1250   2.660   5.073   4.586  0.3517 -3.0983 -0.7719
   17CHL1   C26 1251   2.792   5.206   4.497 -0.5656 -0.2507  0.2063
   17CHL1  H26A 1252   2.725   5.232   4.412  0.6094  1.7208 -0.1695
   17CHL1  H26B 1253   2.806   5.284   4.574  1.0001  0.2931 -0.6071
   17CHL1  H26C 1254   2.894   5.199   4.455 -1.2014  0.5341 -1.5738
   17CHL1   C27 1255   2.750   4.963   4.432  0.1056  0.7070  0.3374
   17CHL1  H27A 1256   2.846   4.949   4.378 -0.7953 -3.8620 -0.5425
   17CHL1  H27B 1257   2.723   4.860   4.464  0.8293  0.5536  0.4815
   17CHL1  H27C 1258   2.675   5.001   4.360  0.7863 -0.0703 -0.8016
   18CHL1    C3 1259   3.046   6.593   5.865  0.1957 -0.0922  0.0782
   18CHL1    H3 1260   3.133   6.662   5.870  0.1623 -0.1185  1.1426
   18CHL1    O3 1261   3.015   6.553   5.997 -0.3071  0.0836  0.4344
   18CHL1   H3' 1262   3.082   6.487   6.019  1.0368  0.1513 -2.8487
   18CHL1    C4 1263   2.932   6.670   5.797  0.3427  0.9187  0.6493
   18CHL1   H4A 1264   2.840   6.609   5.810  1.0369  0.1627  2.3928
   18CHL1   H4B 1265   2.906   6.754   5.866  0.9102  0.4881  1.4022
   18CHL1    C5 1266   2.968   6.702   5.649  0.7225 -0.1964  0.4151
   18CHL1    C6 1267   2.983   6.827   5.604 -0.3994 -0.0194 -0.2287
   18CHL1    H6 1268   2.964   6.914   5.668  3.2404  1.8028 -1.4128
   18CHL1    C7 1269   3.019   6.867   5.464 -0.0098 -0.0038 -0.4406
   18CHL1   H7A 1270   2.947   6.944   5.429 -0.4910 -0.6105 -0.8098
   18CHL1   H7B 1271   3.114   6.925   5.459 -0.5234  0.8721 -0.3567
   18CHL1    C8 1272   3.019   6.742   5.363  0.5830 -0.4422 -0.1744
   18CHL1    H8 1273   2.913   6.711   5.352  1.3028 -3.7134  0.9146
   18CHL1   C14 1274   3.087   6.782   5.239 -0.4608  0.4350 -0.2537
   18CHL1   H14 1275   3.192   6.786   5.273 -1.1885 -0.3104  2.2676
   18CHL1   C15 1276   3.051   6.919   5.176  0.9056  0.7589 -0.1226
   18CHL1  H15A 1277   2.942   6.926   5.158  0.9864 -1.0377 -1.6086
   18CHL1  H15B 1278   3.098   7.002   5.233  1.0031 -0.4774  1.7082
   18CHL1   C16 1279   3.107   6.900   5.037  0.5018  0.3710  0.3156
   18CHL1  H16A 1280   3.034   6.928   4.958  2.2196  0.6613 -1.2307
   18CHL1  H16B 1281   3.190   6.971   5.016 -0.9060  1.5835 -1.4402
   18CHL1   C17 1282   3.144   6.743   5.015  0.5325 -0.4737  1.2602
   18CHL1   H17 1283   3.254   6.740   5.027  0.7415 -1.4351 -0.5258
   18CHL1   C13 1284   3.082   6.671   5.131  0.5743 -0.2015  0.0126
   18CHL1   C18 1285   2.935   6.634   5.092  0.1908 -0.2527 -0.2760
   18CHL1  H18A 1286   2.890   6.583   5.180  1.3461 -0.0432  0.4592
   18CHL1  H18B 1287   2.874   6.719   5.054 -1.7770 -1.6932 -0.5105
   18CHL1  H18C 1288   2.926   6.553   5.017 -0.1371  0.9405 -1.5588
   18CHL1   C12 1289   3.161   6.552   5.189 -0.1473 -0.2991  0.4589
   18CHL1  H12A 1290   3.166   6.467   5.118 -1.1445 -0.3399  0.4248
   18CHL1  H12B 1291   3.266   6.588   5.201  0.4523 -1.5924 -0.6221
   18CHL1   C11 1292   3.098   6.498   5.318 -0.2436  0.0768  0.1515
   18CHL1  H11A 1293   3.003   6.446   5.292 -0.1424 -0.0488  0.0302
   18CHL1  H11B 1294   3.163   6.419   5.362  0.6510 -0.0223 -1.2713
   18CHL1    C9 1295   3.079   6.614   5.424  0.2990  0.3793  0.3038
   18CHL1    H9 1296   3.186   6.639   5.438 -0.4150  2.7044  2.2914
   18CHL1   C10 1297   3.013   6.574   5.562  0.2640  0.0357 -0.0453
   18CHL1   C19 1298   2.880   6.499   5.538  0.1128 -0.4832  0.0946
   18CHL1  H19A 1299   2.830   6.491   5.637  1.7118 -1.6820  0.8377
   18CHL1  H19B 1300   2.814   6.558   5.471  0.4618  0.1851  0.3270
   18CHL1  H19C 1301   2.907   6.404   5.488  1.8375  0.0310 -0.0118
   18CHL1    C1 1302   3.117   6.495   5.642 -0.4992 -0.5710 -0.1240
   18CHL1   H1A 1303   3.152   6.401   5.592  0.8953 -0.8440  1.2976
   18CHL1   H1B 1304   3.207   6.560   5.644  0.2641 -1.5318  3.9050
   18CHL1    C2 1305   3.075   6.465   5.787 -0.3618  0.0838 -0.2647
   18CHL1   H2A 1306   3.156   6.400   5.826 -0.4195 -0.3298 -0.8241
   18CHL1   H2B 1307   2.981   6.408   5.780 -0.3261  0.0155 -0.1878
   18CHL1   C20 1308   3.104   6.702   4.875 -0.9635 -0.7522  0.5218
   18CHL1   H20 1309   2.996   6.704   4.851 -0.5608 -2.3814 -1.8377
   18CHL1   C21 1310   3.161   6.560   4.850  0.1136 -0.4932  0.5433
   18CHL1  H21A 1311   3.256   6.544   4.906 -0.6108 -0.5343  1.7879
   18CHL1  H21B 1312   3.168   6.530   4.743 -2.7120 -0.7013  0.3358
   18CHL1  H21C 1313   3.087   6.488   4.891  0.3644 -0.1537  1.6334
   18CHL1   C22 1314   3.156   6.793   4.764  0.7942  0.6873 -0.6895
   18CHL1  H22A 1315   3.083   6.878   4.758 -1.4926 -1.1654 -0.5617
   18CHL1  H22B 1316   3.258   6.832   4.783  0.6037  0.3153  1.3629
   18CHL1   C23 1317   3.145   6.743   4.619 -0.4326 -0.9332 -0.4011
   18CHL1  H23A 1318   3.231   6.682   4.586 -0.5215 -0.0040 -2.5467
   18CHL1  H23B 1319   3.048   6.689   4.615 -0.5446 -0.8801  1.0002
   18CHL1   C24 1320   3.156   6.864   4.518 -0.0301 -0.7209 -0.2892
   18CHL1  H24A 1321   3.077   6.939   4.537  0.0941 -0.6027 -0.2341
   18CHL1  H24B 1322   3.257   6.906   4.535 -1.4202  2.9192 -0.3230
   18CHL1   C25 1323   3.143   6.832   4.366  0.6182 -0.0808  0.2022
   18CHL1   H25 1324   3.142   6.934   4.321 -1.6640 -0.2055 -0.1497
   18CHL1   C26 1325   3.270   6.756   4.321 -0.3394 -0.1565  0.3768
   18CHL1  H26A 1326   3.363   6.813   4.345 -1.1674  1.4092  0.0208
   18CHL1  H26B 1327   3.280   6.664   4.382 -0.0656 -1.7084 -1.9067
   18CHL1  H26C 1328   3.282   6.732   4.213 -0.3901  0.3257  0.2608
   18CHL1   C27 1329   3.019   6.750   4.336  0.1524  0.0294 -0.0745
   18CHL1  H27A 1330   2.933   6.780   4.400  1.2355 -0.3275  1.5817
   18CHL1  H27B 1331   2.983   6.757   4.231  0.2590 -0.5718 -0.1532
   18CHL1  H27C 1332   3.033   6.642   4.357 -1.3008 -0.4169 -1.1887
   19CHL1    C3 1333   2.447   5.709   5.588 -0.0999  0.4153  0.2821
   19CHL1    H3 1334   2.436   5.600   5.567 -0.3640  0.4192  0.4106
   19CHL1    O3 1335   2.405   5.737   5.713 -0.4889 -0.3465  0.0490
   19CHL1   H3' 1336   2.429   5.829   5.721  1.8738 -0.8594 -0.4509
   19CHL1    C4 1337   2.599   5.751   5.569  0.0513 -0.2246  0.8460
   19CHL1   H4A 1338   2.605   5.857   5.602 -0.9129 -0.5079  1.9957
   19CHL1   H4B 1339   2.662   5.696   5.641  0.0678  0.5560  1.4360
   19CHL1    C5 1340   2.649   5.720   5.427 -0.0245 -0.0666 -0.2701
   19CHL1    C6 1341   2.746   5.631   5.394 -0.4081 -0.7224 -0.0916
   19CHL1    H6 1342   2.808   5.578   5.468 -0.8119 -0.4117  0.4768
   19CHL1    C7 1343   2.806   5.615   5.258  0.0718  0.2114 -0.5587
   19CHL1   H7A 1344   2.916   5.608   5.274 -0.1350  0.1321  0.9738
   19CHL1   H7B 1345   2.775   5.514   5.223  1.5491 -1.3880  2.2876
   19CHL1    C8 1346   2.753   5.732   5.168  0.0958  0.0557 -0.2342
   19CHL1    H8 1347   2.807   5.817   5.214  0.1501  0.0908 -0.3620
   19CHL1   C14 1348   2.793   5.708   5.024  0.0069  0.5503  0.0031
   19CHL1   H14 1349   2.727   5.627   4.985  0.4825 -0.9251  2.0817
   19CHL1   C15 1350   2.938   5.666   5.000 -0.0415  0.3236  0.0405
   19CHL1  H15A 1351   3.009   5.718   5.069 -0.5234 -1.1094  1.6945
   19CHL1  H15B 1352   2.946   5.555   4.996 -0.2919  0.3496 -1.7680
   19CHL1   C16 1353   2.971   5.733   4.860  0.1318 -0.9141 -0.0863
   19CHL1  H16A 1354   3.049   5.811   4.872  1.6488 -2.2125 -0.9673
   19CHL1  H16B 1355   3.012   5.649   4.799 -1.6122 -0.8710 -1.3973
   19CHL1   C17 1356   2.837   5.782   4.803  0.4776 -0.0600  0.3363
   19CHL1   H17 1357   2.780   5.692   4.771 -0.1440 -0.1149  1.5555
   19CHL1   C13 1358   2.761   5.828   4.929 -0.0155 -0.1613 -0.0629
   19CHL1   C18 1359   2.817   5.959   4.976 -0.2054 -0.1770 -0.4901
   19CHL1  H18A 1360   2.928   5.960   4.970 -0.0282 -1.3406  1.5781
   19CHL1  H18B 1361   2.787   6.051   4.920 -0.5404 -0.0537 -0.1110
   19CHL1  H18C 1362   2.796   5.988   5.081 -0.0410  1.3862 -0.8540
   19CHL1   C12 1363   2.606   5.823   4.921  0.3749 -0.5646 -0.1369
   19CHL1  H12A 1364   2.556   5.905   4.865  0.2366 -1.1323 -0.8543
   19CHL1  H12B 1365   2.574   5.725   4.879 -0.4373 -0.9671  1.3382
   19CHL1   C11 1366   2.539   5.846   5.060  0.4511 -0.2939  0.4915
   19CHL1  H11A 1367   2.560   5.951   5.088  2.6772 -0.1579 -1.3743
   19CHL1  H11B 1368   2.430   5.822   5.055  0.1541  0.9889  0.4778
   19CHL1    C9 1369   2.605   5.759   5.174  0.6724 -1.3239 -0.8301
   19CHL1    H9 1370   2.560   5.660   5.156 -0.8531 -0.8279  0.0299
   19CHL1   C10 1371   2.566   5.801   5.319  0.6597 -0.1072 -0.2378
   19CHL1   C19 1372   2.592   5.953   5.346  0.2857  0.7192  0.5760
   19CHL1  H19A 1373   2.564   5.980   5.450  0.4049  1.5401  0.4020
   19CHL1  H19B 1374   2.699   5.967   5.317  0.0067 -1.2496 -1.7663
   19CHL1  H19C 1375   2.531   6.011   5.274  1.2215 -0.2176 -1.0505
   19CHL1    C1 1376   2.415   5.782   5.340 -0.0490 -0.3112 -0.2220
   19CHL1   H1A 1377   2.360   5.857   5.279 -1.0719  0.6931  1.8376
   19CHL1   H1B 1378   2.394   5.681   5.298 -0.5266  0.0012 -0.7509
   19CHL1    C2 1379   2.370   5.799   5.491  0.2714 -0.5331 -1.2967
   19CHL1   H2A 1380   2.261   5.776   5.500 -0.0029  1.4247  3.2798
   19CHL1   H2B 1381   2.379   5.903   5.527  0.3760 -0.7214 -0.7738
   19CHL1   C20 1382   2.860   5.882   4.689 -0.2522  0.4276 -0.5408
   19CHL1   H20 1383   2.931   5.956   4.732 -1.4018  2.2355 -1.6325
   19CHL1   C21 1384   2.726   5.944   4.640  0.1416 -0.1069  0.1377
   19CHL1  H21A 1385   2.664   5.853   4.619 -0.2148 -0.2789  1.8050
   19CHL1  H21B 1386   2.755   5.999   4.548  1.3034  2.8632  2.1269
   19CHL1  H21C 1387   2.677   6.024   4.700 -0.5280  0.4894 -1.1587
   19CHL1   C22 1388   2.936   5.810   4.573  0.3914  0.3167  0.1253
   19CHL1  H22A 1389   2.941   5.877   4.484 -1.6683 -2.2628 -2.0998
   19CHL1  H22B 1390   3.042   5.801   4.605  0.4554  2.5399  0.7148
   19CHL1   C23 1391   2.880   5.677   4.504  0.3560  0.3922 -0.6575
   19CHL1  H23A 1392   2.843   5.604   4.579  2.7828 -0.5370 -0.2671
   19CHL1  H23B 1393   2.804   5.713   4.432  2.2641  0.4749 -2.7253
   19CHL1   C24 1394   2.995   5.627   4.415 -0.6192  0.1797 -0.0179
   19CHL1  H24A 1395   2.954   5.548   4.348 -1.2138 -0.8717  1.5191
   19CHL1  H24B 1396   3.029   5.707   4.347  0.9364 -1.9280 -1.8647
   19CHL1   C25 1397   3.112   5.565   4.487  0.1432  0.7516 -0.2185
   19CHL1   H25 1398   3.135   5.618   4.582  0.2901  0.5460 -0.1400
   19CHL1   C26 1399   3.078   5.420   4.526  0.3337  0.5912 -0.0125
   19CHL1  H26A 1400   3.051   5.369   4.432  1.0449  0.4592 -0.1526
   19CHL1  H26B 1401   3.164   5.366   4.570  0.3034 -0.1027 -0.7830
   19CHL1  H26C 1402   2.995   5.399   4.597 -0.3285  0.4239 -0.8201
   19CHL1   C27 1403   3.236   5.572   4.395  0.5325  0.6881  0.2679
   19CHL1  H27A 1404   3.334   5.543   4.439  0.9532  0.7870 -0.5663
   19CHL1  H27B 1405   3.208   5.493   4.322  0.7839  0.7286  0.1241
   19CHL1  H27C 1406   3.245   5.671   4.344  2.6942 -0.2221 -1.2842
   20CHL1    C3 1407   1.595   0.227   5.867  0.9199  0.0380 -0.3675
   20CHL1    H3 1408   1.549   0.328   5.858 -0.0383 -0.4548 -1.1338
   20CHL1    O3 1409   1.631   0.196   6.002 -0.4015  0.2297  0.6673
   20CHL1   H3' 1410   1.559   0.235   6.052 -2.1953 -0.8360 -0.9227
   20CHL1    C4 1411   1.502   0.122   5.812 -0.6080  0.0749 -0.2424
   20CHL1   H4A 1412   1.547   0.021   5.815  0.1694  0.4278  0.1033
   20CHL1   H4B 1413   1.420   0.130   5.888  0.3530 -0.0972  0.8362
   20CHL1    C5 1414   1.454   0.141   5.673 -0.4131  0.0181 -0.2694
   20CHL1    C6 1415   1.326   0.147   5.632 -1.1302  0.2327 -0.4122
   20CHL1    H6 1416   1.237   0.135   5.696 -0.9361 -0.2319 -0.2214
   20CHL1    C7 1417   1.299   0.156   5.483  1.1344 -0.4073 -0.4041
   20CHL1   H7A 1418   1.215   0.091   5.450  2.0482  0.0339 -4.1429
   20CHL1   H7B 1419   1.263   0.261   5.476  0.5979 -0.3500  2.3226
   20CHL1    C8 1420   1.417   0.125   5.386  0.1041 -0.1139  0.8265
   20CHL1    H8 1421   1.434   0.016   5.388 -0.2591 -0.4240 -3.2914
   20CHL1   C14 1422   1.386   0.167   5.244  0.3584  0.7401 -0.6662
   20CHL1   H14 1423   1.364   0.275   5.239 -2.7318  0.2686  0.8676
   20CHL1   C15 1424   1.268   0.095   5.172  0.4957 -0.2052  0.0821
   20CHL1  H15A 1425   1.261  -0.013   5.197 -2.7082  0.4214  2.6214
   20CHL1  H15B 1426   1.170   0.137   5.205  0.5910 -1.5158  2.2539
   20CHL1   C16 1427   1.291   0.120   5.020 -0.7130 -0.4473  0.2640
   20CHL1  H16A 1428   1.265   0.024   4.970  1.8588 -0.8350 -0.4382
   20CHL1  H16B 1429   1.209   0.190   4.994 -0.2598 -0.3461 -0.9372
   20CHL1   C17 1430   1.435   0.186   5.005  0.7115 -0.6920  0.0288
   20CHL1   H17 1431   1.413   0.294   5.013 -0.7774 -0.9848  0.2656
   20CHL1   C13 1432   1.503   0.149   5.146  0.2384  0.1509  0.2112
   20CHL1   C18 1433   1.541  -0.003   5.126  0.5401  0.1432  0.3808
   20CHL1  H18A 1434   1.628  -0.003   5.057 -0.4199 -0.2192 -0.8497
   20CHL1  H18B 1435   1.575  -0.054   5.219  1.2370 -1.6654 -0.8226
   20CHL1  H18C 1436   1.461  -0.073   5.093  1.2346 -0.1772 -0.6705
   20CHL1   C12 1437   1.617   0.243   5.191 -0.5228  0.4639 -0.3015
   20CHL1  H12A 1438   1.706   0.235   5.124  0.7899 -0.3695  1.4552
   20CHL1  H12B 1439   1.579   0.347   5.203 -1.0510 -0.0346  4.1375
   20CHL1   C11 1440   1.654   0.201   5.333  0.6356 -0.3264 -0.9553
   20CHL1  H11A 1441   1.692   0.097   5.322 -0.9381 -1.0835  0.2955
   20CHL1  H11B 1442   1.744   0.256   5.368 -1.3329  1.4762  1.6490
   20CHL1    C9 1443   1.534   0.200   5.432 -0.5523 -0.3222 -0.0944
   20CHL1    H9 1444   1.493   0.303   5.438 -0.3338 -0.1548 -1.2402
   20CHL1   C10 1445   1.575   0.158   5.577 -0.3766  0.5797  0.1298
   20CHL1   C19 1446   1.646   0.017   5.571  0.1898 -0.1059  0.1523
   20CHL1  H19A 1447   1.575  -0.054   5.524  1.2508 -0.3611 -1.1189
   20CHL1  H19B 1448   1.728   0.028   5.497  0.7723  0.3781  0.8513
   20CHL1  H19C 1449   1.694  -0.022   5.663 -1.2458  0.5784  1.2328
   20CHL1    C1 1450   1.681   0.262   5.642  0.3057  0.5681  0.3873
   20CHL1   H1A 1451   1.770   0.281   5.578  0.8801 -1.6286  0.4436
   20CHL1   H1B 1452   1.617   0.352   5.653 -1.2819 -0.4453 -0.3336
   20CHL1    C2 1453   1.717   0.223   5.782 -0.9865 -0.0651  0.3389
   20CHL1   H2A 1454   1.774   0.301   5.837 -0.7638  1.0483 -1.3981
   20CHL1   H2B 1455   1.772   0.126   5.791  1.0428  1.1666  2.1392
   20CHL1   C20 1456   1.509   0.153   4.869  0.5031 -0.1428 -0.8268
   20CHL1   H20 1457   1.539   0.047   4.873  0.7349 -0.1274  3.7764
   20CHL1   C21 1458   1.630   0.247   4.870 -1.1250  0.4252  0.1659
   20CHL1  H21A 1459   1.712   0.199   4.927 -0.9800  1.4269  0.8423
   20CHL1  H21B 1460   1.616   0.351   4.907 -0.2463  1.0343 -1.1283
   20CHL1  H21C 1461   1.669   0.268   4.768 -0.8725  0.3421  0.2451
   20CHL1   C22 1462   1.419   0.180   4.743 -1.0303  0.2430 -0.4055
   20CHL1  H22A 1463   1.325   0.122   4.753 -1.7338  1.3462 -0.4577
   20CHL1  H22B 1464   1.393   0.288   4.749 -1.4584  0.1037  0.4161
   20CHL1   C23 1465   1.482   0.164   4.606 -1.1651  0.3708 -0.7549
   20CHL1  H23A 1466   1.584   0.206   4.598 -0.1466 -2.0272 -0.9489
   20CHL1  H23B 1467   1.502   0.056   4.588 -0.2133 -0.0616  2.3767
   20CHL1   C24 1468   1.385   0.218   4.502  0.1083 -0.2257  0.4305
   20CHL1  H24A 1469   1.292   0.158   4.488 -0.3323  0.6257 -0.4153
   20CHL1  H24B 1470   1.342   0.313   4.541 -0.5055 -0.4562  0.3379
   20CHL1   C25 1471   1.448   0.237   4.357  0.9401 -0.7343  0.2526
   20CHL1   H25 1472   1.371   0.287   4.295  1.0444 -1.3397 -0.3671
   20CHL1   C26 1473   1.562   0.332   4.360 -0.3397  0.2872 -0.3633
   20CHL1  H26A 1474   1.604   0.331   4.257  0.1970 -0.5679 -0.1442
   20CHL1  H26B 1475   1.535   0.437   4.384 -0.1608 -0.2226  2.3678
   20CHL1  H26C 1476   1.641   0.295   4.428 -0.9346 -0.0962  0.1282
   20CHL1   C27 1477   1.475   0.102   4.279  0.0321 -0.2803  0.5296
   20CHL1  H27A 1478   1.498   0.108   4.170 -0.6159  1.7843  0.4680
   20CHL1  H27B 1479   1.568   0.059   4.322  1.1323  1.3255 -0.1546
   20CHL1  H27C 1480   1.386   0.036   4.289 -2.3952  2.8383  1.3940
   21CHL1    C3 1481   6.766   0.178   6.366  0.6703 -0.1589  0.5172
   21CHL1    H3 1482   6.709   0.098   6.313 -1.0759  1.0184  0.5253
   21CHL1    O3 1483   6.740   0.154   6.504 -0.2613  0.2129  0.0893
   21CHL1   H3' 1484   6.804   0.189   6.566  0.5631 -0.8252 -0.1510
   21CHL1    C4 1485   6.915   0.158   6.341 -0.0683  0.5882  0.0495
   21CHL1   H4A 1486   6.965   0.230   6.410 -0.5065  0.6567  0.2999
   21CHL1   H4B 1487   6.946   0.057   6.375  0.4696  0.4602 -0.8179
   21CHL1    C5 1488   6.945   0.185   6.193  0.0215  0.3707  0.3156
   21CHL1    C6 1489   7.016   0.099   6.121 -0.1570  0.3821  0.6370
   21CHL1    H6 1490   7.060   0.009   6.167  1.4399  1.4979  1.3970
   21CHL1    C7 1491   7.052   0.119   5.977  0.8232 -0.0187 -0.2203
   21CHL1   H7A 1492   7.159   0.096   5.958  0.8682 -0.3379  0.3841
   21CHL1   H7B 1493   6.996   0.036   5.929 -0.4832  0.5020  0.3545
   21CHL1    C8 1494   7.016   0.264   5.933 -0.1952 -0.2763  0.3837
   21CHL1    H8 1495   7.084   0.345   5.966 -1.0089  0.6760 -0.2152
   21CHL1   C14 1496   7.008   0.263   5.778 -0.4404  0.4683  0.0916
   21CHL1   H14 1497   6.919   0.205   5.747  0.4271  0.5198 -2.7899
   21CHL1   C15 1498   7.127   0.204   5.701 -0.7121 -0.0125 -0.5099
   21CHL1  H15A 1499   7.220   0.241   5.751  0.3229 -3.0651  0.0431
   21CHL1  H15B 1500   7.132   0.094   5.714 -0.0987  0.1938  1.3863
   21CHL1   C16 1501   7.110   0.269   5.562 -0.3105 -0.4457  0.0694
   21CHL1  H16A 1502   7.197   0.319   5.515 -1.7941  0.0659 -2.3439
   21CHL1  H16B 1503   7.072   0.197   5.486  3.0286  0.1410 -2.3798
   21CHL1   C17 1504   6.998   0.374   5.562 -0.0877 -0.1183 -0.0045
   21CHL1   H17 1505   6.908   0.320   5.527 -0.1257  0.4651 -0.8431
   21CHL1   C13 1506   6.977   0.402   5.711  0.8247  0.0111 -0.0903
   21CHL1   C18 1507   7.093   0.493   5.761  0.4400  0.0615 -0.1893
   21CHL1  H18A 1508   7.196   0.456   5.740  0.0388 -0.8814 -0.5410
   21CHL1  H18B 1509   7.089   0.591   5.708 -1.1309 -0.6451 -1.4320
   21CHL1  H18C 1510   7.083   0.515   5.869 -1.1533  0.9773 -0.4825
   21CHL1   C12 1511   6.836   0.448   5.762  0.2489 -0.1291 -0.4889
   21CHL1  H12A 1512   6.807   0.547   5.720 -0.1388  0.5956  1.3650
   21CHL1  H12B 1513   6.751   0.389   5.721 -1.0117  0.6204  0.9160
   21CHL1   C11 1514   6.832   0.439   5.913  0.4417 -0.6725  1.2948
   21CHL1  H11A 1515   6.884   0.525   5.960  0.2173 -0.0699  0.4491
   21CHL1  H11B 1516   6.725   0.456   5.935 -0.0143 -0.6616 -0.7314
   21CHL1    C9 1517   6.877   0.310   5.981  1.0245  0.1449  0.2507
   21CHL1    H9 1518   6.805   0.231   5.948  0.2528  0.9837 -0.1076
   21CHL1   C10 1519   6.871   0.307   6.134  0.2468  0.7724  0.1887
   21CHL1   C19 1520   6.940   0.434   6.185 -0.3498 -0.0214  0.3921
   21CHL1  H19A 1521   7.037   0.440   6.131 -1.3321  2.1098 -1.2888
   21CHL1  H19B 1522   6.880   0.524   6.161 -2.5616 -1.3577  0.6184
   21CHL1  H19C 1523   6.949   0.431   6.296 -1.5049  1.3757  0.5664
   21CHL1    C1 1524   6.723   0.312   6.169 -0.3410  0.7925 -0.2842
   21CHL1   H1A 1525   6.680   0.411   6.142 -0.6088  0.6106 -0.5188
   21CHL1   H1B 1526   6.669   0.231   6.116  0.1315 -0.9801  1.7943
   21CHL1    C2 1527   6.705   0.305   6.317 -0.1736 -0.7434 -0.4274
   21CHL1   H2A 1528   6.602   0.309   6.358  0.8397  2.2385  2.2035
   21CHL1   H2B 1529   6.750   0.396   6.362  1.2226 -2.0402  0.8871
   21CHL1   C20 1530   7.011   0.494   5.462 -0.0582  0.4364 -0.0052
   21CHL1   H20 1531   7.110   0.545   5.471  0.1139  0.2228 -0.5842
   21CHL1   C21 1532   6.908   0.610   5.488  0.4030 -0.8892 -0.6122
   21CHL1  H21A 1533   6.939   0.650   5.587 -0.7415 -0.5361 -0.3727
   21CHL1  H21B 1534   6.806   0.566   5.497 -0.4921  0.2124 -4.0509
   21CHL1  H21C 1535   6.892   0.688   5.411  0.5158 -0.1389  0.1036
   21CHL1   C22 1536   6.987   0.453   5.325 -0.3378  0.4324  0.6070
   21CHL1  H22A 1537   7.031   0.353   5.303 -2.7706 -0.3652 -1.0409
   21CHL1  H22B 1538   6.880   0.445   5.297 -0.1313  0.5789 -0.2606
   21CHL1   C23 1539   7.059   0.551   5.230  0.1920 -0.3218  1.1082
   21CHL1  H23A 1540   7.039   0.655   5.264  0.5992 -0.5818  2.1705
   21CHL1  H23B 1541   7.161   0.521   5.262 -0.2006 -2.1682  0.7248
   21CHL1   C24 1542   7.027   0.528   5.081 -0.1910 -0.0728  0.6396
   21CHL1  H24A 1543   7.031   0.419   5.062 -2.7300 -0.1653  0.3703
   21CHL1  H24B 1544   6.925   0.568   5.061  0.0402  0.2945  0.1739
   21CHL1   C25 1545   7.121   0.604   4.986 -0.3801  0.3456 -0.1254
   21CHL1   H25 1546   7.115   0.712   5.012 -0.0407  0.8423 -1.9616
   21CHL1   C26 1547   7.267   0.564   4.989  0.7129  0.6968 -0.0071
   21CHL1  H26A 1548   7.274   0.459   4.953  1.6707  0.8020 -0.1716
   21CHL1  H26B 1549   7.315   0.616   4.903 -2.7050  0.1785 -2.4349
   21CHL1  H26C 1550   7.319   0.585   5.085 -2.8166  0.9469  1.9958
   21CHL1   C27 1551   7.065   0.603   4.840  0.0925 -0.8486  0.0329
   21CHL1  H27A 1552   7.048   0.497   4.811 -1.6471 -0.7170  0.4764
   21CHL1  H27B 1553   6.965   0.649   4.852  1.3714  1.4506  4.0413
   21CHL1  H27C 1554   7.129   0.659   4.769 -1.0600 -0.0573 -0.4007
   22CHL1    C3 1555   1.443   4.007   5.820  0.3642  0.0346  0.4073
   22CHL1    H3 1556   1.373   3.922   5.835  0.3063 -0.1119 -0.5972
   22CHL1    O3 1557   1.479   4.075   5.938 -0.0470  0.5810  0.4329
   22CHL1   H3' 1558   1.540   4.146   5.916  1.4281 -0.2209  1.7389
   22CHL1    C4 1559   1.570   3.955   5.759 -0.0115 -0.0644  0.0474
   22CHL1   H4A 1560   1.644   4.037   5.746 -0.9897  0.6660 -1.2002
   22CHL1   H4B 1561   1.625   3.895   5.834 -0.5163  1.0824  1.3796
   22CHL1    C5 1562   1.530   3.887   5.626 -1.4338 -0.7602 -0.1921
   22CHL1    C6 1563   1.552   3.759   5.606  0.3332  0.0567 -0.5784
   22CHL1    H6 1564   1.600   3.698   5.685  0.8413  0.2297 -0.7450
   22CHL1    C7 1565   1.520   3.682   5.479 -0.1887 -0.3090  0.3136
   22CHL1   H7A 1566   1.609   3.622   5.452 -0.7223 -1.0382  0.1366
   22CHL1   H7B 1567   1.436   3.610   5.493 -0.2822 -0.0111  1.3665
   22CHL1    C8 1568   1.496   3.770   5.359 -0.1141  0.4596  0.4452
   22CHL1    H8 1569   1.595   3.803   5.322  0.0535 -1.7154 -1.2761
   22CHL1   C14 1570   1.422   3.691   5.246 -0.0897  0.2043  0.7062
   22CHL1   H14 1571   1.330   3.651   5.292 -0.0514 -0.7006  0.0258
   22CHL1   C15 1572   1.488   3.567   5.176 -0.1069  0.0622  0.3968
   22CHL1  H15A 1573   1.591   3.594   5.145  0.2070 -1.1752  0.2982
   22CHL1  H15B 1574   1.489   3.481   5.247 -0.8691 -0.7669 -0.5594
   22CHL1   C16 1575   1.397   3.534   5.057 -0.4463  0.5543  0.0799
   22CHL1  H16A 1576   1.462   3.517   4.969 -0.3794  0.2512  0.1867
   22CHL1  H16B 1577   1.332   3.444   5.069  2.0027 -1.5489 -1.2739
   22CHL1   C17 1578   1.305   3.656   5.040 -0.1827  0.3364 -0.7019
   22CHL1   H17 1579   1.211   3.642   5.097  0.0822 -0.7781 -0.5195
   22CHL1   C13 1580   1.379   3.772   5.124  0.0439  0.3097 -0.0897
   22CHL1   C18 1581   1.503   3.816   5.042  0.0773 -0.0761  0.2522
   22CHL1  H18A 1582   1.540   3.733   4.978 -1.4130 -0.2251 -0.4572
   22CHL1  H18B 1583   1.469   3.894   4.970 -1.0488 -0.1241  0.7104
   22CHL1  H18C 1584   1.586   3.851   5.106 -0.2882 -2.4336  2.1778
   22CHL1   C12 1585   1.300   3.894   5.167  0.7252  1.2163 -0.3167
   22CHL1  H12A 1586   1.272   3.960   5.082 -0.4450  2.8377  1.2350
   22CHL1  H12B 1587   1.207   3.857   5.216  0.7929 -2.6742 -2.6796
   22CHL1   C11 1588   1.372   3.973   5.272 -0.1699 -0.0337  0.1928
   22CHL1  H11A 1589   1.466   4.017   5.232 -0.4179 -1.2105 -1.8014
   22CHL1  H11B 1590   1.314   4.061   5.307  0.3508  0.0822  0.7868
   22CHL1    C9 1591   1.411   3.890   5.398 -0.0543  0.3916  0.0977
   22CHL1    H9 1592   1.317   3.850   5.441  1.2741 -1.0090  1.8547
   22CHL1   C10 1593   1.467   3.973   5.520  0.4163 -0.4003  0.5046
   22CHL1   C19 1594   1.582   4.071   5.479 -0.0282 -0.0279  1.1565
   22CHL1  H19A 1595   1.544   4.155   5.416 -1.7216 -1.3113  0.4006
   22CHL1  H19B 1596   1.621   4.127   5.566 -0.2563  2.5615 -0.2706
   22CHL1  H19C 1597   1.661   4.018   5.422  1.7959  1.7726  1.8608
   22CHL1    C1 1598   1.347   4.048   5.585 -0.4073  0.3457 -0.3219
   22CHL1   H1A 1599   1.309   4.131   5.522 -3.3891  0.1824  1.0866
   22CHL1   H1B 1600   1.266   3.971   5.591 -0.2952  0.2491 -0.0118
   22CHL1    C2 1601   1.376   4.105   5.725 -0.0584 -0.0608  0.4009
   22CHL1   H2A 1602   1.289   4.140   5.786  0.3050  0.0075  0.8884
   22CHL1   H2B 1603   1.447   4.190   5.717 -2.2712  2.1890  2.7964
   22CHL1   C20 1604   1.263   3.678   4.896  0.4431  0.0081  0.1667
   22CHL1   H20 1605   1.355   3.666   4.835  0.6907 -1.1188  0.7423
   22CHL1   C21 1606   1.188   3.816   4.870 -0.4555 -0.4058  0.1581
   22CHL1  H21A 1607   1.135   3.833   4.774 -0.4584 -1.5210 -0.0525
   22CHL1  H21B 1608   1.268   3.892   4.881 -0.0270 -0.9008  0.5254
   22CHL1  H21C 1609   1.107   3.820   4.946  2.4893 -0.9224  3.6242
   22CHL1   C22 1610   1.164   3.560   4.848  0.3630  0.3548  0.5775
   22CHL1  H22A 1611   1.082   3.547   4.922 -1.7594 -0.4218 -1.7813
   22CHL1  H22B 1612   1.120   3.603   4.756  1.6561  0.1980 -0.1380
   22CHL1   C23 1613   1.222   3.424   4.804 -0.0450 -0.4669 -0.0716
   22CHL1  H23A 1614   1.331   3.432   4.783  0.3244  2.8526  2.2714
   22CHL1  H23B 1615   1.216   3.348   4.885 -1.5712  0.0513  0.3304
   22CHL1   C24 1616   1.147   3.361   4.692  0.9278  0.6190  0.0188
   22CHL1  H24A 1617   1.041   3.389   4.709  1.1762  1.1186  0.7458
   22CHL1  H24B 1618   1.185   3.415   4.602 -0.9134  0.6258 -0.8011
   22CHL1   C25 1619   1.166   3.210   4.671  1.0318 -0.2150  0.1043
   22CHL1   H25 1620   1.163   3.156   4.768  0.3735 -1.2498 -0.4810
   22CHL1   C26 1621   1.053   3.137   4.585 -0.3326  0.2869  0.3009
   22CHL1  H26A 1622   0.970   3.125   4.657 -1.5228  0.6400 -0.9562
   22CHL1  H26B 1623   1.020   3.196   4.497 -1.5572 -0.7185  0.0375
   22CHL1  H26C 1624   1.104   3.047   4.545 -2.6666 -0.4049 -1.4073
   22CHL1   C27 1625   1.300   3.197   4.603  1.1329 -0.6246 -0.3105
   22CHL1  H27A 1626   1.307   3.257   4.510 -0.3389 -1.0760 -0.7348
   22CHL1  H27B 1627   1.381   3.241   4.666  0.3701 -0.3521  0.5066
   22CHL1  H27C 1628   1.319   3.094   4.567  2.0819  0.0259 -1.7808
   23CHL1    C3 1629   0.571   1.431   5.889  0.7352 -0.5249 -0.2977
   23CHL1    H3 1630   0.643   1.515   5.884  1.1182 -0.5666  2.7259
   23CHL1    O3 1631   0.552   1.399   6.028 -0.4570 -0.4788 -0.3271
   23CHL1   H3' 1632   0.635   1.396   6.075 -1.3891 -4.6378  1.4898
   23CHL1    C4 1633   0.433   1.478   5.843  0.1350 -0.2398  0.0096
   23CHL1   H4A 1634   0.356   1.399   5.853  1.2708 -1.3872  0.0185
   23CHL1   H4B 1635   0.399   1.564   5.904 -0.5765  0.5825 -1.5119
   23CHL1    C5 1636   0.440   1.505   5.696  0.8137  0.8008  0.3987
   23CHL1    C6 1637   0.406   1.631   5.647 -0.2478  0.3102 -0.0289
   23CHL1    H6 1638   0.387   1.709   5.722 -0.3371 -0.5853  0.9027
   23CHL1    C7 1639   0.393   1.669   5.506 -0.3349 -0.3209  0.7377
   23CHL1   H7A 1640   0.298   1.723   5.487  0.2874  0.6259  0.2668
   23CHL1   H7B 1641   0.472   1.741   5.474 -1.2498  0.5842  0.4684
   23CHL1    C8 1642   0.399   1.544   5.412 -0.2413  0.6939  0.2095
   23CHL1    H8 1643   0.296   1.503   5.412 -0.0754  0.1896 -1.8097
   23CHL1   C14 1644   0.436   1.583   5.269 -0.4243 -0.2831 -0.3334
   23CHL1   H14 1645   0.540   1.620   5.270  0.6664 -3.0529 -0.5923
   23CHL1   C15 1646   0.346   1.701   5.203  0.1780  0.2457  0.5893
   23CHL1  H15A 1647   0.240   1.672   5.222  0.3521 -1.3899 -0.6903
   23CHL1  H15B 1648   0.379   1.795   5.251  3.1291 -0.8702  0.9639
   23CHL1   C16 1649   0.377   1.686   5.051  0.0450 -0.2169  0.4077
   23CHL1  H16A 1650   0.277   1.676   5.003  0.6703  0.3630 -1.0844
   23CHL1  H16B 1651   0.417   1.784   5.016 -0.3009 -0.3869 -0.5095
   23CHL1   C17 1652   0.463   1.555   5.037  0.9701 -0.1137  0.6186
   23CHL1   H17 1653   0.568   1.592   5.042  1.1619 -0.7650  2.1775
   23CHL1   C13 1654   0.443   1.470   5.168 -1.5112 -0.1606 -0.3278
   23CHL1   C18 1655   0.300   1.404   5.149 -0.7923  0.5319 -0.7595
   23CHL1  H18A 1656   0.318   1.313   5.087  0.7739  1.8887 -2.3892
   23CHL1  H18B 1657   0.249   1.376   5.244  0.5124  0.5047 -0.0326
   23CHL1  H18C 1658   0.235   1.459   5.079 -1.0061 -0.0676 -1.0382
   23CHL1   C12 1659   0.554   1.379   5.217  0.1997 -0.2624  0.2673
   23CHL1  H12A 1660   0.565   1.291   5.151  2.4775  1.4993 -1.8875
   23CHL1  H12B 1661   0.651   1.430   5.237 -1.4370  1.8066  3.9039
   23CHL1   C11 1662   0.517   1.318   5.356 -0.3675 -0.7252 -0.3992
   23CHL1  H11A 1663   0.416   1.271   5.349 -1.1206  0.9258 -1.0677
   23CHL1  H11B 1664   0.585   1.240   5.397  0.0016  0.5055  1.4128
   23CHL1    C9 1665   0.501   1.435   5.458 -0.0525 -0.3445  0.1721
   23CHL1    H9 1666   0.599   1.487   5.455  0.4364 -1.2724 -2.3880
   23CHL1   C10 1667   0.484   1.389   5.607  0.4483 -0.1001  0.3086
   23CHL1   C19 1668   0.379   1.269   5.614 -0.6565 -0.7591 -0.2198
   23CHL1  H19A 1669   0.357   1.229   5.715 -0.2262  0.5747  0.4217
   23CHL1  H19B 1670   0.285   1.296   5.563 -0.4042  1.2188  0.2824
   23CHL1  H19C 1671   0.430   1.184   5.562  0.1368 -0.2130 -0.3537
   23CHL1    C1 1672   0.627   1.347   5.660  0.5042 -0.4162 -0.3178
   23CHL1   H1A 1673   0.674   1.270   5.596  0.3510  0.2191 -1.2196
   23CHL1   H1B 1674   0.697   1.430   5.636  1.5675 -1.0130  0.6265
   23CHL1    C2 1675   0.626   1.315   5.813  0.0692 -0.4655 -0.4216
   23CHL1   H2A 1676   0.728   1.288   5.849 -0.4544 -2.7020 -0.4644
   23CHL1   H2B 1677   0.560   1.225   5.818 -0.9642  0.2481 -0.9460
   23CHL1   C20 1678   0.453   1.493   4.890 -0.3790  0.0677 -0.5442
   23CHL1   H20 1679   0.361   1.433   4.874 -0.5332 -1.0239  3.4828
   23CHL1   C21 1680   0.585   1.406   4.876 -0.1393  0.8590 -0.4298
   23CHL1  H21A 1681   0.679   1.460   4.900  0.6409 -1.5137  2.5197
   23CHL1  H21B 1682   0.593   1.353   4.779 -0.8248  3.5156 -2.0316
   23CHL1  H21C 1683   0.569   1.328   4.954 -2.4698  2.1396  0.4960
   23CHL1   C22 1684   0.466   1.606   4.783  0.2280  0.0762 -0.3566
   23CHL1  H22A 1685   0.384   1.681   4.790 -0.7020 -0.8271 -1.1769
   23CHL1  H22B 1686   0.557   1.666   4.800  0.3095 -0.4748  1.3687
   23CHL1   C23 1687   0.461   1.550   4.638  0.0449 -0.1254  0.1071
   23CHL1  H23A 1688   0.540   1.485   4.596  0.8806  1.7938 -1.4421
   23CHL1  H23B 1689   0.365   1.495   4.650  0.2991 -1.0109 -1.6645
   23CHL1   C24 1690   0.448   1.647   4.530 -0.1575  0.1513  0.3081
   23CHL1  H24A 1691   0.371   1.725   4.552 -0.1275  0.3822 -0.3811
   23CHL1  H24B 1692   0.543   1.705   4.523  0.5526 -0.9037  0.8988
   23CHL1   C25 1693   0.435   1.592   4.387 -0.9363  0.6270 -0.9933
   23CHL1   H25 1694   0.507   1.511   4.361  0.2176  0.9906  0.9009
   23CHL1   C26 1695   0.298   1.522   4.368 -0.9711 -0.2075  0.5709
   23CHL1  H26A 1696   0.218   1.598   4.372 -0.0129  0.7823  1.7301
   23CHL1  H26B 1697   0.305   1.483   4.264 -0.2076 -2.1658  1.3027
   23CHL1  H26C 1698   0.275   1.441   4.441 -1.3968  0.9729  1.7923
   23CHL1   C27 1699   0.453   1.704   4.286 -0.5694 -0.5541  0.9963
   23CHL1  H27A 1700   0.561   1.722   4.268 -0.5908 -0.1105  1.3016
   23CHL1  H27B 1701   0.413   1.668   4.189 -0.5042  0.4256  0.5957
   23CHL1  H27C 1702   0.416   1.804   4.315  1.4217  0.7718 -0.7159
   24CHL1    C3 1703   1.559   5.193   6.440 -0.2234 -0.0637  0.7130
   24CHL1    H3 1704   1.669   5.205   6.437 -0.3051  0.5126 -0.6505
   24CHL1    O3 1705   1.513   5.197   6.573  0.7149 -0.1002 -0.1546
   24CHL1   H3' 1706   1.418   5.191   6.564  0.5621 -1.2674  1.6884
   24CHL1    C4 1707   1.501   5.305   6.354  0.5837  0.1363 -0.1514
   24CHL1   H4A 1708   1.391   5.302   6.365  0.3975  2.6141 -0.6934
   24CHL1   H4B 1709   1.549   5.395   6.399  0.3243  0.3109 -0.2220
   24CHL1    C5 1710   1.532   5.290   6.208 -0.4047 -0.4593  0.3069
   24CHL1    C6 1711   1.593   5.387   6.150  0.3430  0.1487 -0.2618
   24CHL1    H6 1712   1.613   5.481   6.202 -0.8615  1.3678 -1.8850
   24CHL1    C7 1713   1.639   5.388   6.006  0.4127  0.9808  0.2812
   24CHL1   H7A 1714   1.603   5.476   5.950 -1.3626  0.6463  0.8224
   24CHL1   H7B 1715   1.748   5.406   5.994  0.2803  0.7029 -1.5980
   24CHL1    C8 1716   1.589   5.263   5.938 -0.5782 -0.5622  0.9569
   24CHL1    H8 1717   1.483   5.288   5.916 -0.2489  2.0419  1.9830
   24CHL1   C14 1718   1.659   5.258   5.801 -0.1691 -0.1022 -0.0214
   24CHL1   H14 1719   1.769   5.250   5.813 -0.0466 -1.2020 -1.4664
   24CHL1   C15 1720   1.642   5.379   5.708 -0.2601  0.7219 -0.7283
   24CHL1  H15A 1721   1.544   5.426   5.729  0.7427  2.0647  1.3495
   24CHL1  H15B 1722   1.723   5.452   5.729  0.3724 -0.2727  0.4035
   24CHL1   C16 1723   1.650   5.310   5.571 -0.4305  0.3218 -0.2823
   24CHL1  H16A 1724   1.551   5.307   5.519  0.0489 -2.1420 -1.1877
   24CHL1  H16B 1725   1.725   5.363   5.509  1.3619 -2.0971 -0.3574
   24CHL1   C17 1726   1.701   5.159   5.590 -0.0623 -0.2900 -0.3285
   24CHL1   H17 1727   1.812   5.158   5.604 -0.0113 -2.1142 -0.6380
   24CHL1   C13 1728   1.627   5.129   5.728 -0.1401  0.1614  0.3526
   24CHL1   C18 1729   1.474   5.110   5.707 -0.6967 -0.6919 -0.5263
   24CHL1  H18A 1730   1.466   5.008   5.665  3.6473 -0.7539 -1.7321
   24CHL1  H18B 1731   1.420   5.108   5.804 -0.8820 -0.8392 -0.6331
   24CHL1  H18C 1732   1.425   5.183   5.639  0.3255  0.2578 -0.2668
   24CHL1   C12 1733   1.666   5.004   5.813 -0.6466  0.5212 -0.5740
   24CHL1  H12A 1734   1.630   4.913   5.760 -1.6810 -0.1002  1.1060
   24CHL1  H12B 1735   1.777   5.001   5.809 -0.6672  0.7658 -2.3535
   24CHL1   C11 1736   1.613   4.999   5.958  0.2840  0.6573 -0.7360
   24CHL1  H11A 1737   1.513   4.952   5.947  1.0954 -1.5297  0.7257
   24CHL1  H11B 1738   1.675   4.921   6.007 -2.4179 -1.8343 -1.0325
   24CHL1    C9 1739   1.609   5.136   6.026 -0.0425  0.3991  0.3206
   24CHL1    H9 1740   1.713   5.141   6.066  0.1882  1.1396 -0.3637
   24CHL1   C10 1741   1.517   5.143   6.152  0.4068 -0.0965 -0.2352
   24CHL1   C19 1742   1.366   5.129   6.112 -0.6387 -0.1397 -0.5799
   24CHL1  H19A 1743   1.341   5.192   6.023  0.0555 -0.2597 -0.8684
   24CHL1  H19B 1744   1.352   5.027   6.070 -0.0664 -0.1650 -0.7169
   24CHL1  H19C 1745   1.307   5.154   6.202 -0.2652  2.7164 -1.0274
   24CHL1    C1 1746   1.571   5.035   6.247 -0.4409 -0.7246  0.1275
   24CHL1   H1A 1747   1.545   4.932   6.214  1.5288 -0.9079 -1.0152
   24CHL1   H1B 1748   1.682   5.025   6.245 -0.4976 -1.2744 -0.6682
   24CHL1    C2 1749   1.526   5.050   6.390 -0.1467  0.3129  0.0712
   24CHL1   H2A 1750   1.565   4.971   6.458  1.1984  0.0802 -0.9209
   24CHL1   H2B 1751   1.415   5.051   6.382 -0.0456 -0.1789 -2.6153
   24CHL1   C20 1752   1.667   5.064   5.472 -0.5573  0.1364  0.1119
   24CHL1   H20 1753   1.558   5.040   5.472 -0.7722  1.0411 -0.1960
   24CHL1   C21 1754   1.746   4.931   5.490 -0.2870 -1.0159 -0.3083
   24CHL1  H21A 1755   1.687   4.858   5.429 -1.3788 -0.7929  0.4565
   24CHL1  H21B 1756   1.748   4.883   5.590  0.7695 -0.8296 -0.2287
   24CHL1  H21C 1757   1.853   4.935   5.460  0.1327  1.1905  1.3132
   24CHL1   C22 1758   1.700   5.116   5.333  0.1090  0.0473  0.0695
   24CHL1  H22A 1759   1.653   5.216   5.331 -0.1417 -0.0125  1.4650
   24CHL1  H22B 1760   1.810   5.134   5.331  0.0842  0.2797  0.6111
   24CHL1   C23 1761   1.647   5.033   5.212 -0.0563 -0.3511 -0.3516
   24CHL1  H23A 1762   1.699   4.937   5.234  2.3263  1.0033  0.3543
   24CHL1  H23B 1763   1.537   5.032   5.228  0.1309 -2.0315  1.2699
   24CHL1   C24 1764   1.687   5.094   5.080  0.2669 -0.0290  0.5271
   24CHL1  H24A 1765   1.621   5.183   5.069 -2.2569 -1.8249  0.3971
   24CHL1  H24B 1766   1.797   5.108   5.085  0.7410 -3.2519  1.1585
   24CHL1   C25 1767   1.658   4.984   4.977 -0.4374 -0.0792  0.0771
   24CHL1   H25 1768   1.701   4.892   5.023 -0.3553  0.3310  0.8351
   24CHL1   C26 1769   1.505   4.960   4.951 -0.2094 -0.0457 -0.1373
   24CHL1  H26A 1770   1.456   4.925   5.044 -0.0512  2.1615  0.8561
   24CHL1  H26B 1771   1.455   5.055   4.920  0.7080  0.2104 -0.8423
   24CHL1  H26C 1772   1.495   4.884   4.871 -1.2442  1.8949 -1.9586
   24CHL1   C27 1773   1.730   5.011   4.844 -0.5378 -0.5930 -0.1332
   24CHL1  H27A 1774   1.728   4.930   4.768 -0.6801  1.0353 -1.9568
   24CHL1  H27B 1775   1.691   5.107   4.803 -0.2644 -0.5875 -0.3838
   24CHL1  H27C 1776   1.837   5.034   4.860 -0.7485 -1.0351  2.3054
   25CHL1    C3 1777   6.354   0.497   6.159  0.6306 -0.5378 -0.0167
   25CHL1    H3 1778   6.453   0.545   6.173  0.3884  0.1703 -0.6892
   25CHL1    O3 1779   6.282   0.464   6.279 -0.0918 -0.2200  0.0287
   25CHL1   H3' 1780   6.189   0.469   6.254 -0.4123  0.0032  1.2149
   25CHL1    C4 1781   6.262   0.592   6.078  0.0705  0.0281 -0.1428
   25CHL1   H4A 1782   6.160   0.548   6.075  0.1047 -0.0583 -3.0535
   25CHL1   H4B 1783   6.249   0.686   6.135 -1.0075 -0.4060  0.3499
   25CHL1    C5 1784   6.307   0.608   5.931 -0.3020  0.5805 -0.2602
   25CHL1    C6 1785   6.340   0.725   5.877  0.5482 -0.3167  0.6429
   25CHL1    H6 1786   6.333   0.816   5.937 -2.9585 -0.5827  0.7987
   25CHL1    C7 1787   6.383   0.747   5.732  0.3506 -0.1432 -0.0684
   25CHL1   H7A 1788   6.334   0.839   5.693  1.1237  0.2646 -0.1195
   25CHL1   H7B 1789   6.493   0.766   5.738  0.4133  0.1447 -1.6174
   25CHL1    C8 1790   6.371   0.612   5.655  0.1262 -0.1746  0.4153
   25CHL1    H8 1791   6.261   0.607   5.643  0.0141  0.9239  0.8648
   25CHL1   C14 1792   6.456   0.630   5.530  0.0701  0.1747  0.6636
   25CHL1   H14 1793   6.563   0.631   5.556  0.3985 -0.7938 -0.5036
   25CHL1   C15 1794   6.449   0.761   5.443  0.0460 -0.2279  0.8281
   25CHL1  H15A 1795   6.343   0.793   5.441  0.1481  0.1195  0.9201
   25CHL1  H15B 1796   6.497   0.846   5.496  0.6540  0.7691 -1.2454
   25CHL1   C16 1797   6.506   0.721   5.309  0.2451 -0.3457  0.5663
   25CHL1  H16A 1798   6.425   0.743   5.236  1.0564  0.3475 -0.1482
   25CHL1  H16B 1799   6.600   0.778   5.291 -1.4057  2.4310  0.0924
   25CHL1   C17 1800   6.532   0.563   5.308 -0.3730 -0.4317  0.0241
   25CHL1   H17 1801   6.638   0.558   5.342 -0.3448  1.4210  0.3043
   25CHL1   C13 1802   6.446   0.516   5.428  0.7189  0.2646 -0.0845
   25CHL1   C18 1803   6.290   0.510   5.394  0.2984 -0.2795 -0.5376
   25CHL1  H18A 1804   6.263   0.607   5.346 -1.6811 -1.0090 -1.0260
   25CHL1  H18B 1805   6.259   0.426   5.329  0.3283 -1.8091  1.3543
   25CHL1  H18C 1806   6.228   0.493   5.484  3.3775  1.5758  2.1564
   25CHL1   C12 1807   6.481   0.385   5.498 -0.1774 -1.1029 -0.2017
   25CHL1  H12A 1808   6.468   0.294   5.436 -1.4421 -1.0172 -0.0961
   25CHL1  H12B 1809   6.590   0.388   5.517 -0.2769 -2.7702  0.8386
   25CHL1   C11 1810   6.410   0.364   5.625  0.2248  0.7328  0.3837
   25CHL1  H11A 1811   6.305   0.337   5.605  0.4827  0.3895 -0.5488
   25CHL1  H11B 1812   6.446   0.275   5.680 -1.6222 -0.9764 -1.0676
   25CHL1    C9 1813   6.414   0.487   5.725 -0.1275 -0.6577 -0.3656
   25CHL1    H9 1814   6.521   0.505   5.750 -0.5814  1.0537  0.5098
   25CHL1   C10 1815   6.341   0.472   5.858  0.2962 -0.3603  0.4614
   25CHL1   C19 1816   6.207   0.396   5.826 -0.1165 -0.2865  0.1701
   25CHL1  H19A 1817   6.215   0.288   5.804 -0.8962 -0.4165  0.5089
   25CHL1  H19B 1818   6.134   0.396   5.909 -0.3047  1.7475  0.0504
   25CHL1  H19C 1819   6.146   0.444   5.747 -0.7608 -1.7566 -0.2495
   25CHL1    C1 1820   6.430   0.387   5.956 -0.2882 -0.2193 -0.2212
   25CHL1   H1A 1821   6.426   0.283   5.916 -2.5681 -2.1431  4.3134
   25CHL1   H1B 1822   6.536   0.418   5.967 -0.2373  0.2245 -1.7417
   25CHL1    C2 1823   6.372   0.363   6.092 -0.0287 -0.1100 -0.4257
   25CHL1   H2A 1824   6.429   0.296   6.160 -0.8495 -1.0108 -0.6067
   25CHL1   H2B 1825   6.272   0.317   6.080 -0.0281  0.0079 -0.8887
   25CHL1   C20 1826   6.514   0.506   5.166 -0.3812 -0.0265  0.0845
   25CHL1   H20 1827   6.409   0.528   5.138 -0.7019 -2.2998 -0.7078
   25CHL1   C21 1828   6.537   0.352   5.167 -0.7864  0.2599  0.5453
   25CHL1  H21A 1829   6.637   0.329   5.210 -0.5124  0.7389  0.1718
   25CHL1  H21B 1830   6.538   0.312   5.064 -0.1240 -0.1317  0.7013
   25CHL1  H21C 1831   6.453   0.310   5.227  0.0230 -0.8029  0.9668
   25CHL1   C22 1832   6.601   0.577   5.059 -0.0779  0.4812  0.5561
   25CHL1  H22A 1833   6.593   0.686   5.079  3.0653  0.7163  0.9729
   25CHL1  H22B 1834   6.707   0.554   5.083  0.5205  1.0748 -1.3146
   25CHL1   C23 1835   6.577   0.539   4.912  0.0399  0.6734 -0.5070
   25CHL1  H23A 1836   6.636   0.446   4.906 -2.9193 -1.2739 -1.8743
   25CHL1  H23B 1837   6.470   0.532   4.882 -1.0929  1.8102  2.7637
   25CHL1   C24 1838   6.654   0.642   4.818 -0.7009 -0.3190  0.1477
   25CHL1  H24A 1839   6.588   0.730   4.802 -1.1645 -0.3634  1.6641
   25CHL1  H24B 1840   6.744   0.675   4.872  0.8155 -0.0382 -2.3677
   25CHL1   C25 1841   6.692   0.579   4.688 -0.6696  0.4925 -0.2806
   25CHL1   H25 1842   6.753   0.488   4.704  0.7924  1.3025 -1.0184
   25CHL1   C26 1843   6.567   0.539   4.614  0.1955 -0.2974  0.3458
   25CHL1  H26A 1844   6.593   0.520   4.507 -1.3897 -0.2807 -0.0642
   25CHL1  H26B 1845   6.516   0.454   4.663 -1.8271  0.0842 -0.9931
   25CHL1  H26C 1846   6.508   0.632   4.623  1.5793  0.4536  2.4797
   25CHL1   C27 1847   6.771   0.673   4.592 -0.4134 -0.0628 -0.6299
   25CHL1  H27A 1848   6.714   0.766   4.570 -1.2513 -1.1688 -3.7488
   25CHL1  H27B 1849   6.872   0.707   4.621  0.6500 -0.7495 -3.2418
   25CHL1  H27C 1850   6.790   0.620   4.496 -2.3812 -0.7431 -0.6893
   26CHL1    C3 1851   3.125   5.514   5.828  0.5939  0.4866  0.3158
   26CHL1    H3 1852   3.092   5.408   5.820  0.2023  0.5625  0.8676
   26CHL1    O3 1853   3.090   5.565   5.956  0.3889 -0.1263 -0.0905
   26CHL1   H3' 1854   3.122   5.655   5.953 -1.2960  0.8011  3.6771
   26CHL1    C4 1855   3.276   5.530   5.800  0.6444  0.0426  0.3181
   26CHL1   H4A 1856   3.309   5.634   5.823  1.5844 -0.4638  1.3747
   26CHL1   H4B 1857   3.326   5.460   5.871  1.2179  0.7959  0.6670
   26CHL1    C5 1858   3.316   5.490   5.656 -0.2187  0.1626 -0.0399
   26CHL1    C6 1859   3.408   5.395   5.634 -0.3247 -0.3847 -0.4181
   26CHL1    H6 1860   3.465   5.346   5.714  2.4538  1.1797 -1.3108
   26CHL1    C7 1861   3.467   5.369   5.498  0.1201  0.1684  0.0016
   26CHL1   H7A 1862   3.577   5.371   5.509  0.0559 -1.1278  1.0683
   26CHL1   H7B 1863   3.433   5.274   5.452  1.0205  0.7911 -2.0651
   26CHL1    C8 1864   3.419   5.479   5.395  0.4705  0.1127 -0.3213
   26CHL1    H8 1865   3.474   5.574   5.415  0.6142 -0.1219  0.4271
   26CHL1   C14 1866   3.445   5.436   5.251 -0.0362  0.2044  0.2755
   26CHL1   H14 1867   3.395   5.340   5.227  3.3858 -1.2900 -1.6990
   26CHL1   C15 1868   3.590   5.400   5.213  0.1168  0.2163 -0.9507
   26CHL1  H15A 1869   3.646   5.486   5.256 -1.9525  1.7703 -1.2318
   26CHL1  H15B 1870   3.628   5.307   5.262 -0.5429  0.0709 -0.7071
   26CHL1   C16 1871   3.583   5.406   5.058  0.7039 -0.0070  0.4806
   26CHL1  H16A 1872   3.664   5.474   5.025 -1.2182  0.9828 -2.5363
   26CHL1  H16B 1873   3.600   5.308   5.009  1.7352  1.0702 -1.4260
   26CHL1   C17 1874   3.443   5.461   5.016 -0.5467 -0.0835 -0.2760
   26CHL1   H17 1875   3.373   5.374   5.014  0.1421 -0.7575  2.1203
   26CHL1   C13 1876   3.388   5.532   5.140 -0.3055  1.0976 -0.3120
   26CHL1   C18 1877   3.461   5.671   5.151 -0.4004  0.0076  0.4837
   26CHL1  H18A 1878   3.438   5.732   5.061  0.1642  0.2339  0.4891
   26CHL1  H18B 1879   3.430   5.725   5.243 -1.7240 -0.7387  0.4991
   26CHL1  H18C 1880   3.571   5.656   5.152 -0.0828  1.5642 -2.0504
   26CHL1   C12 1881   3.241   5.540   5.154 -0.3392  0.0672 -0.2036
   26CHL1  H12A 1882   3.204   5.602   5.070  0.2565  0.1055 -0.4356
   26CHL1  H12B 1883   3.196   5.439   5.143 -0.4899 -0.2453  2.5154
   26CHL1   C11 1884   3.208   5.604   5.296  0.2901  0.0907 -0.1110
   26CHL1  H11A 1885   3.259   5.702   5.298 -0.1527  0.3228  2.3667
   26CHL1  H11B 1886   3.097   5.613   5.301  0.4040  0.8668  2.5665
   26CHL1    C9 1887   3.270   5.516   5.406  0.4106 -0.0292 -0.1798
   26CHL1    H9 1888   3.218   5.417   5.411 -1.7701  1.1149  1.6075
   26CHL1   C10 1889   3.242   5.575   5.547  0.3293 -0.2356 -0.4113
   26CHL1   C19 1890   3.292   5.722   5.557  0.3673 -0.4786 -0.4701
   26CHL1  H19A 1891   3.242   5.797   5.492  2.4944  1.3031 -0.1391
   26CHL1  H19B 1892   3.284   5.754   5.663  0.4430 -0.9107 -0.3335
   26CHL1  H19C 1893   3.400   5.732   5.532  0.6272  0.8667  1.0246
   26CHL1    C1 1894   3.088   5.564   5.570 -0.0957 -0.1251  0.6052
   26CHL1   H1A 1895   3.029   5.627   5.500 -1.7875  1.1418  2.9912
   26CHL1   H1B 1896   3.052   5.460   5.558 -0.0007 -0.0012 -0.9162
   26CHL1    C2 1897   3.041   5.590   5.715  0.3278  0.1416  0.1728
   26CHL1   H2A 1898   2.936   5.555   5.717  0.6626 -0.9519 -0.4787
   26CHL1   H2B 1899   3.044   5.699   5.733 -0.3852  0.6062 -2.2464
   26CHL1   C20 1900   3.433   5.525   4.873 -0.1348 -0.1387 -0.4458
   26CHL1   H20 1901   3.353   5.603   4.868  1.6378  1.7564 -0.3893
   26CHL1   C21 1902   3.390   5.410   4.777  0.0196 -0.5449 -0.9108
   26CHL1  H21A 1903   3.471   5.334   4.778  0.7480  0.2203  0.4089
   26CHL1  H21B 1904   3.373   5.455   4.676  1.2356  2.2849  0.0348
   26CHL1  H21C 1905   3.288   5.374   4.802 -0.1255  0.4853  0.0601
   26CHL1   C22 1906   3.560   5.604   4.826 -0.3835 -0.5008 -0.3678
   26CHL1  H22A 1907   3.603   5.662   4.910 -0.3328 -1.9473  0.6434
   26CHL1  H22B 1908   3.638   5.526   4.810  0.8799  0.6179  0.1370
   26CHL1   C23 1909   3.544   5.679   4.695 -0.0915 -0.2870 -0.5626
   26CHL1  H23A 1910   3.502   5.608   4.620 -1.6179 -0.0626  0.0507
   26CHL1  H23B 1911   3.485   5.772   4.709  2.0694  0.7903  2.2202
   26CHL1   C24 1912   3.691   5.710   4.643 -0.5796  0.0477 -0.4535
   26CHL1  H24A 1913   3.755   5.736   4.729  0.4156 -1.2412 -0.7763
   26CHL1  H24B 1914   3.735   5.620   4.594  2.2666  0.1661  1.6465
   26CHL1   C25 1915   3.693   5.825   4.545  0.0217 -0.0522  0.1456
   26CHL1   H25 1916   3.640   5.913   4.586  0.1936  0.5201 -0.8326
   26CHL1   C26 1917   3.832   5.880   4.526  0.0600 -0.7066  0.1310
   26CHL1  H26A 1918   3.895   5.817   4.460  0.0237 -0.8768  0.2588
   26CHL1  H26B 1919   3.828   5.983   4.483 -0.1050 -0.9781 -0.5139
   26CHL1  H26C 1920   3.891   5.886   4.620  0.6819 -2.1980 -0.1369
   26CHL1   C27 1921   3.631   5.801   4.403 -0.3125  0.1564  0.3065
   26CHL1  H27A 1922   3.531   5.759   4.426 -0.8061  0.6552 -0.8897
   26CHL1  H27B 1923   3.618   5.886   4.333 -1.3059  0.8674  1.3088
   26CHL1  H27C 1924   3.677   5.722   4.341 -1.3992  0.0248 -0.3634
   27CHL1    C3 1925   2.111   4.575   5.939 -0.0051 -0.2313  0.2247
   27CHL1    H3 1926   2.020   4.518   5.913 -0.2156  0.6560 -1.0372
   27CHL1    O3 1927   2.136   4.550   6.079 -0.0647  0.4668  0.1388
   27CHL1   H3' 1928   2.058   4.587   6.121  0.3290  0.5231  0.8339
   27CHL1    C4 1929   2.245   4.537   5.864 -0.1990  0.4913  0.0381
   27CHL1   H4A 1930   2.322   4.600   5.912 -0.5250  1.8350 -1.1285
   27CHL1   H4B 1931   2.267   4.429   5.881  1.0507  0.5327 -1.1334
   27CHL1    C5 1932   2.245   4.580   5.722  0.0107 -0.1144  0.7819
   27CHL1    C6 1933   2.273   4.489   5.623 -0.0812  0.2723  0.0952
   27CHL1    H6 1934   2.297   4.384   5.647 -0.1899 -0.7803 -3.7225
   27CHL1    C7 1935   2.285   4.530   5.478 -0.5025  0.0302 -0.4481
   27CHL1   H7A 1936   2.387   4.501   5.444  0.6519  2.4438  0.7149
   27CHL1   H7B 1937   2.207   4.482   5.415 -1.3311  1.5588 -0.6329
   27CHL1    C8 1938   2.284   4.685   5.460 -0.6543  0.2139  0.0610
   27CHL1    H8 1939   2.390   4.719   5.467 -0.9804  1.2957 -0.1440
   27CHL1   C14 1940   2.237   4.717   5.315  0.6291  0.3633 -0.4881
   27CHL1   H14 1941   2.128   4.696   5.311  0.4442  0.8646  1.3967
   27CHL1   C15 1942   2.311   4.642   5.208  0.3334  0.0565 -0.2030
   27CHL1  H15A 1943   2.422   4.642   5.222  0.3425  0.2779 -0.2780
   27CHL1  H15B 1944   2.277   4.536   5.205  0.1672  0.0513  1.0899
   27CHL1   C16 1945   2.284   4.729   5.082  0.1033  0.2352  0.7333
   27CHL1  H16A 1946   2.374   4.760   5.026  0.3771 -0.4468  0.7781
   27CHL1  H16B 1947   2.228   4.658   5.018  1.3111  1.0871 -1.3390
   27CHL1   C17 1948   2.189   4.843   5.128 -0.4462 -0.0447  0.5025
   27CHL1   H17 1949   2.084   4.809   5.130 -0.7795  0.8968  0.0666
   27CHL1   C13 1950   2.235   4.864   5.274 -0.6911 -0.0160  0.2436
   27CHL1   C18 1951   2.382   4.924   5.285  0.9853 -0.6575 -0.0259
   27CHL1  H18A 1952   2.406   4.950   5.390 -0.8941 -2.0559  0.8074
   27CHL1  H18B 1953   2.450   4.849   5.239  1.5417 -0.9609  1.2440
   27CHL1  H18C 1954   2.381   5.022   5.233 -1.2172  0.3242  1.7394
   27CHL1   C12 1955   2.142   4.942   5.378  0.2661 -0.5380 -0.4099
   27CHL1  H12A 1956   2.168   5.048   5.361  1.4639 -0.5479  1.0717
   27CHL1  H12B 1957   2.034   4.920   5.360  0.1975  1.3703 -2.8482
   27CHL1   C11 1958   2.181   4.911   5.523  0.0533  0.0246  0.1785
   27CHL1  H11A 1959   2.276   4.963   5.548 -1.3287  2.6771  0.1862
   27CHL1  H11B 1960   2.101   4.961   5.582  1.3215  2.3019  0.0614
   27CHL1    C9 1961   2.184   4.762   5.554 -0.0458 -0.5640 -0.4447
   27CHL1    H9 1962   2.087   4.718   5.524 -0.0503 -0.2614 -0.8765
   27CHL1   C10 1963   2.217   4.727   5.703  0.6832  0.1878  0.0882
   27CHL1   C19 1964   2.339   4.817   5.744  0.7006  0.5761 -0.3234
   27CHL1  H19A 1965   2.314   4.925   5.733 -2.6773  0.1294  1.5556
   27CHL1  H19B 1966   2.354   4.810   5.854 -1.6136  1.4382  0.1012
   27CHL1  H19C 1967   2.431   4.795   5.686  0.5483  2.0918 -1.2137
   27CHL1    C1 1968   2.096   4.779   5.789  0.2673 -0.0753 -0.1489
   27CHL1   H1A 1969   2.117   4.887   5.799  0.9408 -0.2725  0.7288
   27CHL1   H1B 1970   2.000   4.760   5.737  0.8117  0.6575 -1.4557
   27CHL1    C2 1971   2.097   4.729   5.937  0.2826  0.3281 -0.6461
   27CHL1   H2A 1972   2.004   4.763   5.987 -0.0545 -0.8592 -0.4192
   27CHL1   H2B 1973   2.178   4.781   5.992  1.2163 -0.8714 -0.8306
   27CHL1   C20 1974   2.189   4.956   5.024 -0.1103 -0.1360 -0.4314
   27CHL1   H20 1975   2.295   4.983   5.002 -0.2968  1.6545  0.6864
   27CHL1   C21 1976   2.118   5.082   5.071  0.8238 -0.7031 -0.0688
   27CHL1  H21A 1977   2.170   5.126   5.158 -0.1828 -1.9566  1.2066
   27CHL1  H21B 1978   2.020   5.054   5.113  1.1331  0.7517  1.7122
   27CHL1  H21C 1979   2.098   5.161   4.995 -0.4767  1.6606  2.5453
   27CHL1   C22 1980   2.123   4.910   4.885 -0.1094 -0.4260 -0.2679
   27CHL1  H22A 1981   2.146   4.803   4.865 -0.8180 -0.6913  0.2743
   27CHL1  H22B 1982   2.013   4.923   4.895 -0.1336 -0.4882 -0.4482
   27CHL1   C23 1983   2.161   4.994   4.763 -0.1915  0.4396  0.3713
   27CHL1  H23A 1984   2.122   5.098   4.772  1.6263  1.0267  2.4246
   27CHL1  H23B 1985   2.271   5.004   4.752  0.2830 -3.2360  0.7398
   27CHL1   C24 1986   2.101   4.941   4.635 -0.0098  0.2145 -0.1677
   27CHL1  H24A 1987   2.122   4.832   4.633 -2.2269 -0.3015  1.1083
   27CHL1  H24B 1988   1.991   4.937   4.618 -0.1504 -0.2497  0.7623
   27CHL1   C25 1989   2.162   5.007   4.506  0.1551  1.2146 -0.1967
   27CHL1   H25 1990   2.273   5.001   4.509  0.1167  0.7965  1.3594
   27CHL1   C26 1991   2.093   4.945   4.382  0.5407 -0.2606  0.4893
   27CHL1  H26A 1992   2.127   4.994   4.289 -3.2240  0.3799 -0.6979
   27CHL1  H26B 1993   2.122   4.838   4.378  2.3189  0.1509  1.1659
   27CHL1  H26C 1994   1.984   4.948   4.404  0.6852 -0.4369  1.2673
   27CHL1   C27 1995   2.149   5.161   4.508 -0.4745 -0.2112  0.1584
   27CHL1  H27A 1996   2.217   5.197   4.588  1.4817 -3.3730  0.1133
   27CHL1  H27B 1997   2.180   5.206   4.411  1.0050 -1.7588 -0.1450
   27CHL1  H27C 1998   2.041   5.176   4.528 -0.5763 -2.2895  1.4550
   28CHL1    C3 1999   1.633   6.475   6.356 -0.0765  0.6209 -0.3402
   28CHL1    H3 2000   1.657   6.579   6.327 -2.3969  0.5273 -3.1078
   28CHL1    O3 2001   1.620   6.461   6.495 -0.4670  0.5116  0.1702
   28CHL1   H3' 2002   1.601   6.367   6.505 -2.2922  0.9728  1.4371
   28CHL1    C4 2003   1.501   6.433   6.293 -0.1198  0.0482  0.0729
   28CHL1   H4A 2004   1.477   6.332   6.332  0.6480  1.4642  4.8960
   28CHL1   H4B 2005   1.425   6.506   6.330 -0.7986 -0.0876 -1.0003
   28CHL1    C5 2006   1.500   6.433   6.143 -0.2864 -0.5345  0.4093
   28CHL1    C6 2007   1.418   6.522   6.079  0.1129 -0.5895 -0.1473
   28CHL1    H6 2008   1.356   6.588   6.141 -0.5312  0.6663 -2.0446
   28CHL1    C7 2009   1.399   6.527   5.933  0.3606  0.2135 -0.6475
   28CHL1   H7A 2010   1.291   6.533   5.911 -0.3548  1.2133  2.5588
   28CHL1   H7B 2011   1.438   6.625   5.898 -2.5378  1.1940 -1.3742
   28CHL1    C8 2012   1.483   6.415   5.847  1.0760 -0.0552  0.0592
   28CHL1    H8 2013   1.424   6.322   5.851 -0.5073  0.8944 -0.5043
   28CHL1   C14 2014   1.509   6.453   5.700 -0.1242 -0.5813 -0.6518
   28CHL1   H14 2015   1.573   6.543   5.709 -1.4748  0.2577  1.1530
   28CHL1   C15 2016   1.394   6.496   5.608  0.1389 -0.0960  0.6723
   28CHL1  H15A 2017   1.307   6.433   5.635  0.7728 -0.6283  1.4961
   28CHL1  H15B 2018   1.381   6.606   5.618  2.0996  0.3111 -0.6505
   28CHL1   C16 2019   1.433   6.466   5.456  0.7315 -0.5259 -0.4366
   28CHL1  H16A 2020   1.365   6.392   5.408 -1.8281  0.6037  1.2078
   28CHL1  H16B 2021   1.426   6.555   5.391  1.7172  0.0326  0.1946
   28CHL1   C17 2022   1.585   6.409   5.475  0.5337 -0.5238 -0.0995
   28CHL1   H17 2023   1.654   6.495   5.477  1.3830 -1.1921 -0.0888
   28CHL1   C13 2024   1.586   6.350   5.616 -0.4586 -0.6514 -0.8809
   28CHL1   C18 2025   1.519   6.213   5.611  0.3041 -0.2469 -0.4101
   28CHL1  H18A 2026   1.409   6.221   5.605  0.3696  0.1188 -1.1276
   28CHL1  H18B 2027   1.553   6.148   5.528  1.2266  0.6043 -0.7206
   28CHL1  H18C 2028   1.540   6.152   5.702 -2.4159 -0.5374  0.0868
   28CHL1   C12 2029   1.730   6.345   5.674 -0.2800 -0.0905 -0.3323
   28CHL1  H12A 2030   1.791   6.259   5.638  2.0091  1.3209 -0.0684
   28CHL1  H12B 2031   1.780   6.442   5.653 -1.1224 -0.0831 -2.5840
   28CHL1   C11 2032   1.729   6.312   5.833  0.4653 -0.5904 -0.1575
   28CHL1  H11A 2033   1.704   6.207   5.859 -0.6408 -0.3214 -0.0922
   28CHL1  H11B 2034   1.831   6.333   5.871 -0.9904 -0.0456  3.8529
   28CHL1    C9 2035   1.618   6.397   5.919 -0.0714  0.2011  0.3686
   28CHL1    H9 2036   1.667   6.498   5.922  1.2281 -0.4147  0.7853
   28CHL1   C10 2037   1.607   6.358   6.070  1.2457 -0.1736 -0.4041
   28CHL1   C19 2038   1.571   6.205   6.081 -0.7006 -0.4397  0.1419
   28CHL1  H19A 2039   1.657   6.136   6.062  0.0973  0.7095 -0.5420
   28CHL1  H19B 2040   1.538   6.189   6.186 -1.0981  0.5664  0.1739
   28CHL1  H19C 2041   1.483   6.170   6.024 -0.1135 -2.7387  0.5086
   28CHL1    C1 2042   1.738   6.385   6.138  0.7379 -0.0461  0.0325
   28CHL1   H1A 2043   1.812   6.314   6.096  1.0508  0.5516 -0.4397
   28CHL1   H1B 2044   1.768   6.485   6.101  1.8722 -0.2587  0.3565
   28CHL1    C2 2045   1.740   6.379   6.293  0.4017 -0.2655  0.6582
   28CHL1   H2A 2046   1.837   6.400   6.343 -0.5066 -1.7319  3.2607
   28CHL1   H2B 2047   1.716   6.277   6.332  0.9630 -1.3906 -1.7736
   28CHL1   C20 2048   1.624   6.324   5.352 -0.4031 -0.0433  0.6565
   28CHL1   H20 2049   1.547   6.244   5.348 -1.0940  0.3251  3.8940
   28CHL1   C21 2050   1.771   6.264   5.376 -0.5118 -0.4342  0.0392
   28CHL1  H21A 2051   1.805   6.252   5.270  0.3628  1.7609  0.0105
   28CHL1  H21B 2052   1.777   6.169   5.433 -2.3758  0.3397  1.6219
   28CHL1  H21C 2053   1.846   6.332   5.421  0.7537 -0.9267 -1.2233
   28CHL1   C22 2054   1.629   6.413   5.221  0.5258  0.7910 -0.3783
   28CHL1  H22A 2055   1.535   6.472   5.218  0.2150  0.2929 -0.5411
   28CHL1  H22B 2056   1.719   6.476   5.237  0.0196  0.6572  4.3031
   28CHL1   C23 2057   1.638   6.333   5.092  0.5073 -0.4426 -0.1399
   28CHL1  H23A 2058   1.687   6.234   5.100  1.5773  0.2317  2.9293
   28CHL1  H23B 2059   1.532   6.319   5.061 -0.0240  0.2100  1.3123
   28CHL1   C24 2060   1.711   6.424   4.993 -0.2171 -0.0215  0.6880
   28CHL1  H24A 2061   1.662   6.524   4.994  0.1839  0.1908 -0.0707
   28CHL1  H24B 2062   1.812   6.438   5.037  0.7371  1.9255 -1.8886
   28CHL1   C25 2063   1.712   6.386   4.842 -0.3239 -0.1622 -0.5420
   28CHL1   H25 2064   1.604   6.397   4.818 -0.2094  2.1342 -0.1687
   28CHL1   C26 2065   1.805   6.472   4.754  0.0193 -0.0906  0.2574
   28CHL1  H26A 2066   1.754   6.570   4.743 -2.4022 -1.1335  1.4927
   28CHL1  H26B 2067   1.910   6.480   4.789  0.6943 -0.5595 -1.5658
   28CHL1  H26C 2068   1.811   6.424   4.654 -0.3636 -1.1936  0.7443
   28CHL1   C27 2069   1.754   6.238   4.834  0.3042 -0.3625 -0.0461
   28CHL1  H27A 2070   1.683   6.161   4.870 -0.4217 -0.9253 -2.5090
   28CHL1  H27B 2071   1.786   6.208   4.732 -0.0635 -1.0471  0.0376
   28CHL1  H27C 2072   1.846   6.220   4.894  1.7062 -1.3458 -2.3574
   29CHL1    C3 2073   1.362   3.056   2.619  0.1424  0.0436 -0.7391
   29CHL1    H3 2074   1.260   3.029   2.585  0.7177 -1.9911 -0.9715
   29CHL1    O3 2075   1.435   3.074   2.502 -0.1080  0.5174  0.1285
   29CHL1   H3' 2076   1.528   3.090   2.523  0.0964 -0.2956 -0.1463
   29CHL1    C4 2077   1.375   3.189   2.698  0.5541 -0.8483  0.0312
   29CHL1   H4A 2078   1.485   3.205   2.697  0.4223  0.1249 -1.4340
   29CHL1   H4B 2079   1.338   3.272   2.633 -1.1551  0.1777  2.1647
   29CHL1    C5 2080   1.315   3.176   2.833 -0.2595  0.9213 -0.7993
   29CHL1    C6 2081   1.222   3.266   2.877 -0.1172 -0.2879  0.2805
   29CHL1    H6 2082   1.187   3.352   2.818 -0.0729 -0.3295  0.1929
   29CHL1    C7 2083   1.161   3.260   3.014 -1.0311 -0.5520 -0.2595
   29CHL1   H7A 2084   1.153   3.364   3.051  0.5147 -1.2523  2.3280
   29CHL1   H7B 2085   1.056   3.225   3.009 -0.8440 -1.2610  0.5026
   29CHL1    C8 2086   1.247   3.190   3.120 -0.3879  0.5384  0.8920
   29CHL1    H8 2087   1.345   3.240   3.131  0.5905 -0.9038 -0.8037
   29CHL1   C14 2088   1.167   3.176   3.246  0.4982  0.3454 -0.9489
   29CHL1   H14 2089   1.076   3.114   3.228  0.2469  0.4985 -0.2316
   29CHL1   C15 2090   1.108   3.302   3.309 -0.2284 -1.2212  0.5439
   29CHL1  H15A 2091   1.172   3.393   3.300 -3.5286  1.1708 -0.4331
   29CHL1  H15B 2092   1.006   3.321   3.270  0.0732  1.3449  0.8182
   29CHL1   C16 2093   1.102   3.271   3.464 -0.2364 -0.9038  0.1115
   29CHL1  H16A 2094   1.158   3.340   3.530  1.2968 -0.6125 -1.4222
   29CHL1  H16B 2095   0.997   3.278   3.499  0.2742  1.0985  1.4214
   29CHL1   C17 2096   1.148   3.120   3.479 -0.2440  0.3917  0.1279
   29CHL1   H17 2097   1.060   3.053   3.464 -0.0513 -0.2995  1.8789
   29CHL1   C13 2098   1.244   3.092   3.355  0.2167  0.5973 -0.1276
   29CHL1   C18 2099   1.384   3.156   3.397  0.6685  0.4818  0.6236
   29CHL1  H18A 2100   1.438   3.087   3.465  0.8289  0.0742  0.0936
   29CHL1  H18B 2101   1.442   3.168   3.303  0.0706 -0.2149  0.1468
   29CHL1  H18C 2102   1.371   3.260   3.432  3.6170  1.5663 -1.1274
   29CHL1   C12 2103   1.261   2.951   3.296  0.5935 -0.2484  0.0737
   29CHL1  H12A 2104   1.290   2.878   3.375  0.3205 -1.5078 -0.9537
   29CHL1  H12B 2105   1.158   2.918   3.269 -1.3191  3.6106  1.8035
   29CHL1   C11 2106   1.340   2.950   3.164 -1.1802 -0.3835 -0.0261
   29CHL1  H11A 2107   1.448   2.973   3.179 -0.8694 -1.7750 -0.0046
   29CHL1  H11B 2108   1.326   2.852   3.115  0.8078 -0.6491 -0.1672
   29CHL1    C9 2109   1.290   3.052   3.062 -0.0109 -0.6200 -0.2758
   29CHL1    H9 2110   1.191   3.011   3.031 -0.5107  1.0327 -0.9846
   29CHL1   C10 2111   1.375   3.065   2.929  0.4779  0.8638  0.1302
   29CHL1   C19 2112   1.527   3.090   2.959 -0.9157 -0.2892 -0.4999
   29CHL1  H19A 2113   1.537   3.174   3.032 -1.2614 -0.2612 -0.4802
   29CHL1  H19B 2114   1.566   2.994   2.998  1.5409  1.1653  0.8641
   29CHL1  H19C 2115   1.596   3.117   2.876  1.0545  0.1513  1.1846
   29CHL1    C1 2116   1.358   2.937   2.843 -0.1502  0.0752  0.4320
   29CHL1   H1A 2117   1.402   2.858   2.909  0.4921  0.5325  0.5616
   29CHL1   H1B 2118   1.249   2.917   2.834  0.1491 -0.7007 -2.7360
   29CHL1    C2 2119   1.424   2.940   2.701  0.2984 -0.1166  0.5112
   29CHL1   H2A 2120   1.398   2.852   2.639 -1.8078  0.1864  0.8916
   29CHL1   H2B 2121   1.534   2.951   2.709  0.5863  1.0963 -3.1816
   29CHL1   C20 2122   1.202   3.100   3.627 -0.3690 -0.3753  0.1762
   29CHL1   H20 2123   1.297   3.157   3.637  0.6337 -1.4816 -2.2014
   29CHL1   C21 2124   1.240   2.956   3.653  0.3968  0.9406 -0.3735
   29CHL1  H21A 2125   1.279   2.941   3.756 -1.9054  2.1405  0.7549
   29CHL1  H21B 2126   1.315   2.928   3.576 -0.7244 -0.5033 -0.9883
   29CHL1  H21C 2127   1.152   2.888   3.640  2.2035 -1.5641 -0.3125
   29CHL1   C22 2128   1.116   3.153   3.735 -0.2210  0.1723 -0.6917
   29CHL1  H22A 2129   1.070   3.253   3.721 -0.5322  0.0528 -0.5381
   29CHL1  H22B 2130   1.028   3.084   3.735 -1.1105  1.2344 -2.5660
   29CHL1   C23 2131   1.178   3.148   3.873  0.0437 -0.1574  0.2300
   29CHL1  H23A 2132   1.181   3.043   3.908  2.0269 -1.1853 -2.6316
   29CHL1  H23B 2133   1.286   3.172   3.877  0.0218 -0.1690  3.9311
   29CHL1   C24 2134   1.112   3.236   3.978 -0.7831  0.1624 -0.2008
   29CHL1  H24A 2135   1.108   3.340   3.940 -0.2178  0.1931 -0.1791
   29CHL1  H24B 2136   1.010   3.195   3.994 -0.8514  0.6573  0.6899
   29CHL1   C25 2137   1.194   3.234   4.106 -0.9338  0.2630  0.0861
   29CHL1   H25 2138   1.287   3.292   4.087 -0.7116 -0.4429 -1.1027
   29CHL1   C26 2139   1.121   3.312   4.215 -0.3015 -0.0967 -0.7464
   29CHL1  H26A 2140   1.193   3.374   4.273  0.0399 -2.4966  1.5482
   29CHL1  H26B 2141   1.042   3.374   4.167 -0.9581 -0.5994 -0.3221
   29CHL1  H26C 2142   1.063   3.248   4.283 -1.3650  1.3690 -0.2092
   29CHL1   C27 2143   1.216   3.093   4.156  0.0262  0.1258 -0.0933
   29CHL1  H27A 2144   1.271   3.088   4.253  2.2265 -3.7326 -1.3097
   29CHL1  H27B 2145   1.118   3.042   4.160 -0.0574  0.3497  2.2778
   29CHL1  H27C 2146   1.276   3.034   4.084  0.8710  0.5141  0.2789
   30CHL1    C3 2147   2.919   5.190   2.447  0.2120 -0.0649 -0.2569
   30CHL1    H3 2148   2.886   5.085   2.461  0.8169 -0.4939 -1.8167
   30CHL1    O3 2149   2.855   5.223   2.324 -0.6709 -0.0885 -0.0241
   30CHL1   H3' 2150   2.764   5.217   2.355 -0.7859  1.2969 -0.0113
   30CHL1    C4 2151   2.851   5.271   2.563 -0.6549 -1.0485  0.2678
   30CHL1   H4A 2152   2.867   5.375   2.528 -3.1692 -0.5198  0.5194
   30CHL1   H4B 2153   2.742   5.252   2.571 -0.6201 -0.9022  1.2357
   30CHL1    C5 2154   2.926   5.248   2.694 -0.2629  0.1500 -0.2777
   30CHL1    C6 2155   2.865   5.211   2.803  0.4690  0.5181 -0.1595
   30CHL1    H6 2156   2.756   5.197   2.800  0.6639 -1.1906 -2.2110
   30CHL1    C7 2157   2.929   5.169   2.935 -0.1467  0.1815 -0.0448
   30CHL1   H7A 2158   2.865   5.204   3.019 -2.1353  1.8566 -2.1158
   30CHL1   H7B 2159   2.925   5.058   2.941  1.1316 -0.0435 -2.2406
   30CHL1    C8 2160   3.074   5.211   2.939 -0.0763  0.1966  0.3988
   30CHL1    H8 2161   3.079   5.320   2.960  0.7013  0.2373  0.0303
   30CHL1   C14 2162   3.147   5.130   3.052 -0.1679  0.3712 -0.3368
   30CHL1   H14 2163   3.154   5.025   3.015  0.7981  0.4199 -0.3008
   30CHL1   C15 2164   3.088   5.130   3.194 -0.2265  0.0835 -0.3926
   30CHL1  H15A 2165   3.046   5.231   3.216  0.8206  0.3581  0.4281
   30CHL1  H15B 2166   3.005   5.057   3.189  0.0373 -0.1706 -1.3931
   30CHL1   C16 2167   3.202   5.079   3.279 -0.4911 -0.7174 -0.0560
   30CHL1  H16A 2168   3.224   5.141   3.368 -1.2531 -0.9319  0.2863
   30CHL1  H16B 2169   3.177   4.977   3.316 -1.6321 -0.7044 -0.7398
   30CHL1   C17 2170   3.333   5.081   3.192  0.3582 -0.4767 -0.0094
   30CHL1   H17 2171   3.336   4.976   3.156  0.3913 -0.3889 -0.2655
   30CHL1   C13 2172   3.294   5.165   3.064 -0.4870  0.0768 -0.3781
   30CHL1   C18 2173   3.315   5.307   3.101 -0.7279 -0.1917  0.1232
   30CHL1  H18A 2174   3.412   5.333   3.148 -0.7965  0.7649 -0.2370
   30CHL1  H18B 2175   3.316   5.370   3.010  0.2638 -1.3037 -0.6634
   30CHL1  H18C 2176   3.236   5.346   3.169  0.9454  1.4244  1.2529
   30CHL1   C12 2177   3.367   5.120   2.934  0.6143  0.0140 -0.7311
   30CHL1  H12A 2178   3.473   5.154   2.934  0.8050 -0.5127  0.5380
   30CHL1  H12B 2179   3.361   5.010   2.929 -1.4322  0.0293  0.2157
   30CHL1   C11 2180   3.309   5.190   2.815 -0.4365 -0.2319 -0.4157
   30CHL1  H11A 2181   3.337   5.298   2.823 -3.1072  0.3604  3.3727
   30CHL1  H11B 2182   3.356   5.146   2.724  0.5445 -0.8207  0.3607
   30CHL1    C9 2183   3.154   5.180   2.810  0.6624 -0.3038 -0.5538
   30CHL1    H9 2184   3.152   5.070   2.803  2.4159 -0.5133  1.3276
   30CHL1   C10 2185   3.082   5.241   2.683 -0.2577  0.3941 -0.3488
   30CHL1   C19 2186   3.120   5.393   2.675 -0.2134  0.1480 -0.2231
   30CHL1  H19A 2187   3.078   5.453   2.759  1.2102  1.7507 -0.6026
   30CHL1  H19B 2188   3.230   5.409   2.667 -0.1336  1.7754  2.5699
   30CHL1  H19C 2189   3.073   5.437   2.585 -0.1706 -1.1499 -0.8988
   30CHL1    C1 2190   3.133   5.166   2.558  0.3490 -0.5158  0.2014
   30CHL1   H1A 2191   3.243   5.156   2.551  0.7886  1.3022  2.8252
   30CHL1   H1B 2192   3.094   5.063   2.569  0.9671 -0.9474 -1.3087
   30CHL1    C2 2193   3.064   5.200   2.426  0.7185  0.0223 -0.4417
   30CHL1   H2A 2194   3.089   5.127   2.346 -1.6349 -0.3684 -0.8852
   30CHL1   H2B 2195   3.092   5.303   2.397 -1.8815  0.9114 -0.0372
   30CHL1   C20 2196   3.460   5.105   3.280 -0.5820 -0.5082 -0.7049
   30CHL1   H20 2197   3.442   5.199   3.336  0.3279 -0.3444 -0.6769
   30CHL1   C21 2198   3.588   5.123   3.190  0.4200 -0.3421  0.3707
   30CHL1  H21A 2199   3.580   5.197   3.108  2.0890 -0.3171  0.1914
   30CHL1  H21B 2200   3.614   5.024   3.147 -0.9490 -0.6184  0.1451
   30CHL1  H21C 2201   3.680   5.151   3.247 -0.5353  0.7971  1.4151
   30CHL1   C22 2202   3.483   4.991   3.385  1.0019 -0.5862 -0.0496
   30CHL1  H22A 2203   3.384   4.962   3.427  1.7521 -0.3532  1.9460
   30CHL1  H22B 2204   3.518   4.907   3.322 -1.0534 -1.6662  0.1599
   30CHL1   C23 2205   3.575   5.016   3.498 -0.2245 -0.2391 -0.2743
   30CHL1  H23A 2206   3.677   5.037   3.460 -0.7221 -1.7992 -2.6799
   30CHL1  H23B 2207   3.544   5.099   3.565 -1.4575 -2.4286  2.0765
   30CHL1   C24 2208   3.604   4.894   3.592  0.4493 -0.0420  0.1421
   30CHL1  H24A 2209   3.499   4.868   3.615 -0.3910  1.1705 -1.9578
   30CHL1  H24B 2210   3.646   4.817   3.525 -0.0565 -0.4301  0.2704
   30CHL1   C25 2211   3.698   4.931   3.710  0.4511  0.6516 -0.1110
   30CHL1   H25 2212   3.789   4.975   3.664 -1.3844  2.2045 -2.5088
   30CHL1   C26 2213   3.636   5.026   3.814 -0.3966  0.1448 -0.0912
   30CHL1  H26A 2214   3.634   5.128   3.771  0.2881  0.4753  0.6582
   30CHL1  H26B 2215   3.537   4.990   3.850 -0.3593  2.4289  2.6335
   30CHL1  H26C 2216   3.709   5.027   3.897  0.6405 -2.8559 -0.8379
   30CHL1   C27 2217   3.747   4.812   3.794  0.0098 -0.1752  0.0423
   30CHL1  H27A 2218   3.838   4.837   3.853  0.2267 -0.7959 -0.0237
   30CHL1  H27B 2219   3.670   4.761   3.856  0.1161 -2.7589 -1.7702
   30CHL1  H27C 2220   3.785   4.736   3.722 -0.6938  0.7404 -1.3536
   31CHL1    C3 2221   3.815   5.850   2.555  0.7419 -0.4484 -0.1080
   31CHL1    H3 2222   3.732   5.786   2.595  0.4684 -1.2196 -1.8230
   31CHL1    O3 2223   3.817   5.845   2.416 -0.1687 -0.1177  0.2404
   31CHL1   H3' 2224   3.836   5.937   2.399 -0.9464  0.1566  0.8244
   31CHL1    C4 2225   3.781   5.998   2.603  0.0743  0.0588 -0.3444
   31CHL1   H4A 2226   3.860   6.068   2.569 -0.5876  1.0693  0.1491
   31CHL1   H4B 2227   3.683   6.019   2.554 -1.4572 -3.1987  1.0291
   31CHL1    C5 2228   3.775   6.006   2.754 -0.2435 -0.7724  0.4129
   31CHL1    C6 2229   3.668   6.060   2.809 -0.1169  0.2067 -0.1913
   31CHL1    H6 2230   3.578   6.098   2.758 -0.8198  1.1085  1.6142
   31CHL1    C7 2231   3.656   6.089   2.959  0.0618 -0.2435  0.3646
   31CHL1   H7A 2232   3.627   6.193   2.983 -1.3438 -0.4960 -0.1506
   31CHL1   H7B 2233   3.579   6.017   2.996 -0.4484  0.1730  0.1224
   31CHL1    C8 2234   3.786   6.059   3.041 -0.3672 -0.9379 -0.2270
   31CHL1    H8 2235   3.855   6.145   3.041 -3.2628  1.6555  2.6626
   31CHL1   C14 2236   3.755   6.024   3.188 -0.2676 -0.5756 -0.2400
   31CHL1   H14 2237   3.698   5.928   3.182 -1.5481 -0.0470  2.0817
   31CHL1   C15 2238   3.658   6.112   3.266  0.2328  1.0972 -0.3287
   31CHL1  H15A 2239   3.693   6.217   3.260 -0.7439  1.3614 -2.0341
   31CHL1  H15B 2240   3.551   6.107   3.236 -0.1668  0.3403  1.0971
   31CHL1   C16 2241   3.671   6.055   3.403  0.6289 -0.1010 -0.2358
   31CHL1  H16A 2242   3.690   6.134   3.480  0.8304 -1.5449  1.2617
   31CHL1  H16B 2243   3.582   5.998   3.438 -0.1775  2.6930  2.7926
   31CHL1   C17 2244   3.796   5.956   3.398 -0.0603 -0.0255 -0.1658
   31CHL1   H17 2245   3.763   5.853   3.374  0.6934 -0.2428 -0.3150
   31CHL1   C13 2246   3.877   5.988   3.271  0.2703 -0.1237 -0.3173
   31CHL1   C18 2247   3.966   6.111   3.290  0.1493 -0.5129 -0.0250
   31CHL1  H18A 2248   3.891   6.190   3.317 -0.8707 -0.9592 -1.4471
   31CHL1  H18B 2249   4.032   6.086   3.375  0.6275 -1.9239 -0.7799
   31CHL1  H18C 2250   4.035   6.152   3.213 -0.4070  4.3932  1.6980
   31CHL1   C12 2251   3.956   5.865   3.217  0.6567 -0.3212 -0.5794
   31CHL1  H12A 2252   4.048   5.842   3.275 -0.5430 -1.6605  0.9051
   31CHL1  H12B 2253   3.899   5.769   3.224 -0.3594  0.2038 -1.3276
   31CHL1   C11 2254   3.989   5.894   3.070 -0.2696 -0.0247  0.0600
   31CHL1  H11A 2255   4.072   5.968   3.076 -0.1495  0.1329 -2.6824
   31CHL1  H11B 2256   4.040   5.808   3.021  2.0696  0.9801  0.5816
   31CHL1    C9 2257   3.864   5.937   2.983  0.4311 -0.0611  0.4845
   31CHL1    H9 2258   3.790   5.855   2.979  0.2958  0.1037 -1.5721
   31CHL1   C10 2259   3.894   5.956   2.832 -0.4569 -0.6977 -0.3680
   31CHL1   C19 2260   4.010   6.055   2.819 -0.0884 -0.7096 -0.6517
   31CHL1  H19A 2261   3.979   6.159   2.845  1.7452 -0.8613  2.7295
   31CHL1  H19B 2262   4.100   6.039   2.882 -0.2326  0.6861 -0.0616
   31CHL1  H19C 2263   4.046   6.061   2.714  2.6802  1.1947  0.2981
   31CHL1    C1 2264   3.938   5.822   2.768  0.6422  0.0001  0.4082
   31CHL1   H1A 2265   4.040   5.794   2.803  0.9331 -1.1355 -1.2336
   31CHL1   H1B 2266   3.863   5.748   2.803 -0.7002  2.3015  2.7277
   31CHL1    C2 2267   3.945   5.806   2.614 -0.0095  0.1966 -0.1674
   31CHL1   H2A 2268   3.953   5.701   2.579 -1.0606 -0.6268  1.8593
   31CHL1   H2B 2269   4.022   5.869   2.566  0.0525  0.5705  0.4143
   31CHL1   C20 2270   3.864   5.945   3.536 -0.3249  0.0250 -0.1189
   31CHL1   H20 2271   3.912   6.041   3.565  0.2885 -0.1945 -0.3855
   31CHL1   C21 2272   3.980   5.837   3.555 -0.3512 -0.4502 -0.4156
   31CHL1  H21A 2273   3.935   5.745   3.513 -0.9892  0.5414 -2.0239
   31CHL1  H21B 2274   4.026   5.838   3.656 -2.2514 -1.6132  0.5015
   31CHL1  H21C 2275   4.065   5.860   3.488 -1.4704 -0.4676 -1.8952
   31CHL1   C22 2276   3.754   5.919   3.648  0.1230 -0.4462 -0.3025
   31CHL1  H22A 2277   3.666   5.988   3.642 -0.2410 -0.8832 -0.0737
   31CHL1  H22B 2278   3.711   5.819   3.623  2.9250 -1.2438 -2.4880
   31CHL1   C23 2279   3.818   5.926   3.794 -0.7894  0.2532  0.8753
   31CHL1  H23A 2280   3.903   5.857   3.813  1.2039  2.1800 -0.5421
   31CHL1  H23B 2281   3.856   6.030   3.787 -0.9613  0.1807 -3.1066
   31CHL1   C24 2282   3.726   5.897   3.907 -0.7196  0.4014  0.2786
   31CHL1  H24A 2283   3.630   5.950   3.893 -0.2158  2.2556  3.0819
   31CHL1  H24B 2284   3.709   5.787   3.901 -1.2718  0.5357 -1.0213
   31CHL1   C25 2285   3.788   5.938   4.048  0.1488 -0.0561  0.0373
   31CHL1   H25 2286   3.711   5.892   4.115 -0.3781  0.0424 -0.4905
   31CHL1   C26 2287   3.923   5.873   4.072 -0.5309  0.5972  0.0286
   31CHL1  H26A 2288   3.912   5.763   4.068 -0.8777  0.6659 -2.4782
   31CHL1  H26B 2289   3.997   5.895   3.992  1.8716 -2.3792  1.2517
   31CHL1  H26C 2290   3.969   5.893   4.171 -1.4143 -1.8006  0.9797
   31CHL1   C27 2291   3.789   6.094   4.071 -0.7188  0.4866 -0.0602
   31CHL1  H27A 2292   3.853   6.135   3.990  1.9220 -2.7385  0.1689
   31CHL1  H27B 2293   3.685   6.131   4.063 -0.6464  0.6543 -0.2402
   31CHL1  H27C 2294   3.831   6.113   4.172  0.7148 -0.8473 -0.3649
   32CHL1    C3 2295   1.355   3.768   2.836  0.3480 -0.4679 -0.1226
   32CHL1    H3 2296   1.248   3.797   2.847  0.6609  1.9240 -2.3987
   32CHL1    O3 2297   1.381   3.773   2.695 -0.2973  0.5913 -0.2262
   32CHL1   H3' 2298   1.448   3.705   2.686 -1.7436 -0.7855 -0.8130
   32CHL1    C4 2299   1.451   3.867   2.913 -0.1559  0.6185  0.5445
   32CHL1   H4A 2300   1.555   3.845   2.881  0.1227 -0.0481  1.8310
   32CHL1   H4B 2301   1.419   3.972   2.894 -3.2463  0.3959  3.4406
   32CHL1    C5 2302   1.446   3.850   3.069  0.4677  0.1342  0.1703
   32CHL1    C6 2303   1.422   3.961   3.142 -0.7771  0.4835  0.0692
   32CHL1    H6 2304   1.415   4.059   3.094 -1.7680  0.1662 -0.4722
   32CHL1    C7 2305   1.412   3.967   3.296  0.1126 -0.0525  0.6367
   32CHL1   H7A 2306   1.458   4.058   3.340 -2.0255  1.0722  0.6644
   32CHL1   H7B 2307   1.303   3.973   3.317 -0.2516 -0.8240 -0.8634
   32CHL1    C8 2308   1.446   3.828   3.354  0.3118 -0.3561  0.0035
   32CHL1    H8 2309   1.557   3.825   3.358  0.3828 -0.8776 -1.6170
   32CHL1   C14 2310   1.382   3.817   3.491  0.0312 -0.0667  0.0500
   32CHL1   H14 2311   1.272   3.807   3.479 -0.0314 -0.2498  0.7643
   32CHL1   C15 2312   1.405   3.937   3.587  0.9084  0.9382 -0.5462
   32CHL1  H15A 2313   1.513   3.964   3.598  1.2520 -1.0340  1.6064
   32CHL1  H15B 2314   1.346   4.025   3.553  1.1066  0.8522 -1.1281
   32CHL1   C16 2315   1.353   3.886   3.726  0.8067 -0.6956  0.2130
   32CHL1  H16A 2316   1.410   3.914   3.817 -1.3663  0.1322  1.3819
   32CHL1  H16B 2317   1.247   3.917   3.740  1.6129  1.0121  3.4659
   32CHL1   C17 2318   1.343   3.729   3.711  0.4553 -0.0768 -1.1268
   32CHL1   H17 2319   1.237   3.701   3.695  0.4807 -0.1536 -1.1611
   32CHL1   C13 2320   1.415   3.696   3.581 -0.2965  0.3346  0.4534
   32CHL1   C18 2321   1.569   3.679   3.605 -1.0667 -0.1378  0.0825
   32CHL1  H18A 2322   1.594   3.604   3.683  2.6026  1.5975  0.7729
   32CHL1  H18B 2323   1.637   3.667   3.518 -0.6680 -1.7650  0.5697
   32CHL1  H18C 2324   1.606   3.768   3.660 -1.1339 -1.4610  2.4286
   32CHL1   C12 2325   1.362   3.571   3.497 -0.1603 -0.4347  0.1760
   32CHL1  H12A 2326   1.382   3.474   3.548  0.7564 -0.7875 -0.8162
   32CHL1  H12B 2327   1.253   3.590   3.486  0.1795  0.1983 -3.1165
   32CHL1   C11 2328   1.416   3.573   3.347  0.1018 -0.3637  0.3281
   32CHL1  H11A 2329   1.522   3.543   3.363 -0.3085 -2.7140 -0.8662
   32CHL1  H11B 2330   1.374   3.490   3.286  1.4829 -0.0264 -1.1747
   32CHL1    C9 2331   1.396   3.705   3.273 -0.3553  0.2095  0.0120
   32CHL1    H9 2332   1.286   3.720   3.267  0.0368  2.8821 -2.2647
   32CHL1   C10 2333   1.441   3.705   3.124  0.3937  0.3420 -0.6339
   32CHL1   C19 2334   1.589   3.654   3.100  0.3629 -0.1523  0.3542
   32CHL1  H19A 2335   1.598   3.557   3.153 -1.7352 -1.1577 -0.9952
   32CHL1  H19B 2336   1.621   3.653   2.993  1.2411  1.9523  0.5268
   32CHL1  H19C 2337   1.662   3.729   3.138 -1.6732  1.7231  0.7264
   32CHL1    C1 2338   1.335   3.628   3.036  1.1410  0.3306  0.3082
   32CHL1   H1A 2339   1.335   3.522   3.067  0.7216  0.7148  1.6965
   32CHL1   H1B 2340   1.230   3.661   3.054  1.6081  3.3116 -1.5725
   32CHL1    C2 2341   1.373   3.625   2.887 -0.4739  0.5083 -0.4534
   32CHL1   H2A 2342   1.304   3.562   2.825  0.9056 -2.7944  1.1081
   32CHL1   H2B 2343   1.470   3.576   2.864 -1.5782 -1.7587 -0.5869
   32CHL1   C20 2344   1.368   3.642   3.829  0.1792 -0.2378  0.2448
   32CHL1   H20 2345   1.384   3.537   3.796  0.8004  0.8485 -3.3133
   32CHL1   C21 2346   1.240   3.645   3.916  0.2354 -0.1510 -0.6642
   32CHL1  H21A 2347   1.159   3.592   3.862 -0.5874 -1.3280  1.6124
   32CHL1  H21B 2348   1.199   3.747   3.935  2.5237  0.7703 -0.3080
   32CHL1  H21C 2349   1.263   3.594   4.012  1.5350 -1.7438 -1.7700
   32CHL1   C22 2350   1.495   3.679   3.921  0.2788 -0.2904 -0.6645
   32CHL1  H22A 2351   1.573   3.747   3.879  2.7357 -0.5055  3.0960
   32CHL1  H22B 2352   1.462   3.744   4.005  1.9300 -0.6332  0.2834
   32CHL1   C23 2353   1.564   3.554   3.977  0.5162  0.4699  0.0578
   32CHL1  H23A 2354   1.488   3.474   3.988 -1.7368  2.7492  2.8165
   32CHL1  H23B 2355   1.637   3.510   3.907  0.5187 -1.2160  1.0640
   32CHL1   C24 2356   1.618   3.578   4.119  0.4287  0.0291  0.8860
   32CHL1  H24A 2357   1.685   3.666   4.123  2.3078 -1.3680  2.8728
   32CHL1  H24B 2358   1.536   3.580   4.194 -0.2515 -2.6897  0.3302
   32CHL1   C25 2359   1.712   3.468   4.170  0.7519  0.0201  0.8319
   32CHL1   H25 2360   1.775   3.445   4.082 -2.8325 -1.7809 -1.4988
   32CHL1   C26 2361   1.807   3.492   4.282 -0.1511  0.2470  0.1167
   32CHL1  H26A 2362   1.757   3.479   4.381  0.3585 -0.2627  0.3127
   32CHL1  H26B 2363   1.878   3.407   4.279 -1.8226 -1.1823  0.0083
   32CHL1  H26C 2364   1.863   3.588   4.290  0.0134  0.0592  1.4335
   32CHL1   C27 2365   1.626   3.346   4.214 -0.4146 -0.4424 -0.0988
   32CHL1  H27A 2366   1.679   3.260   4.261  3.6491  1.8480 -0.0051
   32CHL1  H27B 2367   1.552   3.385   4.287  0.1869  0.4312  0.0543
   32CHL1  H27C 2368   1.571   3.292   4.135 -2.9451 -1.9775  2.4924
   33CHL1    C3 2369   6.624   4.081   2.736  0.6598  0.3239 -0.0336
   33CHL1    H3 2370   6.615   4.189   2.758 -1.3153 -0.1447  1.8183
   33CHL1    O3 2371   6.617   4.056   2.600 -0.7730  0.9166  0.4514
   33CHL1   H3' 2372   6.631   3.961   2.596 -1.9363  0.7601 -1.9289
   33CHL1    C4 2373   6.758   4.036   2.788  1.0137  0.3774 -0.1942
   33CHL1   H4A 2374   6.774   3.930   2.760  0.9192 -0.6219  3.1875
   33CHL1   H4B 2375   6.831   4.090   2.723  0.1043  0.1468 -1.4379
   33CHL1    C5 2376   6.768   4.063   2.937  0.4654 -0.7436 -0.3449
   33CHL1    C6 2377   6.863   4.141   2.991 -1.0147 -0.4879  0.5572
   33CHL1    H6 2378   6.940   4.188   2.928 -2.4605 -1.4931 -2.1212
   33CHL1    C7 2379   6.883   4.160   3.138 -0.6299  0.5458  0.0995
   33CHL1   H7A 2380   6.983   4.125   3.171  0.3667  2.1823 -1.0417
   33CHL1   H7B 2381   6.872   4.269   3.157 -1.5646  0.1704  1.8704
   33CHL1    C8 2382   6.788   4.071   3.223 -0.4938 -0.0073 -0.2485
   33CHL1    H8 2383   6.836   3.971   3.212 -0.1573  0.1487 -0.1920
   33CHL1   C14 2384   6.779   4.108   3.368  0.0990  0.6760 -0.2120
   33CHL1   H14 2385   6.721   4.202   3.366 -1.2469 -0.1285  0.0078
   33CHL1   C15 2386   6.907   4.152   3.450  0.2282 -0.1406 -0.2671
   33CHL1  H15A 2387   6.993   4.084   3.437  0.7234  0.6643 -1.3694
   33CHL1  H15B 2388   6.947   4.251   3.417  2.3736 -1.0390 -0.4961
   33CHL1   C16 2389   6.847   4.165   3.591  0.2770  0.4308 -0.1369
   33CHL1  H16A 2390   6.923   4.136   3.667 -0.6089  1.4967  1.2232
   33CHL1  H16B 2391   6.821   4.271   3.612  0.4518  0.3532  0.4993
   33CHL1   C17 2392   6.714   4.077   3.593 -1.1624  0.7141 -0.0300
   33CHL1   H17 2393   6.636   4.156   3.600  0.2747  2.1411  0.3793
   33CHL1   C13 2394   6.703   4.018   3.453 -0.0006  0.8526 -0.1679
   33CHL1   C18 2395   6.759   3.873   3.452 -0.0766  0.1308 -0.1904
   33CHL1  H18A 2396   6.854   3.867   3.509 -0.5332 -3.3585  0.4405
   33CHL1  H18B 2397   6.692   3.800   3.502  1.0185 -0.4770  0.4387
   33CHL1  H18C 2398   6.774   3.839   3.347 -1.5504 -0.6434 -0.1714
   33CHL1   C12 2399   6.554   4.029   3.405 -0.2063 -0.0593  0.0463
   33CHL1  H12A 2400   6.497   3.956   3.466 -0.4333 -0.6099 -0.8185
   33CHL1  H12B 2401   6.511   4.130   3.422 -4.1226 -1.5628  0.1512
   33CHL1   C11 2402   6.549   3.984   3.260  1.0005  0.4598 -0.3329
   33CHL1  H11A 2403   6.573   3.876   3.269  1.3930  0.6878  1.9963
   33CHL1  H11B 2404   6.445   3.993   3.221  1.7834 -0.9258 -2.8956
   33CHL1    C9 2405   6.646   4.056   3.168  0.5929 -0.2914  0.2419
   33CHL1    H9 2406   6.599   4.156   3.161 -0.5850 -0.9436 -2.8250
   33CHL1   C10 2407   6.650   4.004   3.022  0.2495  1.0366 -0.5121
   33CHL1   C19 2408   6.675   3.857   3.018 -0.2975 -0.0906 -0.0869
   33CHL1  H19A 2409   6.661   3.806   2.920  0.2956  0.8088 -0.6528
   33CHL1  H19B 2410   6.776   3.838   3.060  0.3232 -2.1006 -2.2257
   33CHL1  H19C 2411   6.603   3.802   3.083 -0.4562  0.6293  0.3461
   33CHL1    C1 2412   6.514   4.036   2.965 -0.9102 -0.2943  0.7679
   33CHL1   H1A 2413   6.440   3.972   3.018 -1.3858 -0.1996  0.2360
   33CHL1   H1B 2414   6.485   4.142   2.984  0.9150  1.0265 -2.7939
   33CHL1    C2 2415   6.510   4.010   2.805  0.8700 -0.1574 -0.1327
   33CHL1   H2A 2416   6.408   4.042   2.776 -0.2638 -1.8391  1.6733
   33CHL1   H2B 2417   6.515   3.899   2.793  1.3050 -0.4129  1.9278
   33CHL1   C20 2418   6.695   4.005   3.729 -0.3121 -0.3511  0.4072
   33CHL1   H20 2419   6.761   3.916   3.734  0.7280  0.3922  0.3644
   33CHL1   C21 2420   6.552   3.946   3.727 -0.1789  0.1813  0.2592
   33CHL1  H21A 2421   6.543   3.874   3.643  1.0299  1.7285 -1.2797
   33CHL1  H21B 2422   6.480   4.027   3.703  0.3638  0.9010  0.9757
   33CHL1  H21C 2423   6.532   3.905   3.828 -2.4066  1.6829  0.4976
   33CHL1   C22 2424   6.725   4.097   3.850 -0.2486  0.5585 -0.7883
   33CHL1  H22A 2425   6.829   4.134   3.847  0.0074  0.0381  0.7334
   33CHL1  H22B 2426   6.670   4.193   3.837 -0.4579  0.5397 -0.1003
   33CHL1   C23 2427   6.693   4.042   3.985  0.2397 -0.4615  0.7195
   33CHL1  H23A 2428   6.588   4.007   4.000  0.8677 -2.2145  1.2047
   33CHL1  H23B 2429   6.759   3.956   4.005  0.2489 -0.2421  1.7249
   33CHL1   C24 2430   6.722   4.153   4.089  0.1632 -0.1575  0.4175
   33CHL1  H24A 2431   6.831   4.171   4.097 -0.0725  2.2771 -0.7631
   33CHL1  H24B 2432   6.678   4.249   4.054 -0.3624 -0.9468 -1.1925
   33CHL1   C25 2433   6.666   4.131   4.227 -0.4833  0.6968  0.0792
   33CHL1   H25 2434   6.562   4.092   4.222 -0.2716  0.2790 -2.0079
   33CHL1   C26 2435   6.742   4.010   4.295  0.2604 -0.0902  0.1809
   33CHL1  H26A 2436   6.742   3.919   4.231 -2.7212  0.1809 -0.3205
   33CHL1  H26B 2437   6.852   4.024   4.307  0.2258  2.0403 -1.4194
   33CHL1  H26C 2438   6.689   3.974   4.386 -0.0395 -1.9190 -0.6687
   33CHL1   C27 2439   6.683   4.258   4.309  0.7109  0.0853  0.0950
   33CHL1  H27A 2440   6.790   4.285   4.321  0.7713 -0.2483  0.3355
   33CHL1  H27B 2441   6.622   4.343   4.271  0.4397  0.8865  2.1959
   33CHL1  H27C 2442   6.646   4.227   4.409  0.4825 -0.1372 -0.0553
   34CHL1    C3 2443   4.451   5.903   2.580 -0.4241  0.7973  0.3277
   34CHL1    H3 2444   4.505   5.999   2.598 -0.0479  0.5077  0.7518
   34CHL1    O3 2445   4.413   5.884   2.446  0.3838 -0.0731 -0.2851
   34CHL1   H3' 2446   4.414   5.973   2.411  0.1603  0.8262  1.8749
   34CHL1    C4 2447   4.548   5.788   2.618 -0.6117  0.3288  0.0382
   34CHL1   H4A 2448   4.496   5.693   2.595 -0.5095  0.5632 -1.2042
   34CHL1   H4B 2449   4.635   5.789   2.550 -0.0081 -2.6438  0.6397
   34CHL1    C5 2450   4.590   5.787   2.762  0.1492 -0.1216 -0.1136
   34CHL1    C6 2451   4.721   5.797   2.788  0.4910 -0.0666 -0.8065
   34CHL1    H6 2452   4.790   5.786   2.704  0.3539  0.2600 -0.9617
   34CHL1    C7 2453   4.781   5.801   2.929 -0.4673 -0.1020  0.3693
   34CHL1   H7A 2454   4.858   5.723   2.914 -1.6184 -1.1350 -0.3066
   34CHL1   H7B 2455   4.831   5.898   2.950  0.9173 -0.8547  0.6351
   34CHL1    C8 2456   4.675   5.758   3.034  0.7702  0.3232 -0.0814
   34CHL1    H8 2457   4.664   5.647   3.028  2.5121  0.0781  0.6057
   34CHL1   C14 2458   4.723   5.805   3.179  0.5194 -0.5528  0.3222
   34CHL1   H14 2459   4.734   5.915   3.168 -1.5626 -0.3355 -0.1467
   34CHL1   C15 2460   4.857   5.743   3.224 -0.2863 -0.3513 -0.1860
   34CHL1  H15A 2461   4.854   5.637   3.192 -1.6984 -0.9600  1.7345
   34CHL1  H15B 2462   4.947   5.796   3.187 -1.2337  0.0784 -2.0020
   34CHL1   C16 2463   4.846   5.755   3.377 -0.4404  0.6444  0.0039
   34CHL1  H16A 2464   4.874   5.658   3.424 -1.8169  1.6609  3.1711
   34CHL1  H16B 2465   4.904   5.839   3.420 -0.4535  0.3769  0.5608
   34CHL1   C17 2466   4.702   5.795   3.419 -0.7386 -0.5174 -0.4706
   34CHL1   H17 2467   4.712   5.905   3.425 -3.0144 -0.3335  0.8942
   34CHL1   C13 2468   4.618   5.767   3.291 -0.1200 -0.1285 -0.2999
   34CHL1   C18 2469   4.591   5.619   3.288  0.1877 -0.3118  0.6283
   34CHL1  H18A 2470   4.567   5.578   3.187 -2.1051  2.5022 -0.0984
   34CHL1  H18B 2471   4.677   5.559   3.324  1.4154  0.4330 -0.9413
   34CHL1  H18C 2472   4.510   5.588   3.357  2.1802 -1.4939  2.5555
   34CHL1   C12 2473   4.494   5.854   3.258 -0.6837  0.5435 -0.5392
   34CHL1  H12A 2474   4.408   5.862   3.328  0.0074 -0.3648  0.4418
   34CHL1  H12B 2475   4.544   5.952   3.254  1.5818 -0.5834 -2.9739
   34CHL1   C11 2476   4.439   5.816   3.122 -0.3913  0.2342 -0.2226
   34CHL1  H11A 2477   4.402   5.715   3.152 -2.1401  1.0424  0.5317
   34CHL1  H11B 2478   4.353   5.884   3.103 -0.2182  0.2739 -0.8825
   34CHL1    C9 2479   4.537   5.825   3.007  0.0895  0.4972  0.4952
   34CHL1    H9 2480   4.568   5.932   3.001 -0.2312  0.6294  1.0449
   34CHL1   C10 2481   4.480   5.786   2.866 -0.4713  0.6194  0.5316
   34CHL1   C19 2482   4.414   5.643   2.872  0.3692  0.7071 -0.4886
   34CHL1  H19A 2483   4.323   5.646   2.936 -0.8851  0.9909 -2.2177
   34CHL1  H19B 2484   4.377   5.610   2.773 -1.2938 -0.4597  0.4651
   34CHL1  H19C 2485   4.485   5.569   2.915 -1.5004 -0.9809 -0.1456
   34CHL1    C1 2486   4.375   5.895   2.820 -0.3825  0.2588  0.3079
   34CHL1   H1A 2487   4.281   5.897   2.879  0.0110  0.3237  0.9334
   34CHL1   H1B 2488   4.432   5.989   2.834  1.2589 -0.8786  1.7329
   34CHL1    C2 2489   4.334   5.904   2.668  0.3350  0.7162  0.2756
   34CHL1   H2A 2490   4.274   5.996   2.647 -0.2800 -0.3436 -3.1687
   34CHL1   H2B 2491   4.264   5.830   2.624 -0.2410  1.1163  0.5052
   34CHL1   C20 2492   4.657   5.740   3.550 -0.2310 -0.2791  0.3455
   34CHL1   H20 2493   4.647   5.630   3.539 -0.0618 -0.1101 -2.0986
   34CHL1   C21 2494   4.524   5.799   3.582  0.2854 -0.3130 -0.4361
   34CHL1  H21A 2495   4.527   5.910   3.592 -1.6805 -0.4268  2.7278
   34CHL1  H21B 2496   4.498   5.773   3.686 -1.0443  1.7566 -0.1964
   34CHL1  H21C 2497   4.445   5.760   3.513 -0.7399  1.2774 -0.2152
   34CHL1   C22 2498   4.756   5.759   3.668  0.1802  0.4361  0.6774
   34CHL1  H22A 2499   4.863   5.745   3.643  0.7211 -2.9369  4.0335
   34CHL1  H22B 2500   4.748   5.867   3.696 -3.9617  0.4584  0.0864
   34CHL1   C23 2501   4.727   5.663   3.787  0.4654 -0.1153 -1.1317
   34CHL1  H23A 2502   4.620   5.667   3.817  0.9936  0.6532  0.7233
   34CHL1  H23B 2503   4.746   5.554   3.772  1.3750 -0.5464  2.4066
   34CHL1   C24 2504   4.804   5.699   3.915  0.3990 -0.1109 -0.4334
   34CHL1  H24A 2505   4.913   5.687   3.899  0.3738 -2.6669  0.8177
   34CHL1  H24B 2506   4.777   5.807   3.920  0.2077 -0.1565 -0.4908
   34CHL1   C25 2507   4.765   5.621   4.042 -0.1054 -0.4089  0.2925
   34CHL1   H25 2508   4.660   5.645   4.069 -0.8758 -2.0401 -1.0161
   34CHL1   C26 2509   4.766   5.470   4.022 -0.2756 -0.3687  0.2963
   34CHL1  H26A 2510   4.867   5.440   3.986  0.4282  0.3915  1.5913
   34CHL1  H26B 2511   4.739   5.408   4.109  0.1088 -0.6058  0.2508
   34CHL1  H26C 2512   4.688   5.440   3.949 -0.3755  0.2199  0.1549
   34CHL1   C27 2513   4.864   5.652   4.151  0.5505  0.1108  0.6768
   34CHL1  H27A 2514   4.969   5.628   4.126  0.5997 -0.3223  1.2721
   34CHL1  H27B 2515   4.849   5.759   4.177 -3.2854 -0.2256  0.4841
   34CHL1  H27C 2516   4.842   5.608   4.250 -0.3771  2.5492  1.6296
   35CHL1    C3 2517   0.838   5.547   3.315  0.1319  0.0037  0.2681
   35CHL1    H3 2518   0.733   5.510   3.324  0.3861 -1.0802 -0.8638
   35CHL1    O3 2519   0.881   5.540   3.178 -0.7370  0.2435 -0.2778
   35CHL1   H3' 2520   0.814   5.591   3.132 -1.5348 -1.7717 -1.4818
   35CHL1    C4 2521   0.843   5.695   3.363 -0.9916 -0.1660 -0.4439
   35CHL1   H4A 2522   0.950   5.724   3.350 -1.1147 -0.4748 -2.4171
   35CHL1   H4B 2523   0.793   5.768   3.295  0.8892 -0.6830 -2.4951
   35CHL1    C5 2524   0.797   5.713   3.510 -0.1819  0.2830 -0.2050
   35CHL1    C6 2525   0.690   5.792   3.540 -0.2949  0.2132  0.0891
   35CHL1    H6 2526   0.643   5.851   3.461 -0.1092  0.1959 -0.0363
   35CHL1    C7 2527   0.642   5.800   3.679 -0.0208  0.0039 -1.3668
   35CHL1   H7A 2528   0.625   5.905   3.712 -0.3059 -1.3342  3.6889
   35CHL1   H7B 2529   0.543   5.754   3.701  0.6004 -0.8426 -0.2339
   35CHL1    C8 2530   0.746   5.746   3.785 -0.6581 -0.0453 -0.3909
   35CHL1    H8 2531   0.828   5.821   3.799 -1.5698  0.5883  2.1211
   35CHL1   C14 2532   0.681   5.734   3.924 -0.4335  0.6293 -0.5891
   35CHL1   H14 2533   0.611   5.648   3.917 -1.4721  1.3679  0.3045
   35CHL1   C15 2534   0.604   5.855   3.968  0.0379 -0.0038 -0.8712
   35CHL1  H15A 2535   0.672   5.943   3.965 -1.2200  1.0881  0.8286
   35CHL1  H15B 2536   0.517   5.879   3.903  0.1824  0.0855 -1.0321
   35CHL1   C16 2537   0.578   5.820   4.116 -0.1365  0.2791  0.4201
   35CHL1  H16A 2538   0.589   5.907   4.185 -0.9398 -1.3707  2.7595
   35CHL1  H16B 2539   0.476   5.776   4.124 -1.4361  2.3768 -2.6993
   35CHL1   C17 2540   0.677   5.707   4.153 -0.1531 -0.0405 -0.3353
   35CHL1   H17 2541   0.623   5.609   4.152 -2.0930  0.9863 -0.5610
   35CHL1   C13 2542   0.775   5.710   4.040 -0.3554  0.0070  0.4582
   35CHL1   C18 2543   0.881   5.818   4.062  0.5316  0.1152 -0.1553
   35CHL1  H18A 2544   0.920   5.848   3.963 -0.0237  1.6870  0.0829
   35CHL1  H18B 2545   0.837   5.908   4.110  0.4990  0.2639 -0.4625
   35CHL1  H18C 2546   0.968   5.785   4.123 -0.5720  1.7618  2.4879
   35CHL1   C12 2547   0.844   5.573   4.005 -0.6955  0.1721  0.2281
   35CHL1  H12A 2548   0.918   5.548   4.084 -0.8144 -0.3473  0.1801
   35CHL1  H12B 2549   0.767   5.494   3.992  1.3757 -1.6898 -1.5059
   35CHL1   C11 2550   0.910   5.574   3.865 -0.0078  0.4177 -0.0517
   35CHL1  H11A 2551   0.990   5.649   3.879 -0.8771  1.1800  0.9778
   35CHL1  H11B 2552   0.964   5.482   3.834  2.3965  1.9869 -0.8039
   35CHL1    C9 2553   0.821   5.617   3.749  0.5570 -0.3542 -0.5138
   35CHL1    H9 2554   0.741   5.540   3.744 -0.5229  0.3442  3.2110
   35CHL1   C10 2555   0.881   5.617   3.606 -0.6476  0.7904 -0.1104
   35CHL1   C19 2556   1.026   5.673   3.615  0.0703 -0.2794 -0.1454
   35CHL1  H19A 2557   1.024   5.776   3.658  1.5158 -0.3282  0.0917
   35CHL1  H19B 2558   1.080   5.602   3.680 -1.7949 -1.5710  0.0551
   35CHL1  H19C 2559   1.068   5.669   3.512 -3.1081  1.8837 -1.7014
   35CHL1    C1 2560   0.897   5.474   3.545 -0.2802  0.0096  0.0086
   35CHL1   H1A 2561   0.975   5.416   3.599  1.0983  0.9129 -0.9773
   35CHL1   H1B 2562   0.794   5.435   3.561  0.1575 -1.4539 -0.5822
   35CHL1    C2 2563   0.932   5.458   3.397 -0.1696 -0.4986 -0.7179
   35CHL1   H2A 2564   0.925   5.348   3.382  0.0406 -0.6206  0.0291
   35CHL1   H2B 2565   1.035   5.497   3.384 -0.4633  1.4737  1.9570
   35CHL1   C20 2566   0.708   5.723   4.299 -0.5019  0.1871 -0.2459
   35CHL1   H20 2567   0.756   5.823   4.304  0.3059 -0.1258 -1.3483
   35CHL1   C21 2568   0.827   5.633   4.338 -0.3025  0.0083 -0.8706
   35CHL1  H21A 2569   0.849   5.662   4.443  0.3979 -3.3139  0.0011
   35CHL1  H21B 2570   0.918   5.652   4.278  0.1502 -0.4621 -0.3390
   35CHL1  H21C 2571   0.800   5.526   4.345 -1.3266  0.3553  1.4292
   35CHL1   C22 2572   0.594   5.702   4.396  0.7735 -0.3114 -0.8853
   35CHL1  H22A 2573   0.512   5.775   4.375  0.3373 -0.2800  0.8190
   35CHL1  H22B 2574   0.542   5.605   4.383  0.6133 -0.4448  0.6105
   35CHL1   C23 2575   0.628   5.707   4.549  0.2828 -0.2616  0.8572
   35CHL1  H23A 2576   0.541   5.664   4.603 -0.4955  0.1934 -0.0140
   35CHL1  H23B 2577   0.712   5.638   4.571 -0.2393 -1.0057  0.5518
   35CHL1   C24 2578   0.649   5.853   4.587  0.2524 -0.4173 -0.0584
   35CHL1  H24A 2579   0.715   5.907   4.517 -1.9967 -0.3412 -2.2500
   35CHL1  H24B 2580   0.556   5.911   4.569  1.1190  0.6127 -1.3882
   35CHL1   C25 2581   0.675   5.879   4.739 -0.0306  0.6064  0.6966
   35CHL1   H25 2582   0.742   5.799   4.775 -0.3031 -0.6680 -1.4128
   35CHL1   C26 2583   0.744   6.013   4.770  0.1661  0.0263 -0.4159
   35CHL1  H26A 2584   0.688   6.107   4.752  2.4537  2.1756  2.7099
   35CHL1  H26B 2585   0.760   6.031   4.879 -2.3072 -0.0175  0.0088
   35CHL1  H26C 2586   0.838   6.024   4.712 -0.0094 -1.5076 -1.0596
   35CHL1   C27 2587   0.548   5.854   4.809  0.2283  0.2268 -0.4758
   35CHL1  H27A 2588   0.510   5.751   4.796  1.7919 -0.5501  0.7685
   35CHL1  H27B 2589   0.555   5.867   4.919 -0.5629  0.9808 -0.5078
   35CHL1  H27C 2590   0.466   5.919   4.772 -0.0714  0.5169  0.6543
   36CHL1    C3 2591   2.584   1.655   2.748 -0.6736 -0.2252 -0.0045
   36CHL1    H3 2592   2.474   1.665   2.748 -0.5761  1.0452  0.7924
   36CHL1    O3 2593   2.622   1.596   2.622 -0.1099 -0.2856  0.1829
   36CHL1   H3' 2594   2.660   1.511   2.643 -1.0433 -0.8135 -0.2469
   36CHL1    C4 2595   2.649   1.792   2.748 -0.3125 -0.3102  0.1530
   36CHL1   H4A 2596   2.757   1.774   2.728 -0.2362 -1.2789  1.3226
   36CHL1   H4B 2597   2.601   1.844   2.663 -1.5496  0.3677  1.2359
   36CHL1    C5 2598   2.638   1.867   2.880 -0.2024 -0.2362 -0.0320
   36CHL1    C6 2599   2.575   1.982   2.878  0.5669 -0.2842 -0.2177
   36CHL1    H6 2600   2.547   2.029   2.782 -1.0991  0.6172  0.6675
   36CHL1    C7 2601   2.551   2.071   2.996 -0.4007  0.2155  0.4821
   36CHL1   H7A 2602   2.588   2.175   2.982 -0.2810  0.0488 -0.5168
   36CHL1   H7B 2603   2.447   2.059   3.035 -0.4397  0.4497  0.4505
   36CHL1    C8 2604   2.647   2.016   3.111  0.0180  0.6436  0.5603
   36CHL1    H8 2605   2.749   2.051   3.086  0.1064  1.3546  1.8087
   36CHL1   C14 2606   2.608   2.072   3.248 -0.4726  0.4827  0.8613
   36CHL1   H14 2607   2.502   2.041   3.260 -0.3518 -0.5728 -0.5115
   36CHL1   C15 2608   2.613   2.225   3.251 -0.3569  1.0598 -0.0814
   36CHL1  H15A 2609   2.693   2.271   3.189 -0.0161 -0.5211 -0.8415
   36CHL1  H15B 2610   2.517   2.257   3.206  0.1751 -0.1043 -2.1198
   36CHL1   C16 2611   2.634   2.261   3.395  0.0065 -0.0906 -0.2235
   36CHL1  H16A 2612   2.721   2.330   3.402 -0.4159  0.5800 -1.2494
   36CHL1  H16B 2613   2.545   2.324   3.417  0.1536  0.4330 -1.0658
   36CHL1   C17 2614   2.635   2.124   3.472  0.0417 -0.2638 -0.2291
   36CHL1   H17 2615   2.529   2.090   3.482 -0.9916  2.5644 -0.5565
   36CHL1   C13 2616   2.688   2.021   3.369  0.4819 -0.1473 -0.0195
   36CHL1   C18 2617   2.840   2.038   3.357  0.5245  0.3724 -0.5250
   36CHL1  H18A 2618   2.877   1.968   3.279 -1.1711 -3.2607  1.6153
   36CHL1  H18B 2619   2.867   2.143   3.332 -0.4571  0.5352 -0.9674
   36CHL1  H18C 2620   2.894   2.014   3.451  0.2071  1.2253 -0.1160
   36CHL1   C12 2621   2.638   1.877   3.405  0.5638 -0.5587  0.4647
   36CHL1  H12A 2622   2.686   1.818   3.486  2.2128 -1.2038 -0.9121
   36CHL1  H12B 2623   2.528   1.874   3.413  0.3792  0.7125 -1.0767
   36CHL1   C11 2624   2.683   1.799   3.267  0.0618  0.1053 -0.5160
   36CHL1  H11A 2625   2.792   1.781   3.268 -0.2041 -1.6293  0.2301
   36CHL1  H11B 2626   2.635   1.699   3.275 -0.9272  0.6683  0.9966
   36CHL1    C9 2627   2.637   1.864   3.123 -0.3104  0.3656 -0.2357
   36CHL1    H9 2628   2.526   1.856   3.134 -0.2642 -2.5644 -1.0215
   36CHL1   C10 2629   2.687   1.791   3.004 -0.2178 -0.0119 -0.6665
   36CHL1   C19 2630   2.839   1.798   2.995  0.3988 -0.2741 -0.1141
   36CHL1  H19A 2631   2.892   1.731   3.065 -1.4468  0.5714  2.2265
   36CHL1  H19B 2632   2.873   1.753   2.899  2.4364 -0.9601  0.8723
   36CHL1  H19C 2633   2.878   1.902   3.001 -0.0659 -0.0869 -0.2399
   36CHL1    C1 2634   2.629   1.650   3.001  0.0929  0.1370  0.1597
   36CHL1   H1A 2635   2.676   1.588   3.081  0.3803 -0.3294 -0.3633
   36CHL1   H1B 2636   2.521   1.657   3.027  0.4595 -0.2902  1.9197
   36CHL1    C2 2637   2.634   1.574   2.860 -0.1639 -0.6272 -0.1848
   36CHL1   H2A 2638   2.583   1.476   2.863 -0.1381 -0.6499 -0.4855
   36CHL1   H2B 2639   2.743   1.560   2.842  0.6881  2.4240  1.7094
   36CHL1   C20 2640   2.690   2.143   3.608  0.2512 -0.1374  0.2669
   36CHL1   H20 2641   2.736   2.046   3.637  1.3405 -0.4080 -2.1498
   36CHL1   C21 2642   2.567   2.163   3.706  0.3645  0.8189  1.6174
   36CHL1  H21A 2643   2.494   2.082   3.687 -0.7031  2.0750  0.1503
   36CHL1  H21B 2644   2.524   2.261   3.676 -0.2889 -0.2814 -1.3601
   36CHL1  H21C 2645   2.604   2.165   3.811  2.1188  0.3506  1.0375
   36CHL1   C22 2646   2.803   2.250   3.626  0.0102  0.3073  0.2498
   36CHL1  H22A 2647   2.872   2.250   3.539 -1.5485  1.2600 -1.0449
   36CHL1  H22B 2648   2.766   2.354   3.635 -1.5663 -0.2626  0.6135
   36CHL1   C23 2649   2.883   2.239   3.757 -0.1933  0.5129  0.1112
   36CHL1  H23A 2650   2.825   2.276   3.845 -1.1805 -1.5875  0.3943
   36CHL1  H23B 2651   2.899   2.130   3.768 -1.8475  0.2006 -0.3551
   36CHL1   C24 2652   3.012   2.309   3.747 -0.2408 -0.2375 -0.1738
   36CHL1  H24A 2653   3.062   2.266   3.658 -1.1103  0.1334 -0.8588
   36CHL1  H24B 2654   2.987   2.414   3.718 -2.9247 -1.1042 -1.3248
   36CHL1   C25 2655   3.107   2.318   3.867  0.6658 -0.0296 -0.1634
   36CHL1   H25 2656   3.053   2.344   3.961 -0.7952 -2.4017 -0.2613
   36CHL1   C26 2657   3.174   2.181   3.895 -0.5082  0.1498  0.2036
   36CHL1  H26A 2658   3.101   2.097   3.895  1.2702 -1.4606 -0.7658
   36CHL1  H26B 2659   3.244   2.168   3.809 -0.3672  2.9453 -0.2083
   36CHL1  H26C 2660   3.231   2.200   3.988  0.4515  0.6388 -0.4620
   36CHL1   C27 2661   3.222   2.424   3.851 -0.5171  0.4818 -0.1042
   36CHL1  H27A 2662   3.179   2.516   3.807 -0.9531  0.2305 -0.2093
   36CHL1  H27B 2663   3.280   2.462   3.938 -1.1786  3.2006 -0.7371
   36CHL1  H27C 2664   3.300   2.382   3.784  1.0649 -0.2700  2.0963
   37CHL1    C3 2665   6.252   5.295   3.157  0.4973  0.4098 -0.2530
   37CHL1    H3 2666   6.203   5.196   3.148 -2.8902  1.9345 -0.2542
   37CHL1    O3 2667   6.291   5.353   3.030  0.3476  0.7614 -0.0114
   37CHL1   H3' 2668   6.304   5.446   3.051  0.6171  0.5843  0.6552
   37CHL1    C4 2669   6.144   5.399   3.208  0.2423  0.5671  0.9777
   37CHL1   H4A 2670   6.196   5.497   3.207  2.9764 -0.7535 -2.2206
   37CHL1   H4B 2671   6.064   5.412   3.132 -0.0369 -1.3184  0.9171
   37CHL1    C5 2672   6.085   5.363   3.345 -0.2444 -0.0864  0.8140
   37CHL1    C6 2673   5.950   5.345   3.365 -0.4144  0.6872  0.3005
   37CHL1    H6 2674   5.880   5.352   3.280 -0.2990 -0.3769  0.1122
   37CHL1    C7 2675   5.880   5.315   3.494 -0.3520  0.3634 -0.2535
   37CHL1   H7A 2676   5.798   5.387   3.513  0.0508 -0.1407  4.3765
   37CHL1   H7B 2677   5.829   5.216   3.492 -1.1386  0.7243  0.9220
   37CHL1    C8 2678   5.987   5.310   3.608  0.3400  0.5637 -0.1934
   37CHL1    H8 2679   6.004   5.415   3.639  1.1692  1.2583 -2.7175
   37CHL1   C14 2680   5.942   5.212   3.716  0.0429  0.1755  0.5542
   37CHL1   H14 2681   5.952   5.107   3.682 -1.0972 -0.5152  2.1994
   37CHL1   C15 2682   5.791   5.212   3.762 -0.6010  0.0612 -0.8765
   37CHL1  H15A 2683   5.761   5.317   3.784  1.7072  0.6345 -0.1690
   37CHL1  H15B 2684   5.727   5.160   3.686 -0.8881 -0.7435 -0.0987
   37CHL1   C16 2685   5.805   5.142   3.898  0.2346 -0.2615  0.2660
   37CHL1  H16A 2686   5.750   5.210   3.966  1.0183 -0.1886  0.8358
   37CHL1  H16B 2687   5.757   5.042   3.887 -0.2785  0.0673 -0.6408
   37CHL1   C17 2688   5.956   5.121   3.931 -0.3046  0.3648  0.4449
   37CHL1   H17 2689   5.985   5.017   3.906  0.0503  0.2650  1.2209
   37CHL1   C13 2690   6.028   5.222   3.838 -0.0323  0.1674  0.0160
   37CHL1   C18 2691   6.019   5.366   3.896  0.2575  0.0678 -1.1019
   37CHL1  H18A 2692   6.076   5.369   3.992  1.0029 -1.6715 -1.4450
   37CHL1  H18B 2693   6.067   5.446   3.837  1.4002  1.5651  1.6478
   37CHL1  H18C 2694   5.913   5.397   3.909  0.4361  0.5957 -0.9102
   37CHL1   C12 2695   6.169   5.178   3.802  0.5267  0.3969 -0.1688
   37CHL1  H12A 2696   6.240   5.194   3.886  2.5292 -1.3400 -1.4303
   37CHL1  H12B 2697   6.171   5.068   3.785  0.7113  0.7494 -2.7798
   37CHL1   C11 2698   6.221   5.251   3.685  0.1803 -0.2212 -0.4852
   37CHL1  H11A 2699   6.230   5.358   3.712  0.4975 -0.3720  0.0156
   37CHL1  H11B 2700   6.322   5.209   3.663  0.1846 -0.7524  0.5332
   37CHL1    C9 2701   6.129   5.261   3.563 -0.1904  0.6295 -0.3273
   37CHL1    H9 2702   6.116   5.159   3.521 -0.1217  0.2418  0.5552
   37CHL1   C10 2703   6.190   5.339   3.450  0.5278  0.6541  0.9686
   37CHL1   C19 2704   6.235   5.484   3.486  0.6532  0.2294 -0.4516
   37CHL1  H19A 2705   6.283   5.547   3.409 -0.3928 -0.1608 -1.4469
   37CHL1  H19B 2706   6.151   5.542   3.531  1.5480 -0.1578  1.8895
   37CHL1  H19C 2707   6.309   5.469   3.568 -1.0565  0.1667  1.1362
   37CHL1    C1 2708   6.314   5.257   3.397 -0.4821 -0.6296  0.2188
   37CHL1   H1A 2709   6.393   5.273   3.473  1.4104 -0.5841 -1.6334
   37CHL1   H1B 2710   6.287   5.149   3.398 -0.3315 -0.7361 -1.7500
   37CHL1    C2 2711   6.372   5.296   3.252  0.1295  0.3950 -0.1448
   37CHL1   H2A 2712   6.455   5.229   3.219  0.5652 -0.7395  2.8913
   37CHL1   H2B 2713   6.400   5.403   3.259 -0.4455  0.4758  1.3514
   37CHL1   C20 2714   5.975   5.135   4.083  0.2545  0.0822  0.6458
   37CHL1   H20 2715   5.968   5.235   4.130 -3.5341 -0.4996  1.6987
   37CHL1   C21 2716   6.118   5.080   4.112 -0.3260  1.0705  0.3318
   37CHL1  H21A 2717   6.193   5.145   4.064  1.7400 -0.4772  1.2987
   37CHL1  H21B 2718   6.135   4.977   4.073 -0.0680  1.0186  0.5799
   37CHL1  H21C 2719   6.136   5.081   4.222 -1.1945 -0.8542  0.5474
   37CHL1   C22 2720   5.878   5.040   4.155  0.2088  0.3072  1.0113
   37CHL1  H22A 2721   5.772   5.059   4.128  0.5539 -0.9829 -1.5101
   37CHL1  H22B 2722   5.895   4.935   4.123 -3.2659  0.1136 -0.7770
   37CHL1   C23 2723   5.882   5.040   4.312  0.0178  0.0534  0.7658
   37CHL1  H23A 2724   5.977   4.988   4.336  1.4378  1.2207 -1.8882
   37CHL1  H23B 2725   5.887   5.145   4.349  2.2336 -0.1178  1.1032
   37CHL1   C24 2726   5.759   4.980   4.369  0.0105 -0.4185  0.0005
   37CHL1  H24A 2727   5.672   5.032   4.322  0.6853  0.7681  0.0378
   37CHL1  H24B 2728   5.758   4.879   4.322 -0.7065 -0.3228 -0.2115
   37CHL1   C25 2729   5.752   4.983   4.525  0.1204 -0.0505 -0.0452
   37CHL1   H25 2730   5.730   5.090   4.543 -1.0083  0.1026 -2.0338
   37CHL1   C26 2731   5.641   4.894   4.580  0.3543  0.4851  0.6235
   37CHL1  H26A 2732   5.542   4.924   4.538  0.2705 -1.7658 -0.9229
   37CHL1  H26B 2733   5.678   4.794   4.550  0.4614  0.4505  0.8674
   37CHL1  H26C 2734   5.634   4.901   4.691 -3.5529 -0.6119  0.5910
   37CHL1   C27 2735   5.884   4.944   4.589  0.0154  0.1249 -0.2374
   37CHL1  H27A 2736   5.965   5.018   4.570 -0.6657  0.6225 -1.2692
   37CHL1  H27B 2737   5.859   4.931   4.697  0.8418  0.3291 -0.0104
   37CHL1  H27C 2738   5.918   4.841   4.565  0.2991 -0.3157  1.8243
   38CHL1    C3 2739   1.783   4.501   2.597  0.4115 -0.0195 -0.9400
   38CHL1    H3 2740   1.842   4.409   2.620 -0.5576 -0.6708 -0.9686
   38CHL1    O3 2741   1.808   4.528   2.463  0.2519  0.4844  0.4992
   38CHL1   H3' 2742   1.882   4.588   2.469  1.5577 -1.0130  0.2217
   38CHL1    C4 2743   1.627   4.482   2.615 -0.2167  0.3044  0.0536
   38CHL1   H4A 2744   1.579   4.558   2.550 -0.7307  0.2330  0.3443
   38CHL1   H4B 2745   1.600   4.384   2.571  2.0251  0.0023 -0.8099
   38CHL1    C5 2746   1.591   4.483   2.765  1.1384 -0.2694  0.0162
   38CHL1    C6 2747   1.531   4.375   2.816 -0.2442  0.0770 -1.3158
   38CHL1    H6 2748   1.499   4.298   2.745  0.8380 -1.4968 -0.1596
   38CHL1    C7 2749   1.507   4.360   2.963 -0.1397  0.6768 -0.3346
   38CHL1   H7A 2750   1.404   4.324   2.984  0.1128 -0.4089 -0.9090
   38CHL1   H7B 2751   1.575   4.281   3.003 -1.3432 -0.0868  0.2686
   38CHL1    C8 2752   1.503   4.493   3.045  0.1390 -0.6312 -0.9384
   38CHL1    H8 2753   1.410   4.549   3.020  0.7775  0.7634 -0.2646
   38CHL1   C14 2754   1.499   4.473   3.193  0.9233 -0.3563 -0.3687
   38CHL1   H14 2755   1.586   4.408   3.215  0.0125 -0.7126  2.5242
   38CHL1   C15 2756   1.375   4.395   3.250  0.0130 -0.6599  0.6735
   38CHL1  H15A 2757   1.278   4.423   3.203  0.7095  0.9642  0.1107
   38CHL1  H15B 2758   1.387   4.286   3.232 -2.0777 -0.8843  0.3331
   38CHL1   C16 2759   1.369   4.421   3.398 -0.3919 -0.4660 -0.3622
   38CHL1  H16A 2760   1.269   4.459   3.425  0.2328  2.4409 -1.6358
   38CHL1  H16B 2761   1.394   4.327   3.450  2.2807  0.9031  1.0575
   38CHL1   C17 2762   1.482   4.526   3.421  0.2829 -0.9879 -0.4198
   38CHL1   H17 2763   1.576   4.474   3.447  0.5301 -0.3465 -0.0103
   38CHL1   C13 2764   1.506   4.597   3.286  0.0667 -0.2810  1.0929
   38CHL1   C18 2765   1.388   4.692   3.266  0.1462 -0.5749  0.3737
   38CHL1  H18A 2766   1.292   4.645   3.296  0.5845 -1.2269  0.7670
   38CHL1  H18B 2767   1.390   4.778   3.337 -0.1976 -0.1161 -0.1590
   38CHL1  H18C 2768   1.364   4.740   3.168  1.1712  0.5215  0.6350
   38CHL1   C12 2769   1.637   4.670   3.254 -0.0495  0.2068 -0.2976
   38CHL1  H12A 2770   1.654   4.766   3.307  0.9236 -2.5737  5.1548
   38CHL1  H12B 2771   1.723   4.603   3.275 -1.5678 -2.6348 -2.5095
   38CHL1   C11 2772   1.649   4.704   3.102  0.0426  0.9398  0.1488
   38CHL1  H11A 2773   1.578   4.783   3.071 -0.4064  1.0109  1.3052
   38CHL1  H11B 2774   1.756   4.732   3.093  0.5809 -0.9327  0.2607
   38CHL1    C9 2775   1.628   4.575   3.013  0.3153  0.3161  0.4787
   38CHL1    H9 2776   1.706   4.499   3.034 -0.8283 -0.6197  1.5057
   38CHL1   C10 2777   1.638   4.597   2.859  0.1156 -0.9357  0.2025
   38CHL1   C19 2778   1.536   4.714   2.822  0.0537  0.0531  0.7379
   38CHL1  H19A 2779   1.565   4.812   2.867 -1.5397  1.7481 -1.6727
   38CHL1  H19B 2780   1.529   4.712   2.712  1.9067  0.4822  0.5842
   38CHL1  H19C 2781   1.436   4.680   2.857  0.3153 -1.8655 -0.2930
   38CHL1    C1 2782   1.792   4.619   2.824 -0.3325  0.0005 -0.5784
   38CHL1   H1A 2783   1.837   4.713   2.865  2.6204 -0.9581 -1.3997
   38CHL1   H1B 2784   1.839   4.535   2.879  0.3510  2.3114  2.6523
   38CHL1    C2 2785   1.827   4.626   2.677  1.1126  0.3808  0.5426
   38CHL1   H2A 2786   1.936   4.622   2.654  0.6799 -1.6949 -1.5648
   38CHL1   H2B 2787   1.787   4.713   2.622 -0.8261 -0.0040  1.2659
   38CHL1   C20 2788   1.451   4.619   3.543  0.6690  0.2181  0.1866
   38CHL1   H20 2789   1.364   4.679   3.508  1.6535  1.5858  0.0322
   38CHL1   C21 2790   1.562   4.719   3.578 -0.5254 -0.0492 -0.0313
   38CHL1  H21A 2791   1.595   4.782   3.492  0.0883 -0.4182 -0.0724
   38CHL1  H21B 2792   1.652   4.671   3.621 -0.7655 -0.8829 -0.4446
   38CHL1  H21C 2793   1.529   4.793   3.654  0.1393 -0.8388  1.0566
   38CHL1   C22 2794   1.397   4.538   3.664  0.4870 -0.0685 -0.7889
   38CHL1  H22A 2795   1.385   4.607   3.750  2.9936  0.7549 -1.0192
   38CHL1  H22B 2796   1.299   4.488   3.647  0.3679  0.3646 -1.4148
   38CHL1   C23 2797   1.497   4.424   3.699 -0.7190  0.1921 -0.5192
   38CHL1  H23A 2798   1.495   4.348   3.619  1.7868  1.0670 -1.5082
   38CHL1  H23B 2799   1.600   4.467   3.700 -0.7994  0.5016 -2.2198
   38CHL1   C24 2800   1.461   4.370   3.837 -0.4785  0.1130 -0.0636
   38CHL1  H24A 2801   1.483   4.441   3.919 -2.9592  0.2455  0.5763
   38CHL1  H24B 2802   1.352   4.349   3.843 -0.9259  2.3867  0.8213
   38CHL1   C25 2803   1.528   4.229   3.861  0.4151 -0.4814  0.2912
   38CHL1   H25 2804   1.516   4.170   3.768  2.2762 -1.7060  0.7786
   38CHL1   C26 2805   1.676   4.234   3.898  0.2105 -0.1246 -0.4702
   38CHL1  H26A 2806   1.684   4.268   4.004 -1.1612  0.0633 -0.4046
   38CHL1  H26B 2807   1.730   4.138   3.887 -1.5013 -1.2410  0.4389
   38CHL1  H26C 2808   1.726   4.309   3.833  2.4626 -1.4811 -0.4004
   38CHL1   C27 2809   1.443   4.167   3.974  0.1607  1.0166 -0.2643
   38CHL1  H27A 2810   1.437   4.224   4.069 -2.9603 -2.8258  2.1218
   38CHL1  H27B 2811   1.340   4.138   3.944  0.4245 -0.1420 -0.1119
   38CHL1  H27C 2812   1.491   4.068   3.992  0.9935  0.7497 -3.3095
   39CHL1    C3 2813   2.408   5.176   2.728 -0.1774  0.4246 -0.0970
   39CHL1    H3 2814   2.508   5.161   2.774  0.0397  1.3113 -0.2656
   39CHL1    O3 2815   2.405   5.114   2.602 -0.5290 -0.2948 -0.0681
   39CHL1   H3' 2816   2.312   5.100   2.584 -1.0752 -0.6757  2.5872
   39CHL1    C4 2817   2.292   5.103   2.809  0.0042 -0.8441 -0.4804
   39CHL1   H4A 2818   2.201   5.107   2.745  0.1788 -0.6912 -0.7186
   39CHL1   H4B 2819   2.306   4.992   2.812  2.8331 -0.5505  2.0272
   39CHL1    C5 2820   2.270   5.159   2.945 -0.5746 -0.9067  0.3496
   39CHL1    C6 2821   2.276   5.083   3.057 -0.0941  0.4447 -0.3362
   39CHL1    H6 2822   2.298   4.976   3.046 -0.5131 -0.0151  2.4365
   39CHL1    C7 2823   2.232   5.128   3.194 -0.4471 -0.6131 -0.2287
   39CHL1   H7A 2824   2.159   5.062   3.247  0.0528  0.8092  2.3850
   39CHL1   H7B 2825   2.327   5.135   3.251  0.2960  1.0976 -1.6025
   39CHL1    C8 2826   2.167   5.268   3.188 -0.5811 -0.2670  0.3392
   39CHL1    H8 2827   2.066   5.269   3.142 -0.0701  0.7606 -0.8470
   39CHL1   C14 2828   2.161   5.328   3.335  0.1932  0.1132  0.0062
   39CHL1   H14 2829   2.264   5.323   3.374  1.0000 -0.1056 -2.0161
   39CHL1   C15 2830   2.083   5.249   3.445  0.0175  0.3164 -1.0980
   39CHL1  H15A 2831   1.980   5.229   3.406 -0.2113 -3.6050  0.9480
   39CHL1  H15B 2832   2.131   5.149   3.453  4.6112  2.2154 -2.0240
   39CHL1   C16 2833   2.077   5.352   3.563 -0.6216 -0.1252 -0.4588
   39CHL1  H16A 2834   1.968   5.356   3.585 -0.1545 -0.4235  2.3766
   39CHL1  H16B 2835   2.140   5.318   3.649 -0.6730 -0.9624 -0.7444
   39CHL1   C17 2836   2.126   5.492   3.504 -0.0379 -0.4594  0.2298
   39CHL1   H17 2837   2.234   5.513   3.522  0.0656  0.8319 -1.6120
   39CHL1   C13 2838   2.117   5.472   3.352  0.3943 -0.0737  0.9004
   39CHL1   C18 2839   1.968   5.481   3.309  0.3116 -0.3784 -0.2811
   39CHL1  H18A 2840   1.959   5.436   3.208  0.1876 -3.0276  0.8245
   39CHL1  H18B 2841   1.898   5.427   3.377  1.5064 -1.5412  0.0619
   39CHL1  H18C 2842   1.934   5.587   3.312 -0.6792 -0.6845  2.2460
   39CHL1   C12 2843   2.214   5.557   3.259  0.7340 -0.2738 -0.2370
   39CHL1  H12A 2844   2.181   5.663   3.259  0.0319 -0.4622 -1.6081
   39CHL1  H12B 2845   2.313   5.552   3.307  1.0432 -0.2599 -0.8630
   39CHL1   C11 2846   2.222   5.510   3.111  0.4422 -0.0713  0.4724
   39CHL1  H11A 2847   2.117   5.521   3.077  0.4084  0.1843  0.6518
   39CHL1  H11B 2848   2.298   5.568   3.055 -2.4868  2.4875 -1.1952
   39CHL1    C9 2849   2.253   5.362   3.093 -0.2424 -0.5262 -0.0505
   39CHL1    H9 2850   2.357   5.352   3.130 -0.4924  1.0730  1.2014
   39CHL1   C10 2851   2.247   5.311   2.943 -0.6319  0.3094 -0.5542
   39CHL1   C19 2852   2.109   5.334   2.884  0.0884 -0.2970  0.3940
   39CHL1  H19A 2853   2.104   5.293   2.781  1.9135  1.8409 -0.6418
   39CHL1  H19B 2854   2.026   5.284   2.938 -2.7501  2.1961 -1.3334
   39CHL1  H19C 2855   2.072   5.439   2.883 -0.7572 -0.5034  3.0462
   39CHL1    C1 2856   2.357   5.381   2.868  0.5043 -0.3251  0.3461
   39CHL1   H1A 2857   2.337   5.490   2.863  1.2946 -0.1251  1.1961
   39CHL1   H1B 2858   2.454   5.381   2.922  0.4483 -1.3167  0.4545
   39CHL1    C2 2859   2.367   5.328   2.727 -0.3794  0.3855 -0.1725
   39CHL1   H2A 2860   2.456   5.372   2.677  1.3360 -0.2913  2.1379
   39CHL1   H2B 2861   2.270   5.329   2.674 -0.3798 -1.5439 -0.2493
   39CHL1   C20 2862   2.044   5.605   3.573 -0.8105  0.8562  0.3566
   39CHL1   H20 2863   1.937   5.595   3.546 -0.4875 -1.2898 -0.3377
   39CHL1   C21 2864   2.093   5.742   3.531 -0.6213 -0.2708 -0.0618
   39CHL1  H21A 2865   2.201   5.745   3.558 -0.9055 -1.8547  1.4684
   39CHL1  H21B 2866   2.039   5.827   3.580  0.5919 -0.3363  1.4628
   39CHL1  H21C 2867   2.087   5.769   3.424  1.2085  0.8899  0.0799
   39CHL1   C22 2868   2.039   5.579   3.725  0.7370 -0.3151 -0.0743
   39CHL1  H22A 2869   1.985   5.670   3.756 -0.9126 -0.7022 -1.6117
   39CHL1  H22B 2870   1.966   5.500   3.752 -2.0722  1.5214 -1.7774
   39CHL1   C23 2871   2.174   5.569   3.798 -0.3137 -0.1071 -0.0468
   39CHL1  H23A 2872   2.238   5.496   3.745  1.2329  1.1206  0.0746
   39CHL1  H23B 2873   2.243   5.656   3.800 -0.1888 -0.2179  1.6836
   39CHL1   C24 2874   2.154   5.527   3.946 -0.8193  0.1012  0.7475
   39CHL1  H24A 2875   2.120   5.421   3.947 -0.6464  0.0126  2.8702
   39CHL1  H24B 2876   2.251   5.540   3.999  0.9444 -1.4289 -1.9213
   39CHL1   C25 2877   2.055   5.605   4.040 -0.2259  0.0783  0.5186
   39CHL1   H25 2878   1.955   5.595   3.992 -1.1525  0.3099  2.3192
   39CHL1   C26 2879   2.053   5.528   4.169  0.8094  0.2028 -0.1609
   39CHL1  H26A 2880   1.992   5.435   4.162  0.4684  0.5565 -3.2527
   39CHL1  H26B 2881   2.155   5.495   4.197  0.1816 -1.7059  0.0063
   39CHL1  H26C 2882   2.026   5.591   4.257  0.6639 -3.0029  2.2769
   39CHL1   C27 2883   2.084   5.750   4.056  0.2799  0.7318  0.4614
   39CHL1  H27A 2884   2.171   5.763   4.125  3.3052 -0.9686 -2.7394
   39CHL1  H27B 2885   2.105   5.797   3.958 -0.9534  0.1950 -0.0740
   39CHL1  H27C 2886   2.001   5.809   4.102 -0.7053  0.7198 -1.2272
   40CHL1    C3 2887   5.297   2.220   2.951 -0.3050  0.2348  0.3885
   40CHL1    H3 2888   5.281   2.113   2.977  0.2251 -0.3163 -1.4341
   40CHL1    O3 2889   5.297   2.228   2.808  0.0019  0.1056 -0.4140
   40CHL1   H3' 2890   5.260   2.314   2.787 -1.6668 -0.1918  1.0587
   40CHL1    C4 2891   5.183   2.294   3.013  0.5571 -0.2934  0.4484
   40CHL1   H4A 2892   5.182   2.404   3.001  0.9082  0.0548  2.9830
   40CHL1   H4B 2893   5.088   2.251   2.975  1.4057  0.1043 -2.3561
   40CHL1    C5 2894   5.187   2.288   3.171 -0.0158 -0.0119 -0.4361
   40CHL1    C6 2895   5.082   2.240   3.248 -0.4824  0.1910  0.1445
   40CHL1    H6 2896   4.995   2.212   3.187  1.1078  0.1806 -2.2842
   40CHL1    C7 2897   5.094   2.231   3.400  0.2626  0.1570  0.1331
   40CHL1   H7A 2898   4.997   2.257   3.448  0.8756  0.5723  1.1740
   40CHL1   H7B 2899   5.106   2.123   3.425 -2.0621 -0.0790  0.5358
   40CHL1    C8 2900   5.209   2.313   3.454 -0.3057  0.3562 -0.5010
   40CHL1    H8 2901   5.176   2.419   3.449 -0.1951  0.3875 -0.5825
   40CHL1   C14 2902   5.223   2.280   3.604  0.3014 -0.1848 -0.2956
   40CHL1   H14 2903   5.249   2.172   3.603  0.3242 -0.1786 -0.5891
   40CHL1   C15 2904   5.098   2.299   3.690 -0.1918  0.1981  0.4501
   40CHL1  H15A 2905   5.065   2.403   3.671 -0.1933 -0.3903 -3.6403
   40CHL1  H15B 2906   5.016   2.227   3.673  0.8279 -1.2302  1.3051
   40CHL1   C16 2907   5.160   2.293   3.833 -0.7542  0.5576  0.3343
   40CHL1  H16A 2908   5.127   2.384   3.887 -3.6366 -0.0123 -0.2980
   40CHL1  H16B 2909   5.146   2.193   3.879  4.1737 -0.6626 -0.2562
   40CHL1   C17 2910   5.317   2.298   3.817  0.0922 -0.1904  0.4332
   40CHL1   H17 2911   5.340   2.189   3.814  2.0259  0.2097 -0.3988
   40CHL1   C13 2912   5.339   2.364   3.678  1.1655  0.7981  0.0295
   40CHL1   C18 2913   5.319   2.515   3.674  0.5798 -0.1297 -0.4284
   40CHL1  H18A 2914   5.242   2.545   3.748  1.3514 -1.3703  0.9327
   40CHL1  H18B 2915   5.409   2.568   3.711 -1.9520  2.6077  2.4265
   40CHL1  H18C 2916   5.303   2.559   3.573  1.2817  1.4950  0.1285
   40CHL1   C12 2917   5.462   2.312   3.604 -0.4087 -0.3488  0.1055
   40CHL1  H12A 2918   5.549   2.377   3.628  0.3734 -0.8916 -1.1271
   40CHL1  H12B 2919   5.481   2.203   3.615  2.6298  0.2752  2.4300
   40CHL1   C11 2920   5.461   2.344   3.449  0.1140  0.4535  0.4497
   40CHL1  H11A 2921   5.454   2.455   3.444 -1.9218  0.2951 -1.5423
   40CHL1  H11B 2922   5.550   2.312   3.392  0.8825  1.8064  0.8282
   40CHL1    C9 2923   5.336   2.288   3.379 -0.0709  0.2274 -0.3840
   40CHL1    H9 2924   5.344   2.177   3.377 -2.8126 -0.0216 -1.3793
   40CHL1   C10 2925   5.323   2.331   3.230 -0.0727  0.5341 -0.4369
   40CHL1   C19 2926   5.334   2.487   3.216  0.1517  0.3031  0.1181
   40CHL1  H19A 2927   5.271   2.533   3.294 -0.0400  1.3554 -0.6409
   40CHL1  H19B 2928   5.440   2.514   3.236 -0.4821  2.4410  0.7802
   40CHL1  H19C 2929   5.306   2.523   3.114  1.6648  1.2107 -0.0141
   40CHL1    C1 2930   5.441   2.272   3.157  0.1087 -0.0497 -0.5384
   40CHL1   H1A 2931   5.534   2.325   3.187 -0.2341 -0.4981  1.5229
   40CHL1   H1B 2932   5.445   2.163   3.179 -0.8434  0.0273  0.0647
   40CHL1    C2 2933   5.429   2.276   3.006 -1.0006 -0.4007  0.5805
   40CHL1   H2A 2934   5.507   2.217   2.953 -0.9707 -0.9630  1.2314
   40CHL1   H2B 2935   5.443   2.381   2.974  2.1436 -1.1983 -1.0938
   40CHL1   C20 2936   5.388   2.362   3.937  0.3978  0.3039  0.0665
   40CHL1   H20 2937   5.376   2.472   3.932 -1.3912  0.1028 -1.3085
   40CHL1   C21 2938   5.531   2.310   3.929 -0.3937 -0.4467 -0.1310
   40CHL1  H21A 2939   5.582   2.367   4.010 -1.6106  0.9845 -0.3299
   40CHL1  H21B 2940   5.592   2.342   3.842  3.7197  0.5327  2.8134
   40CHL1  H21C 2941   5.549   2.201   3.938 -0.1864 -0.5025 -1.1593
   40CHL1   C22 2942   5.335   2.322   4.074  0.1749 -0.2509 -0.8679
   40CHL1  H22A 2943   5.225   2.339   4.077 -0.1244 -1.9663  1.7861
   40CHL1  H22B 2944   5.343   2.212   4.087 -1.7392 -0.1454  2.3085
   40CHL1   C23 2945   5.403   2.405   4.181 -0.0059  0.2105 -0.3070
   40CHL1  H23A 2946   5.507   2.374   4.202 -0.0809 -0.8601 -1.3877
   40CHL1  H23B 2947   5.396   2.508   4.139 -0.1680 -0.2989 -1.5802
   40CHL1   C24 2948   5.328   2.402   4.313 -0.0373 -1.6246 -0.5870
   40CHL1  H24A 2949   5.379   2.465   4.389 -0.1974 -2.9765  0.7124
   40CHL1  H24B 2950   5.233   2.455   4.290 -0.0016 -1.4669 -0.3746
   40CHL1   C25 2951   5.288   2.271   4.383 -0.7220  0.4658  0.2363
   40CHL1   H25 2952   5.197   2.237   4.329  1.2124 -0.9364 -2.3278
   40CHL1   C26 2953   5.414   2.170   4.383 -0.1707  0.2859 -0.0673
   40CHL1  H26A 2954   5.392   2.083   4.448  0.8359  1.4951  1.9854
   40CHL1  H26B 2955   5.438   2.140   4.279 -1.5975 -0.7930 -0.1106
   40CHL1  H26C 2956   5.496   2.231   4.427  1.4886 -0.2467 -2.2185
   40CHL1   C27 2957   5.263   2.302   4.529  0.2410  0.6563 -0.1630
   40CHL1  H27A 2958   5.355   2.331   4.584 -0.1449 -1.0806  1.5302
   40CHL1  H27B 2959   5.189   2.385   4.535  0.5383  0.8274  1.5753
   40CHL1  H27C 2960   5.223   2.211   4.578  1.8448  0.3733  0.6817
   41CHL1    C3 2961   3.805   6.433   2.537  0.0009  0.7178 -0.1642
   41CHL1    H3 2962   3.732   6.355   2.564  0.8817  0.4513  1.6085
   41CHL1    O3 2963   3.832   6.447   2.396 -0.2046  0.1141 -0.2001
   41CHL1   H3' 2964   3.899   6.515   2.398 -1.0298  0.9531  1.8068
   41CHL1    C4 2965   3.740   6.568   2.583  0.0700 -0.2515  0.2337
   41CHL1   H4A 2966   3.801   6.658   2.559  1.2421 -1.0842  0.0102
   41CHL1   H4B 2967   3.647   6.584   2.525  0.9694 -1.6961 -1.7329
   41CHL1    C5 2968   3.706   6.573   2.730 -0.7539  0.7488 -0.2278
   41CHL1    C6 2969   3.581   6.584   2.778 -1.1730 -0.1479 -1.0116
   41CHL1    H6 2970   3.495   6.594   2.709 -2.7275  2.8066  1.1147
   41CHL1    C7 2971   3.552   6.599   2.924 -0.3217  0.3011 -0.2628
   41CHL1   H7A 2972   3.472   6.671   2.952  0.3439  0.5605  1.0519
   41CHL1   H7B 2973   3.515   6.502   2.964  1.1999  0.6444  2.2101
   41CHL1    C8 2974   3.684   6.622   3.011  0.3335  1.0077 -0.0013
   41CHL1    H8 2975   3.722   6.725   2.998  0.8538  1.0772  1.7373
   41CHL1   C14 2976   3.656   6.602   3.165 -0.2776 -0.0041  0.5969
   41CHL1   H14 2977   3.616   6.498   3.173 -0.8259  0.1584  0.0006
   41CHL1   C15 2978   3.539   6.688   3.224 -0.2779  0.0103 -0.4971
   41CHL1  H15A 2979   3.543   6.797   3.204 -2.8279  0.1848 -0.3867
   41CHL1  H15B 2980   3.448   6.634   3.190  0.1377 -0.7290 -0.4630
   41CHL1   C16 2981   3.565   6.670   3.378  0.6572  0.2377  0.5074
   41CHL1  H16A 2982   3.589   6.763   3.434  0.2385  0.5249  0.2131
   41CHL1  H16B 2983   3.479   6.614   3.422  0.5149  0.9520  1.1607
   41CHL1   C17 2984   3.692   6.580   3.387 -0.5491 -0.5915 -0.3352
   41CHL1   H17 2985   3.659   6.474   3.391  0.6813 -0.9628  0.8547
   41CHL1   C13 2986   3.774   6.609   3.261 -0.1773  0.1526  0.3998
   41CHL1   C18 2987   3.852   6.742   3.259 -0.2100 -0.2763  0.8925
   41CHL1  H18A 2988   3.900   6.763   3.161 -0.8664 -1.3734  0.3007
   41CHL1  H18B 2989   3.784   6.819   3.300  0.7681  0.2615  1.5176
   41CHL1  H18C 2990   3.939   6.734   3.327  2.0158  0.4739 -1.6978
   41CHL1   C12 2991   3.859   6.496   3.217  0.0574 -0.0197  0.1567
   41CHL1  H12A 2992   3.944   6.491   3.289  0.2539  1.6301  0.0746
   41CHL1  H12B 2993   3.801   6.405   3.243  0.0531  0.3442  1.5042
   41CHL1   C11 2994   3.906   6.511   3.074  0.2134  0.0950  0.3246
   41CHL1  H11A 2995   3.983   6.590   3.063 -0.5520  0.6759 -1.0844
   41CHL1  H11B 2996   3.964   6.418   3.055  0.8189  0.5622 -0.1506
   41CHL1    C9 2997   3.791   6.528   2.967 -0.0379  0.3582 -0.3034
   41CHL1    H9 2998   3.731   6.435   2.972 -2.0062  1.5505 -0.7231
   41CHL1   C10 2999   3.835   6.547   2.815  1.1038 -0.1388 -0.5593
   41CHL1   C19 3000   3.930   6.667   2.808  0.3048 -0.0415 -0.1424
   41CHL1  H19A 3001   3.955   6.685   2.701 -1.1402 -1.2644 -0.7115
   41CHL1  H19B 3002   3.881   6.757   2.851 -1.9336 -1.1456 -0.2738
   41CHL1  H19C 3003   4.025   6.664   2.867  0.6969  1.2753 -0.6586
   41CHL1    C1 3004   3.907   6.415   2.769 -0.3193  0.2225  0.4451
   41CHL1   H1A 3005   4.001   6.401   2.827 -0.1945  1.3415  0.5349
   41CHL1   H1B 3006   3.828   6.343   2.802 -0.1100 -0.8882 -1.3687
   41CHL1    C2 3007   3.935   6.412   2.618 -0.5281  0.5169  0.0421
   41CHL1   H2A 3008   3.980   6.314   2.591  1.2575  1.1735  0.5148
   41CHL1   H2B 3009   3.992   6.501   2.584 -1.8812  1.6438  0.6544
   41CHL1   C20 3010   3.759   6.583   3.533 -0.1255  0.4366  0.1297
   41CHL1   H20 3011   3.808   6.681   3.552 -1.6158  1.3526 -0.5667
   41CHL1   C21 3012   3.866   6.472   3.546 -0.6864 -0.6790  0.2176
   41CHL1  H21A 3013   3.882   6.447   3.653 -2.9784  0.5496  0.8999
   41CHL1  H21B 3014   3.961   6.504   3.497 -0.3341 -1.9762  0.0032
   41CHL1  H21C 3015   3.831   6.374   3.507 -1.1271 -0.9615  1.3120
   41CHL1   C22 3016   3.638   6.558   3.638  0.5681  0.0253 -1.0186
   41CHL1  H22A 3017   3.549   6.621   3.623 -1.2578 -0.9711  3.9422
   41CHL1  H22B 3018   3.602   6.456   3.613  1.7055 -0.5595 -0.3543
   41CHL1   C23 3019   3.670   6.575   3.791 -0.3812  0.5211  0.2886
   41CHL1  H23A 3020   3.768   6.532   3.821 -0.6765  0.3801  1.0628
   41CHL1  H23B 3021   3.674   6.684   3.812 -2.1123  1.0518 -1.7696
   41CHL1   C24 3022   3.571   6.510   3.877  0.6790 -0.1059 -0.6857
   41CHL1  H24A 3023   3.471   6.556   3.863  1.3124  1.4992 -0.1079
   41CHL1  H24B 3024   3.564   6.402   3.852 -1.0744 -0.6991  1.9438
   41CHL1   C25 3025   3.592   6.528   4.034 -0.1616  0.0555 -0.3304
   41CHL1   H25 3026   3.617   6.634   4.053  1.0969 -0.6978  2.7307
   41CHL1   C26 3027   3.463   6.498   4.110  0.1540  0.5897 -0.2354
   41CHL1  H26A 3028   3.378   6.569   4.100 -0.6738 -0.1499  1.2386
   41CHL1  H26B 3029   3.426   6.396   4.085 -1.2653  0.2829  2.7058
   41CHL1  H26C 3030   3.484   6.494   4.219 -1.8242 -0.5578  0.1465
   41CHL1   C27 3031   3.705   6.448   4.083 -1.1525  0.2134  0.1269
   41CHL1  H27A 3032   3.802   6.478   4.038 -1.8831  1.2148 -0.8264
   41CHL1  H27B 3033   3.721   6.444   4.193  0.7486  0.1549 -0.1136
   41CHL1  H27C 3034   3.691   6.340   4.060  2.5420 -0.7885  1.7436
   42CHL1    C3 3035   5.909   4.928   3.000  0.1350  0.6282 -0.1023
   42CHL1    H3 3036   6.016   4.901   3.002 -0.1977 -0.6607  1.4892
   42CHL1    O3 3037   5.877   4.977   2.870  0.0556 -0.1504 -0.2260
   42CHL1   H3' 3038   5.882   4.908   2.804 -2.4662  0.4213 -1.1246
   42CHL1    C4 3039   5.813   4.809   3.027  0.2487 -0.0455  0.1736
   42CHL1   H4A 3040   5.704   4.830   3.018 -0.5349 -4.0927 -3.0997
   42CHL1   H4B 3041   5.809   4.738   2.941  0.3057  1.0971 -0.7918
   42CHL1    C5 3042   5.835   4.754   3.164 -0.2564  0.2634 -0.3355
   42CHL1    C6 3043   5.875   4.629   3.180  0.1981  0.6481 -0.2430
   42CHL1    H6 3044   5.896   4.568   3.092 -0.5126  2.3761 -1.6739
   42CHL1    C7 3045   5.879   4.549   3.309  0.1262  0.0451  0.4500
   42CHL1   H7A 3046   5.805   4.467   3.321  0.0249  0.0627 -0.0127
   42CHL1   H7B 3047   5.984   4.517   3.325  1.0703  1.3801 -2.4127
   42CHL1    C8 3048   5.844   4.645   3.428 -0.5459  0.3606 -0.0902
   42CHL1    H8 3049   5.734   4.632   3.439 -0.4196 -0.8439 -0.1061
   42CHL1   C14 3050   5.910   4.596   3.556  0.0135  0.2047 -0.2648
   42CHL1   H14 3051   6.017   4.612   3.532 -0.4385  1.2668 -1.7010
   42CHL1   C15 3052   5.891   4.442   3.603 -0.3878 -0.3987 -0.0774
   42CHL1  H15A 3053   5.784   4.423   3.581 -0.2595  1.0761 -2.3215
   42CHL1  H15B 3054   5.958   4.369   3.553 -1.0199  0.1968 -1.8658
   42CHL1   C16 3055   5.928   4.462   3.753  0.1527  0.3162 -0.4539
   42CHL1  H16A 3056   5.851   4.414   3.818  0.1186  0.1686 -0.6003
   42CHL1  H16B 3057   6.022   4.403   3.762 -0.9184 -1.2755  0.8610
   42CHL1   C17 3058   5.959   4.607   3.786 -0.3230 -0.0356  0.8010
   42CHL1   H17 3059   6.066   4.614   3.756 -0.1885 -2.8598  0.3849
   42CHL1   C13 3060   5.881   4.678   3.682  0.4298  0.6749 -0.4745
   42CHL1   C18 3061   5.733   4.655   3.713  0.3882 -0.1800  0.0013
   42CHL1  H18A 3062   5.708   4.711   3.806  2.7239 -0.4273  0.8408
   42CHL1  H18B 3063   5.655   4.676   3.637  1.1157 -1.2694 -1.0690
   42CHL1  H18C 3064   5.707   4.550   3.739 -0.7765  0.5048  1.7951
   42CHL1   C12 3065   5.925   4.824   3.657 -0.7383  0.5333 -0.0771
   42CHL1  H12A 3066   5.908   4.887   3.747  0.6343 -0.1739  0.7110
   42CHL1  H12B 3067   6.036   4.829   3.646 -0.5181 -0.6543  1.3307
   42CHL1   C11 3068   5.840   4.879   3.533  0.3236  0.4218  0.4051
   42CHL1  H11A 3069   5.731   4.876   3.554 -0.2327 -0.9465 -2.2184
   42CHL1  H11B 3070   5.876   4.984   3.520 -0.9141  0.7815 -0.2846
   42CHL1    C9 3071   5.878   4.794   3.411  0.6686 -0.0925 -0.2885
   42CHL1    H9 3072   5.988   4.784   3.402  0.7776 -2.8503  2.4811
   42CHL1   C10 3073   5.822   4.860   3.276  0.0357  0.4205 -0.1342
   42CHL1   C19 3074   5.670   4.894   3.292 -0.1001  0.2597 -0.0147
   42CHL1  H19A 3075   5.641   4.951   3.382  0.9568  1.0180 -0.1334
   42CHL1  H19B 3076   5.623   4.944   3.205 -0.9910  0.2267  0.4352
   42CHL1  H19C 3077   5.616   4.798   3.310 -0.2319  0.8263  3.0771
   42CHL1    C1 3078   5.915   4.983   3.247 -0.1164  0.1979 -0.5751
   42CHL1   H1A 3079   5.886   5.057   3.325  1.8105 -2.1147  2.5877
   42CHL1   H1B 3080   6.021   4.963   3.272 -0.3355  0.7351  0.8931
   42CHL1    C2 3081   5.887   5.038   3.106 -0.9178  0.2874  0.0760
   42CHL1   H2A 3082   5.937   5.134   3.081 -2.4767  1.2363  0.3902
   42CHL1   H2B 3083   5.780   5.069   3.103 -0.7456  1.0441  1.0249
   42CHL1   C20 3084   5.953   4.648   3.939  0.2011 -0.0840 -0.1790
   42CHL1   H20 3085   5.864   4.712   3.957  0.0009 -0.5446  0.5190
   42CHL1   C21 3086   6.081   4.736   3.966 -0.0894  0.4973 -0.3546
   42CHL1  H21A 3087   6.071   4.773   4.070  0.2638  0.6051 -0.3604
   42CHL1  H21B 3088   6.089   4.825   3.900 -2.9014 -0.5267 -2.3052
   42CHL1  H21C 3089   6.174   4.678   3.955 -1.3061 -1.5940 -0.1097
   42CHL1   C22 3090   5.948   4.529   4.042 -0.6710  0.2998  0.5804
   42CHL1  H22A 3091   5.863   4.463   4.017  0.3531 -0.3179 -1.4802
   42CHL1  H22B 3092   6.049   4.484   4.035 -0.8037  0.0814  0.0683
   42CHL1   C23 3093   5.927   4.575   4.187  0.1485 -0.8823 -0.1202
   42CHL1  H23A 3094   5.995   4.654   4.225 -0.5587  1.1231 -2.7944
   42CHL1  H23B 3095   5.821   4.598   4.211  0.1753 -1.3839  0.5060
   42CHL1   C24 3096   5.950   4.443   4.275 -0.5702 -0.2703  0.3172
   42CHL1  H24A 3097   5.888   4.361   4.235 -0.0726 -0.0193 -1.0214
   42CHL1  H24B 3098   6.058   4.421   4.262 -0.7601 -0.7560 -0.5505
   42CHL1   C25 3099   5.920   4.463   4.429 -0.0837 -0.2721  0.5057
   42CHL1   H25 3100   5.959   4.565   4.453 -0.8948  0.1146  0.2183
   42CHL1   C26 3101   5.772   4.468   4.465  0.0128  0.3249 -0.4073
   42CHL1  H26A 3102   5.739   4.364   4.482 -2.1562  0.9507 -0.5034
   42CHL1  H26B 3103   5.769   4.517   4.565 -3.4462 -1.2476  0.3965
   42CHL1  H26C 3104   5.704   4.526   4.399 -0.3444  0.7749  0.3429
   42CHL1   C27 3105   5.997   4.370   4.511  0.0658 -0.1457  0.0405
   42CHL1  H27A 3106   5.979   4.385   4.620  0.2259  0.2237  0.0171
   42CHL1  H27B 3107   5.970   4.265   4.484 -1.4886  0.2719 -0.0741
   42CHL1  H27C 3108   6.106   4.389   4.495  0.5653 -2.2925  0.4903
   43CHL1    C3 3109   1.689   5.683   2.831  0.4567  0.4203  0.3916
   43CHL1    H3 3110   1.585   5.710   2.861  1.1699  1.7445  1.8701
   43CHL1    O3 3111   1.695   5.599   2.718  0.8489 -0.0264  0.3660
   43CHL1   H3' 3112   1.663   5.655   2.646 -3.1494 -0.7815  1.2804
   43CHL1    C4 3113   1.760   5.819   2.801 -0.2737 -0.2572  0.1795
   43CHL1   H4A 3114   1.870   5.813   2.784  0.5813  2.9819  3.3512
   43CHL1   H4B 3115   1.716   5.854   2.705 -0.0112 -1.2637 -0.3233
   43CHL1    C5 3116   1.743   5.912   2.919 -0.8209 -0.6723  0.2294
   43CHL1    C6 3117   1.696   6.039   2.905  0.0596  0.7025  0.1629
   43CHL1    H6 3118   1.665   6.080   2.807 -0.5630  0.2157  0.1512
   43CHL1    C7 3119   1.692   6.133   3.025 -0.2010  0.4507 -0.0230
   43CHL1   H7A 3120   1.746   6.227   2.998  1.9270 -0.9566 -0.9019
   43CHL1   H7B 3121   1.590   6.173   3.045 -0.8546 -1.9129  1.7388
   43CHL1    C8 3122   1.759   6.077   3.155 -0.0828  0.4491 -0.4753
   43CHL1    H8 3123   1.868   6.091   3.140  0.0809 -0.6189 -0.3353
   43CHL1   C14 3124   1.707   6.152   3.277  0.2124 -0.3693 -0.5191
   43CHL1   H14 3125   1.597   6.134   3.280  0.1706 -0.9072 -2.8702
   43CHL1   C15 3126   1.716   6.301   3.275  0.1438 -0.2522  0.3256
   43CHL1  H15A 3127   1.814   6.330   3.232  0.0749  1.1885  1.0707
   43CHL1  H15B 3128   1.643   6.350   3.207  0.5828  0.6764  0.5151
   43CHL1   C16 3129   1.695   6.340   3.421  0.5314  0.2169  0.3955
   43CHL1  H16A 3130   1.785   6.399   3.448  0.4680 -0.0801  1.2700
   43CHL1  H16B 3131   1.603   6.400   3.440  0.4192  0.5431 -1.0455
   43CHL1   C17 3132   1.701   6.209   3.508 -0.9268 -0.2636 -0.3330
   43CHL1   H17 3133   1.598   6.172   3.528 -0.4354 -0.2032  2.6747
   43CHL1   C13 3134   1.772   6.109   3.408  0.3957  0.4401 -0.4937
   43CHL1   C18 3135   1.923   6.133   3.417  0.9092  0.0323  0.0422
   43CHL1  H18A 3136   1.943   6.241   3.425  0.7003  0.1303 -0.7096
   43CHL1  H18B 3137   1.960   6.102   3.518 -0.7081  0.5599  0.8303
   43CHL1  H18C 3138   1.980   6.075   3.342  1.2307 -0.5091  0.6951
   43CHL1   C12 3139   1.736   5.954   3.431 -0.0924 -1.1018 -0.2564
   43CHL1  H12A 3140   1.796   5.920   3.518 -1.6325 -2.9864  0.1237
   43CHL1  H12B 3141   1.631   5.936   3.462  0.0581 -0.8092  0.4274
   43CHL1   C11 3142   1.785   5.872   3.316  0.3219 -0.2654 -0.7119
   43CHL1  H11A 3143   1.896   5.873   3.322  0.3105 -1.1776 -0.2655
   43CHL1  H11B 3144   1.743   5.769   3.326  1.0643 -0.4336  0.8609
   43CHL1    C9 3145   1.736   5.931   3.175  0.4484  0.0646 -0.5167
   43CHL1    H9 3146   1.626   5.922   3.168  0.2157  2.0002 -0.1259
   43CHL1   C10 3147   1.783   5.852   3.055  0.0967  0.1194 -0.0533
   43CHL1   C19 3148   1.939   5.852   3.056  0.0033 -0.2105  0.4142
   43CHL1  H19A 3149   1.978   5.794   3.143  2.1955  0.5364  0.0009
   43CHL1  H19B 3150   1.983   5.800   2.968  2.2983 -0.6497  1.7468
   43CHL1  H19C 3151   1.989   5.951   3.054 -1.0925  0.3536 -0.7033
   43CHL1    C1 3152   1.737   5.708   3.072  0.6983  0.2563 -0.5602
   43CHL1   H1A 3153   1.791   5.665   3.159  0.0602  0.3999 -0.0865
   43CHL1   H1B 3154   1.632   5.712   3.107  0.5935 -0.1124 -0.8267
   43CHL1    C2 3155   1.750   5.617   2.952 -0.2740  0.3327 -0.0188
   43CHL1   H2A 3156   1.697   5.522   2.970 -0.1311  0.2141 -0.2164
   43CHL1   H2B 3157   1.855   5.592   2.925 -0.5901 -1.4524  0.3448
   43CHL1   C20 3158   1.770   6.228   3.642  0.4100  0.0175 -0.2249
   43CHL1   H20 3159   1.878   6.253   3.643  1.1082 -2.6204  1.1332
   43CHL1   C21 3160   1.753   6.112   3.742  0.1258  0.1280 -0.0427
   43CHL1  H21A 3161   1.645   6.086   3.746  0.4815 -1.3130  0.8466
   43CHL1  H21B 3162   1.788   6.133   3.846 -1.3294  1.5335  0.2094
   43CHL1  H21C 3163   1.807   6.020   3.711  1.7580  0.6383  1.1448
   43CHL1   C22 3164   1.713   6.353   3.718 -0.0228  0.6541  0.4558
   43CHL1  H22A 3165   1.677   6.439   3.657  2.4895  0.2544 -1.7841
   43CHL1  H22B 3166   1.629   6.311   3.777  0.7446 -0.9558  0.4695
   43CHL1   C23 3167   1.807   6.416   3.819 -1.2013  0.5103  0.1821
   43CHL1  H23A 3168   1.850   6.341   3.889  2.5170  3.6866  1.7050
   43CHL1  H23B 3169   1.896   6.462   3.770 -0.1808 -0.9004  0.6463
   43CHL1   C24 3170   1.737   6.524   3.899 -0.1520 -0.3036  0.8187
   43CHL1  H24A 3171   1.806   6.610   3.907 -0.9683  0.5280 -0.5117
   43CHL1  H24B 3172   1.654   6.562   3.835 -0.0274 -1.1485  0.1406
   43CHL1   C25 3173   1.705   6.496   4.043 -0.2393 -0.1386  0.5534
   43CHL1   H25 3174   1.794   6.453   4.094  0.0021  0.6438  0.8122
   43CHL1   C26 3175   1.675   6.637   4.108 -0.6769 -0.7218 -0.0853
   43CHL1  H26A 3176   1.667   6.623   4.218  0.5220  0.3071  0.1514
   43CHL1  H26B 3177   1.759   6.709   4.098 -2.4019  1.7694  1.9677
   43CHL1  H26C 3178   1.576   6.680   4.081  0.1295  0.6414 -0.9850
   43CHL1   C27 3179   1.589   6.396   4.070 -0.4041  0.1603 -0.0188
   43CHL1  H27A 3180   1.495   6.427   4.018 -0.1854  1.1903  0.1743
   43CHL1  H27B 3181   1.621   6.299   4.027  0.3053  1.7240 -3.2877
   43CHL1  H27C 3182   1.573   6.395   4.180  0.6169  3.0236  0.2268
   44CHL1    C3 3183   5.745   5.767   2.745  1.1899 -0.1187  0.4795
   44CHL1    H3 3184   5.806   5.860   2.742 -0.4077  0.9377 -0.9759
   44CHL1    O3 3185   5.749   5.717   2.615 -0.1190 -0.3349 -0.1413
   44CHL1   H3' 3186   5.816   5.649   2.620 -0.2316 -0.4503 -0.1746
   44CHL1    C4 3187   5.801   5.662   2.836  0.2527  0.0619 -0.2398
   44CHL1   H4A 3188   5.739   5.570   2.826 -1.1405  0.9611  0.0225
   44CHL1   H4B 3189   5.904   5.642   2.797 -0.1542  2.2013 -2.6929
   44CHL1    C5 3190   5.807   5.697   2.981  1.3867  0.1697  0.5785
   44CHL1    C6 3191   5.921   5.717   3.036 -1.2599 -0.4628 -0.0060
   44CHL1    H6 3192   6.010   5.701   2.973 -2.2912 -0.4626 -1.5241
   44CHL1    C7 3193   5.929   5.748   3.186 -0.8840 -1.2244 -0.2500
   44CHL1   H7A 3194   6.006   5.686   3.237 -0.4745  0.9340  1.9743
   44CHL1   H7B 3195   5.968   5.851   3.201 -0.9197 -1.2572  0.0780
   44CHL1    C8 3196   5.795   5.738   3.257  0.0699  0.4269  0.0442
   44CHL1    H8 3197   5.791   5.628   3.271 -0.9155  0.4743  0.1918
   44CHL1   C14 3198   5.793   5.801   3.393  0.1000 -0.0041 -0.0548
   44CHL1   H14 3199   5.791   5.908   3.365 -1.6377 -0.5065 -2.1490
   44CHL1   C15 3200   5.913   5.781   3.480  0.5164 -0.2547  0.1867
   44CHL1  H15A 3201   5.944   5.675   3.490  0.4798 -0.2743  0.0973
   44CHL1  H15B 3202   5.998   5.841   3.441 -1.5725  2.6744 -0.2315
   44CHL1   C16 3203   5.861   5.826   3.617  0.0389 -0.2865 -0.2661
   44CHL1  H16A 3204   5.887   5.751   3.695 -1.1601  0.9294  1.3671
   44CHL1  H16B 3205   5.911   5.920   3.649 -2.3080  1.2990 -0.9931
   44CHL1   C17 3206   5.707   5.852   3.605  0.0320 -0.4854 -0.4971
   44CHL1   H17 3207   5.705   5.962   3.590 -1.7448 -0.1770  1.5412
   44CHL1   C13 3208   5.667   5.783   3.476  0.0420 -0.0675  0.3249
   44CHL1   C18 3209   5.636   5.633   3.507 -0.2602  0.6802  0.2901
   44CHL1  H18A 3210   5.718   5.599   3.575  0.3458  2.2971  0.4278
   44CHL1  H18B 3211   5.541   5.619   3.562 -0.9014 -1.7166 -1.3331
   44CHL1  H18C 3212   5.631   5.571   3.416  0.4372 -2.3526  2.1831
   44CHL1   C12 3213   5.550   5.852   3.396  0.3140  0.0023  0.3714
   44CHL1  H12A 3214   5.448   5.836   3.439 -0.1516 -2.4581 -1.4079
   44CHL1  H12B 3215   5.567   5.961   3.387  0.7530  0.0423  1.5443
   44CHL1   C11 3216   5.543   5.790   3.254 -0.2706  0.2258 -0.2230
   44CHL1  H11A 3217   5.520   5.685   3.281  0.2720 -0.1237 -1.0736
   44CHL1  H11B 3218   5.458   5.832   3.197 -0.2475  0.2203 -0.2621
   44CHL1    C9 3219   5.679   5.797   3.173 -0.3778  0.4787 -0.4069
   44CHL1    H9 3220   5.707   5.903   3.154 -0.2876  0.5918  0.3549
   44CHL1   C10 3221   5.664   5.730   3.031  0.5580  0.3074 -0.1528
   44CHL1   C19 3222   5.601   5.589   3.048  0.0788 -0.0991  0.6588
   44CHL1  H19A 3223   5.494   5.599   3.075 -0.0151 -0.3451  0.3859
   44CHL1  H19B 3224   5.600   5.535   2.951 -0.0257  0.2115  0.4853
   44CHL1  H19C 3225   5.653   5.536   3.131 -0.5007 -0.4479  0.8052
   44CHL1    C1 3226   5.583   5.826   2.934 -0.2493 -0.1295 -0.3790
   44CHL1   H1A 3227   5.477   5.827   2.965 -1.1692 -2.8808 -3.0067
   44CHL1   H1B 3228   5.626   5.927   2.953 -1.1458  0.2223 -0.2027
   44CHL1    C2 3229   5.598   5.785   2.787  0.1728 -0.1917 -0.2621
   44CHL1   H2A 3230   5.546   5.862   2.726 -0.8320 -0.1078  0.6733
   44CHL1   H2B 3231   5.543   5.690   2.769 -0.9614  0.1345  1.2730
   44CHL1   C20 3232   5.622   5.824   3.731 -0.0115  0.0766  0.2532
   44CHL1   H20 3233   5.584   5.720   3.729  1.7259 -0.5911  0.6234
   44CHL1   C21 3234   5.502   5.920   3.723  0.6615  0.2426  0.0402
   44CHL1  H21A 3235   5.431   5.906   3.808  0.8121 -2.8180 -0.2341
   44CHL1  H21B 3236   5.450   5.893   3.628 -1.3183  0.3295  1.0348
   44CHL1  H21C 3237   5.531   6.027   3.725 -2.4573  1.2199 -0.5728
   44CHL1   C22 3238   5.697   5.865   3.858  0.0263  0.0828  0.4108
   44CHL1  H22A 3239   5.798   5.819   3.863  0.4445  1.0832  1.6140
   44CHL1  H22B 3240   5.706   5.976   3.864 -0.7073  0.3293 -2.0730
   44CHL1   C23 3241   5.625   5.818   3.989  0.2588  0.6443 -0.0171
   44CHL1  H23A 3242   5.514   5.819   3.980  0.1318 -4.0533 -1.8900
   44CHL1  H23B 3243   5.645   5.708   3.992  0.0058  0.6022  0.1763
   44CHL1   C24 3244   5.667   5.891   4.120 -0.2290  0.0989 -0.1458
   44CHL1  H24A 3245   5.778   5.889   4.121 -0.1905  1.4023  0.2397
   44CHL1  H24B 3246   5.638   5.998   4.114 -0.6928 -0.0307 -0.2527
   44CHL1   C25 3247   5.611   5.847   4.253  0.0817  0.8477 -0.2347
   44CHL1   H25 3248   5.665   5.906   4.330  2.5910 -2.5650  0.8854
   44CHL1   C26 3249   5.456   5.862   4.260  0.0378  0.3661 -0.4989
   44CHL1  H26A 3250   5.421   5.845   4.364  1.1551 -0.2453 -0.2164
   44CHL1  H26B 3251   5.433   5.970   4.244 -0.0960  0.2998 -0.7638
   44CHL1  H26C 3252   5.401   5.800   4.186  3.4690 -1.8138 -1.4440
   44CHL1   C27 3253   5.639   5.702   4.283 -0.0187  0.0212 -1.2926
   44CHL1  H27A 3254   5.585   5.671   4.375 -1.5519  2.7002 -1.2040
   44CHL1  H27B 3255   5.619   5.625   4.205  0.1052 -1.8051  0.3691
   44CHL1  H27C 3256   5.747   5.706   4.310 -0.3860  2.8580  0.1010
   45CHL1    C3 3257   0.089   6.020   2.811  0.5527  0.2805  0.3156
   45CHL1    H3 3258   0.196   6.052   2.816  1.7519 -3.3207  0.0543
   45CHL1    O3 3259   0.037   5.982   2.684  0.4478 -0.3328 -0.1658
   45CHL1   H3' 3260   0.073   5.897   2.658 -2.1832 -1.0848 -1.6158
   45CHL1    C4 3261   0.070   5.890   2.893 -0.1095 -0.3873  0.0475
   45CHL1   H4A 3262  -0.034   5.851   2.896  0.0825 -1.0779 -1.3635
   45CHL1   H4B 3263   0.128   5.806   2.850 -0.1364  0.1980 -1.1695
   45CHL1    C5 3264   0.103   5.907   3.038 -0.0679 -0.2775  0.3525
   45CHL1    C6 3265   0.195   5.839   3.099 -0.7284 -0.1222 -0.2190
   45CHL1    H6 3266   0.251   5.764   3.041  0.2733  0.0251  0.5356
   45CHL1    C7 3267   0.227   5.860   3.246  0.3025  0.0488  0.2331
   45CHL1   H7A 3268   0.247   5.756   3.280  2.1983 -0.3791 -1.9401
   45CHL1   H7B 3269   0.311   5.930   3.264 -0.2202  0.4836  1.0559
   45CHL1    C8 3270   0.107   5.926   3.323 -0.3261 -0.4399 -0.0436
   45CHL1    H8 3271   0.029   5.848   3.334 -1.1701  0.4276  0.2353
   45CHL1   C14 3272   0.149   5.963   3.467  0.1052  0.2187 -0.3459
   45CHL1   H14 3273   0.219   6.048   3.455 -1.5821  1.3704 -3.0764
   45CHL1   C15 3274   0.208   5.853   3.557  0.1694 -0.0876 -0.0057
   45CHL1  H15A 3275   0.147   5.761   3.546 -0.0936  0.1943 -0.9674
   45CHL1  H15B 3276   0.315   5.827   3.546  0.5897  1.7009 -0.6097
   45CHL1   C16 3277   0.197   5.912   3.709  0.4933  0.0842  0.2690
   45CHL1  H16A 3278   0.145   5.838   3.773  0.1294  0.8465  0.8729
   45CHL1  H16B 3279   0.302   5.929   3.743  1.8988 -3.4815 -1.7678
   45CHL1   C17 3280   0.123   6.041   3.703  0.6877 -0.0990  0.6894
   45CHL1   H17 3281   0.202   6.117   3.681  1.8723 -1.4321  0.2000
   45CHL1   C13 3282   0.049   6.035   3.563  0.1273  1.4846 -0.1689
   45CHL1   C18 3283  -0.073   5.950   3.587 -0.4715  0.1827  0.0753
   45CHL1  H18A 3284  -0.162   6.016   3.588  0.1504  1.1272 -2.1231
   45CHL1  H18B 3285  -0.082   5.890   3.494 -1.4668 -0.5641  0.6329
   45CHL1  H18C 3286  -0.075   5.888   3.679  2.5574  0.3704  0.3585
   45CHL1   C12 3287   0.007   6.166   3.488  0.2816 -0.2226 -0.8036
   45CHL1  H12A 3288  -0.086   6.201   3.538 -0.0486  0.5969 -1.9511
   45CHL1  H12B 3289   0.087   6.240   3.510 -0.8109  0.2799  1.8650
   45CHL1   C11 3290  -0.042   6.139   3.340 -0.3320  0.0576  0.3774
   45CHL1  H11A 3291  -0.142   6.092   3.357  0.2873 -1.2986  0.4451
   45CHL1  H11B 3292  -0.055   6.239   3.295  1.8187  0.1319 -0.1925
   45CHL1    C9 3293   0.055   6.050   3.250  0.6829  0.3011 -0.1873
   45CHL1    H9 3294   0.145   6.115   3.251 -1.0488  2.9052 -1.8934
   45CHL1   C10 3295   0.013   6.018   3.104 -0.0997 -0.2023  0.3634
   45CHL1   C19 3296  -0.138   5.980   3.101  0.3099  0.2201  0.4916
   45CHL1  H19A 3297  -0.191   5.975   3.003  0.7865  1.0013  0.1783
   45CHL1  H19B 3298  -0.146   5.883   3.154 -0.1067 -1.5974 -2.6294
   45CHL1  H19C 3299  -0.201   6.058   3.150 -3.4073 -2.0659 -0.2831
   45CHL1    C1 3300   0.033   6.149   3.014  0.6821  0.4138 -0.0998
   45CHL1   H1A 3301  -0.032   6.233   3.047 -1.3609 -1.0616 -0.1884
   45CHL1   H1B 3302   0.139   6.178   3.028  0.7571 -0.2955  0.8760
   45CHL1    C2 3303   0.000   6.130   2.868 -0.8155 -0.3797 -0.5043
   45CHL1   H2A 3304   0.023   6.224   2.814 -2.6958  0.9777  0.9255
   45CHL1   H2B 3305  -0.108   6.117   2.849 -1.4620  2.4121  0.8260
   45CHL1   C20 3306   0.042   6.088   3.823 -1.3251  1.0496 -0.3398
   45CHL1   H20 3307  -0.053   6.033   3.836 -1.3317  1.7109  4.1025
   45CHL1   C21 3308   0.009   6.239   3.807  0.1304  0.2042  0.3372
   45CHL1  H21A 3309   0.097   6.297   3.772 -0.2872 -0.1357 -1.3561
   45CHL1  H21B 3310  -0.028   6.287   3.900 -1.0049 -0.7798  0.4147
   45CHL1  H21C 3311  -0.058   6.265   3.723  4.1018 -0.1364 -3.2820
   45CHL1   C22 3312   0.117   6.073   3.964 -0.1570  0.6980 -0.1744
   45CHL1  H22A 3313   0.181   5.982   3.971  0.6167  1.3301  1.5382
   45CHL1  H22B 3314   0.197   6.149   3.973  2.1948 -1.6719  0.1142
   45CHL1   C23 3315   0.014   6.070   4.087  0.1887  1.0899 -0.5500
   45CHL1  H23A 3316   0.069   6.061   4.183 -2.5281  1.9040  1.2128
   45CHL1  H23B 3317  -0.044   6.165   4.094  0.2036  1.1386 -1.0318
   45CHL1   C24 3318  -0.070   5.938   4.085  0.4985  0.3998  0.0278
   45CHL1  H24A 3319  -0.127   5.934   3.990 -0.4996  1.4754  0.5496
   45CHL1  H24B 3320   0.001   5.853   4.078 -1.1740 -0.9414 -1.1528
   45CHL1   C25 3321  -0.170   5.930   4.196 -1.1917  0.3524 -0.2762
   45CHL1   H25 3322  -0.118   5.937   4.294 -0.2051  0.1450 -0.7817
   45CHL1   C26 3323  -0.269   6.047   4.201 -0.4452 -0.4173  0.5209
   45CHL1  H26A 3324  -0.359   6.031   4.264 -1.1382 -1.0575 -0.5986
   45CHL1  H26B 3325  -0.219   6.141   4.231 -0.5581  0.4139 -1.6911
   45CHL1  H26C 3326  -0.319   6.075   4.106 -1.1477  1.9351  1.5161
   45CHL1   C27 3327  -0.247   5.800   4.194  0.3251  0.1389  0.0292
   45CHL1  H27A 3328  -0.324   5.812   4.273 -2.7079  0.4731 -2.8132
   45CHL1  H27B 3329  -0.306   5.786   4.102 -0.2022 -1.8561  0.6213
   45CHL1  H27C 3330  -0.193   5.703   4.206 -1.6863 -0.9596  0.5704
   46CHL1    C3 3331   3.669   0.130   2.611  0.1982  0.0227 -0.5508
   46CHL1    H3 3332   3.686   0.021   2.623 -1.6067 -0.4407 -1.7842
   46CHL1    O3 3333   3.721   0.160   2.483  0.2007  0.4410 -0.0798
   46CHL1   H3' 3334   3.720   0.256   2.480 -0.9790  0.6050  2.6790
   46CHL1    C4 3335   3.520   0.177   2.604 -0.0851 -0.8526 -0.9425
   46CHL1   H4A 3336   3.517   0.275   2.553  0.2122 -0.5277 -0.3569
   46CHL1   H4B 3337   3.469   0.096   2.548  1.7498 -3.2439  0.5869
   46CHL1    C5 3338   3.451   0.194   2.740 -0.0970  0.2307 -0.2723
   46CHL1    C6 3339   3.331   0.136   2.761  0.1879  0.1514 -0.3354
   46CHL1    H6 3340   3.278   0.091   2.675  0.1674 -0.4969  0.0111
   46CHL1    C7 3341   3.254   0.137   2.889 -0.0039 -0.1661  0.0359
   46CHL1   H7A 3342   3.149   0.170   2.872 -0.2985 -1.2671 -0.4118
   46CHL1   H7B 3343   3.250   0.037   2.938  0.2640 -1.0217 -1.6251
   46CHL1    C8 3344   3.318   0.237   2.994 -0.2780 -0.1903  0.1802
   46CHL1    H8 3345   3.292   0.340   2.962  0.6271 -0.1424 -0.4422
   46CHL1   C14 3346   3.269   0.206   3.134 -0.2584 -0.7896  0.2612
   46CHL1   H14 3347   3.324   0.116   3.169 -0.2172 -0.9233 -0.1394
   46CHL1   C15 3348   3.116   0.183   3.148 -0.7810  0.1645  0.0073
   46CHL1  H15A 3349   3.060   0.251   3.079 -1.5914  0.7086  1.1687
   46CHL1  H15B 3350   3.083   0.079   3.126  0.4888 -0.0968 -0.7768
   46CHL1   C16 3351   3.092   0.226   3.293  0.2226  0.0455 -0.0862
   46CHL1  H16A 3352   3.013   0.303   3.287  0.9257  0.7803 -0.1420
   46CHL1  H16B 3353   3.057   0.144   3.360  2.2020 -0.5618  0.3014
   46CHL1   C17 3354   3.230   0.280   3.359  0.1699 -0.1647 -0.5134
   46CHL1   H17 3355   3.282   0.194   3.407  1.0511  1.0761  0.8399
   46CHL1   C13 3356   3.308   0.320   3.233  0.2843 -0.6129 -0.9778
   46CHL1   C18 3357   3.249   0.459   3.194 -1.0108 -0.1171 -0.8982
   46CHL1  H18A 3358   3.140   0.453   3.176 -0.8006  1.4212 -3.1698
   46CHL1  H18B 3359   3.268   0.537   3.271 -2.0238  0.5376 -1.2867
   46CHL1  H18C 3360   3.310   0.501   3.111  2.2950 -0.8024  1.0030
   46CHL1   C12 3361   3.465   0.325   3.240 -0.0881  0.1890  0.0238
   46CHL1  H12A 3362   3.496   0.412   3.303 -1.8591  0.2753  0.8350
   46CHL1  H12B 3363   3.491   0.226   3.283 -0.0247 -0.2450 -0.9965
   46CHL1   C11 3364   3.527   0.331   3.101  0.1065  0.7932 -0.0432
   46CHL1  H11A 3365   3.504   0.434   3.065  1.3974  0.7427 -1.1225
   46CHL1  H11B 3366   3.638   0.324   3.099  0.2196  1.6288  1.6799
   46CHL1    C9 3367   3.471   0.239   2.992  0.4250 -0.1646 -0.3078
   46CHL1    H9 3368   3.496   0.137   3.029 -1.7642 -0.1582  1.3355
   46CHL1   C10 3369   3.530   0.264   2.849 -0.2597 -0.5049 -0.2083
   46CHL1   C19 3370   3.525   0.425   2.818  0.5955  0.7143  0.2132
   46CHL1  H19A 3371   3.427   0.465   2.851  0.0739 -0.8674  0.6733
   46CHL1  H19B 3372   3.608   0.467   2.879  2.3242 -1.2237 -0.6830
   46CHL1  H19C 3373   3.549   0.445   2.712 -2.6778  0.3851 -0.7008
   46CHL1    C1 3374   3.679   0.224   2.845 -0.2725 -0.9567 -0.0624
   46CHL1   H1A 3375   3.740   0.293   2.907 -2.7849  2.2625 -0.9282
   46CHL1   H1B 3376   3.695   0.123   2.891  1.9633  0.0524  1.6061
   46CHL1    C2 3377   3.752   0.213   2.708  1.0112  0.5291  0.4485
   46CHL1   H2A 3378   3.851   0.170   2.732  1.5062  1.6143  0.4426
   46CHL1   H2B 3379   3.773   0.318   2.677  2.9357 -0.3584 -1.5469
   46CHL1   C20 3380   3.205   0.382   3.474  0.2000 -0.8257  0.1616
   46CHL1   H20 3381   3.145   0.467   3.434 -1.3649 -0.7227  2.5540
   46CHL1   C21 3382   3.330   0.453   3.537  0.0260  0.1060 -0.5132
   46CHL1  H21A 3383   3.308   0.524   3.620  0.4194 -1.1090  0.6541
   46CHL1  H21B 3384   3.385   0.512   3.460  1.7223 -0.7520 -0.0093
   46CHL1  H21C 3385   3.401   0.373   3.565 -0.6366 -0.6196 -0.8858
   46CHL1   C22 3386   3.120   0.314   3.583  0.0918  0.9707  0.1604
   46CHL1  H22A 3387   3.097   0.387   3.664  1.3521 -1.0572  2.4638
   46CHL1  H22B 3388   3.020   0.282   3.546  0.6932 -1.2289  0.3410
   46CHL1   C23 3389   3.183   0.198   3.656 -0.3067  0.0311  1.1006
   46CHL1  H23A 3390   3.182   0.109   3.590  0.1708 -0.3056  1.5464
   46CHL1  H23B 3391   3.290   0.219   3.680 -0.1729  0.1660  0.4064
   46CHL1   C24 3392   3.126   0.170   3.790  0.2558  0.8516 -0.4828
   46CHL1  H24A 3393   3.153   0.253   3.860 -1.3782  0.0407  1.1805
   46CHL1  H24B 3394   3.015   0.176   3.784  0.2413  0.3458 -0.7023
   46CHL1   C25 3395   3.171   0.029   3.839 -0.1230 -0.4611 -0.6210
   46CHL1   H25 3396   3.282   0.029   3.846  0.1960  1.5865 -3.7918
   46CHL1   C26 3397   3.114   0.011   3.990  0.7329 -0.1341  0.0591
   46CHL1  H26A 3398   3.005   0.018   4.010  0.9275  0.4539  0.9647
   46CHL1  H26B 3399   3.140  -0.093   4.018 -0.4807 -0.6588 -0.6986
   46CHL1  H26C 3400   3.152   0.085   4.064  2.1576 -0.5860 -0.2009
   46CHL1   C27 3401   3.135  -0.092   3.753 -0.3260  0.2929  0.2067
   46CHL1  H27A 3402   3.027  -0.088   3.729 -0.1293 -1.1087 -1.0354
   46CHL1  H27B 3403   3.178  -0.088   3.650 -0.9295  0.1432 -0.0527
   46CHL1  H27C 3404   3.156  -0.187   3.806 -0.6456  0.6580  0.9994
   47CHL1    C3 3405   1.207   1.165   2.777 -0.1614  0.0008  0.4025
   47CHL1    H3 3406   1.183   1.090   2.855 -0.9977 -0.5683 -0.3777
   47CHL1    O3 3407   1.197   1.106   2.644  0.6631  0.2383  0.5335
   47CHL1   H3' 3408   1.262   1.149   2.587 -1.7778  1.9002 -1.1852
   47CHL1    C4 3409   1.117   1.287   2.798  0.4623  0.0891  0.6140
   47CHL1   H4A 3410   1.147   1.370   2.729  2.7077  0.2695  1.7267
   47CHL1   H4B 3411   1.014   1.270   2.762  0.9476  1.0665 -1.4319
   47CHL1    C5 3412   1.125   1.333   2.943 -0.4103  0.3668  0.5251
   47CHL1    C6 3413   1.011   1.327   3.020 -0.5239  0.7361  0.1566
   47CHL1    H6 3414   0.919   1.310   2.962 -1.1055  2.5426  0.4747
   47CHL1    C7 3415   1.015   1.364   3.162 -0.3285  0.0198  0.0212
   47CHL1   H7A 3416   0.931   1.431   3.190  0.5157  1.1038 -0.0188
   47CHL1   H7B 3417   1.007   1.265   3.213 -2.7310 -0.9792 -2.0359
   47CHL1    C8 3418   1.129   1.452   3.215 -0.2822  0.1550  0.5835
   47CHL1    H8 3419   1.110   1.555   3.176 -0.9172 -0.2594 -0.2358
   47CHL1   C14 3420   1.144   1.464   3.367  0.4278  0.1982 -0.3511
   47CHL1   H14 3421   1.151   1.363   3.411 -1.3492  0.0538 -0.3283
   47CHL1   C15 3422   1.024   1.525   3.446 -0.0640  0.3584 -0.5168
   47CHL1  H15A 3423   0.976   1.614   3.398  0.5303  2.4209  2.3909
   47CHL1  H15B 3424   0.952   1.442   3.457 -0.9085  1.2029  0.6505
   47CHL1   C16 3425   1.093   1.584   3.572 -0.1262  0.1361  0.5967
   47CHL1  H16A 3426   1.066   1.691   3.567 -3.1565 -0.4992  1.3354
   47CHL1  H16B 3427   1.036   1.540   3.656  0.0638 -0.7870  0.2542
   47CHL1   C17 3428   1.243   1.558   3.561 -0.3753  0.5678 -0.1527
   47CHL1   H17 3429   1.253   1.459   3.610 -1.4116  1.2991  1.6432
   47CHL1   C13 3430   1.269   1.555   3.409 -0.1624  0.3307 -0.4752
   47CHL1   C18 3431   1.266   1.696   3.348  0.4548  0.7749 -0.1113
   47CHL1  H18A 3432   1.170   1.750   3.364 -0.2984 -0.7153  0.5724
   47CHL1  H18B 3433   1.357   1.746   3.387  1.6247 -0.9861 -0.5173
   47CHL1  H18C 3434   1.281   1.691   3.238 -1.5469 -3.7729 -0.3791
   47CHL1   C12 3435   1.395   1.486   3.364 -0.0924  0.9434  0.1619
   47CHL1  H12A 3436   1.486   1.550   3.374 -1.0122  2.9281 -2.8298
   47CHL1  H12B 3437   1.402   1.385   3.408 -0.9177  1.0585  0.5694
   47CHL1   C11 3438   1.390   1.467   3.205  0.3026  0.5928 -0.1583
   47CHL1  H11A 3439   1.398   1.564   3.152 -1.1057 -0.8957 -3.3634
   47CHL1  H11B 3440   1.493   1.427   3.189 -0.1336 -0.2144 -0.9985
   47CHL1    C9 3441   1.262   1.393   3.153 -0.1084  0.3434 -0.5596
   47CHL1    H9 3442   1.276   1.290   3.191 -0.4238  0.6707  0.4936
   47CHL1   C10 3443   1.262   1.366   2.990  0.2504 -0.1761 -0.2629
   47CHL1   C19 3444   1.294   1.507   2.923 -0.7413  0.2761  0.4087
   47CHL1  H19A 3445   1.222   1.579   2.965 -0.6946  0.2788  0.4842
   47CHL1  H19B 3446   1.400   1.524   2.951 -0.2302  0.3114 -1.4171
   47CHL1  H19C 3447   1.299   1.503   2.812  1.9552 -1.4864  0.4869
   47CHL1    C1 3448   1.366   1.262   2.942  0.0254 -0.0460  0.0722
   47CHL1   H1A 3449   1.471   1.292   2.959  0.6231 -2.1064  0.3398
   47CHL1   H1B 3450   1.358   1.171   3.006 -0.9598 -1.0409 -1.3965
   47CHL1    C2 3451   1.354   1.215   2.795  0.3362 -0.3216 -0.2075
   47CHL1   H2A 3452   1.430   1.140   2.764  2.0239  0.7890  1.0333
   47CHL1   H2B 3453   1.367   1.304   2.729  2.6454 -0.1840  0.3406
   47CHL1   C20 3454   1.315   1.656   3.650 -0.2240 -0.0421  0.6907
   47CHL1   H20 3455   1.318   1.758   3.606  0.3732 -0.2817  0.1528
   47CHL1   C21 3456   1.461   1.614   3.670 -0.3588 -0.1416  0.2682
   47CHL1  H21A 3457   1.503   1.610   3.568 -0.1985  1.4750  0.2528
   47CHL1  H21B 3458   1.463   1.512   3.713 -1.3293  0.4942  1.9271
   47CHL1  H21C 3459   1.513   1.689   3.733  0.6972 -0.1272 -0.5875
   47CHL1   C22 3460   1.248   1.673   3.791 -0.4137 -0.0647  0.0915
   47CHL1  H22A 3461   1.327   1.735   3.840  0.8413 -0.9501 -0.7438
   47CHL1  H22B 3462   1.159   1.739   3.794 -1.2295 -1.1142 -0.7054
   47CHL1   C23 3463   1.239   1.543   3.881  0.5250 -0.0027 -0.1913
   47CHL1  H23A 3464   1.148   1.489   3.845  0.4808  0.0438 -0.1506
   47CHL1  H23B 3465   1.328   1.483   3.854  1.3339  0.6231  0.9850
   47CHL1   C24 3466   1.226   1.564   4.035 -0.1783  0.3905  0.9617
   47CHL1  H24A 3467   1.311   1.631   4.060  0.1665  0.3714 -0.0911
   47CHL1  H24B 3468   1.129   1.617   4.051 -0.6484 -0.1178 -0.1021
   47CHL1   C25 3469   1.220   1.433   4.115 -0.0048  0.0585  1.0430
   47CHL1   H25 3470   1.321   1.387   4.107 -0.2046 -0.1180 -0.6946
   47CHL1   C26 3471   1.183   1.467   4.262 -0.1330 -0.2465  0.0678
   47CHL1  H26A 3472   1.078   1.502   4.265 -0.6843 -1.6388 -1.6711
   47CHL1  H26B 3473   1.186   1.366   4.308 -1.0194  0.1045  0.9392
   47CHL1  H26C 3474   1.246   1.543   4.313  1.4317 -0.8118 -0.9645
   47CHL1   C27 3475   1.133   1.326   4.048 -0.6638 -0.0542 -0.0273
   47CHL1  H27A 3476   1.140   1.231   4.106  2.0366 -1.1103 -1.9052
   47CHL1  H27B 3477   1.030   1.365   4.034 -0.3035  0.4644 -1.3600
   47CHL1  H27C 3478   1.168   1.295   3.948 -0.6225  0.4772 -0.1783
   48CHL1    C3 3479   5.267   3.921   2.729  0.0404 -1.0628 -0.0773
   48CHL1    H3 3480   5.364   3.969   2.706 -0.1552 -1.7621 -2.6868
   48CHL1    O3 3481   5.214   3.888   2.600  0.4342  0.3792 -0.5059
   48CHL1   H3' 3482   5.121   3.906   2.612  0.4496 -0.7810  1.9509
   48CHL1    C4 3483   5.274   3.789   2.813  0.3072 -0.5758 -0.4926
   48CHL1   H4A 3484   5.175   3.743   2.794 -0.2249  0.5211 -0.4130
   48CHL1   H4B 3485   5.355   3.725   2.772  1.9018  1.0382  0.0285
   48CHL1    C5 3486   5.295   3.806   2.965 -0.4624  0.5288  0.4584
   48CHL1    C6 3487   5.385   3.730   3.028 -0.4307 -0.1634 -0.6070
   48CHL1    H6 3488   5.435   3.646   2.978 -0.3275 -0.1279 -0.5643
   48CHL1    C7 3489   5.402   3.733   3.179  0.0282  0.1205 -0.2502
   48CHL1   H7A 3490   5.406   3.628   3.213 -0.8972  0.0567 -0.3223
   48CHL1   H7B 3491   5.488   3.794   3.213 -0.9050  0.4909  1.5715
   48CHL1    C8 3492   5.293   3.812   3.255 -0.1249  0.2910  0.8169
   48CHL1    H8 3493   5.197   3.756   3.260 -0.6659  1.2437  1.4244
   48CHL1   C14 3494   5.333   3.834   3.396 -0.2924 -0.3586 -0.9047
   48CHL1   H14 3495   5.428   3.891   3.391 -0.9670  0.7917 -0.9293
   48CHL1   C15 3496   5.372   3.709   3.480  0.0141 -0.0610  0.1911
   48CHL1  H15A 3497   5.298   3.629   3.458 -1.4053  1.6940 -1.8422
   48CHL1  H15B 3498   5.472   3.666   3.459  0.5207  1.0312  0.3287
   48CHL1   C16 3499   5.357   3.756   3.625 -0.5815  0.3213 -0.0468
   48CHL1  H16A 3500   5.288   3.690   3.682  1.7737 -1.1138  1.2724
   48CHL1  H16B 3501   5.453   3.749   3.681 -0.6267 -1.3363 -0.1258
   48CHL1   C17 3502   5.295   3.900   3.622  0.6196 -0.4152 -0.0468
   48CHL1   H17 3503   5.379   3.974   3.627 -2.4790  3.4272 -0.0058
   48CHL1   C13 3504   5.229   3.911   3.478 -0.3474  0.1141 -1.2062
   48CHL1   C18 3505   5.085   3.841   3.481  0.2838 -0.3367  0.3839
   48CHL1  H18A 3506   5.017   3.885   3.557  0.1449 -1.0392  0.6776
   48CHL1  H18B 3507   5.046   3.837   3.378 -2.2173  5.7827  0.7176
   48CHL1  H18C 3508   5.093   3.738   3.523  0.0220 -0.7872 -0.6596
   48CHL1   C12 3509   5.227   4.051   3.410  0.5083  0.1303  0.0875
   48CHL1  H12A 3510   5.156   4.120   3.461 -2.0188 -0.1439 -2.7595
   48CHL1  H12B 3511   5.326   4.100   3.413  0.9400 -0.6394 -1.0034
   48CHL1   C11 3512   5.167   4.043   3.263 -0.1793 -0.6700  0.2254
   48CHL1  H11A 3513   5.061   4.010   3.256  0.1032 -1.3616 -1.2150
   48CHL1  H11B 3514   5.166   4.144   3.218  3.0055  0.2365  1.8881
   48CHL1    C9 3515   5.259   3.943   3.178  0.5597 -0.1993 -0.1652
   48CHL1    H9 3516   5.358   3.993   3.172 -0.2710  1.4354 -1.1520
   48CHL1   C10 3517   5.208   3.913   3.037 -0.3897 -0.0889  0.0076
   48CHL1   C19 3518   5.067   3.859   3.047  0.2791  0.5030 -0.7230
   48CHL1  H19A 3519   4.984   3.930   3.069 -1.6434 -1.7819 -0.3084
   48CHL1  H19B 3520   5.045   3.820   2.945  0.3145 -0.7890 -0.2545
   48CHL1  H19C 3521   5.060   3.771   3.114  0.6877  0.4125 -0.7968
   48CHL1    C1 3522   5.227   4.043   2.947  0.3674 -0.6285  0.4353
   48CHL1   H1A 3523   5.166   4.125   2.991  0.3691 -1.6130  2.3743
   48CHL1   H1B 3524   5.334   4.072   2.951  0.1459  0.0572  2.1129
   48CHL1    C2 3525   5.185   4.030   2.801  0.1138  0.1351  0.4718
   48CHL1   H2A 3526   5.198   4.126   2.747 -2.5454  0.8748  1.0312
   48CHL1   H2B 3527   5.080   3.996   2.803  0.2474 -0.3465 -0.2421
   48CHL1   C20 3528   5.209   3.925   3.741 -0.8094  0.5277  0.3208
   48CHL1   H20 3529   5.118   3.860   3.735  0.0612 -0.6128 -1.2740
   48CHL1   C21 3530   5.162   4.070   3.745  0.5410 -1.0207 -0.4366
   48CHL1  H21A 3531   5.091   4.088   3.828  1.6600  0.8548  0.1727
   48CHL1  H21B 3532   5.107   4.097   3.652 -1.9022  0.5147  1.3589
   48CHL1  H21C 3533   5.246   4.139   3.768  0.2101 -1.4378  2.3972
   48CHL1   C22 3534   5.274   3.890   3.883  0.3275  1.0128  0.0100
   48CHL1  H22A 3535   5.321   3.790   3.871 -0.1163  0.5594  1.7981
   48CHL1  H22B 3536   5.356   3.963   3.901  1.0459 -0.1389  1.6932
   48CHL1   C23 3537   5.174   3.869   3.996  0.1827 -0.1793  0.5864
   48CHL1  H23A 3538   5.118   3.963   4.016  0.9807  0.3590  0.3297
   48CHL1  H23B 3539   5.112   3.785   3.957 -0.8002  0.8820 -0.2135
   48CHL1   C24 3540   5.237   3.817   4.128 -0.6394 -0.2562  0.1763
   48CHL1  H24A 3541   5.290   3.723   4.103 -0.2989  0.3826 -1.6109
   48CHL1  H24B 3542   5.310   3.889   4.171 -1.2568  0.8275 -0.5372
   48CHL1   C25 3543   5.124   3.781   4.233  0.2542 -0.1536 -0.1159
   48CHL1   H25 3544   5.037   3.722   4.196 -0.2962  0.2957  0.4390
   48CHL1   C26 3545   5.182   3.691   4.342  0.1095 -0.3278 -0.3850
   48CHL1  H26A 3546   5.098   3.639   4.394 -0.0581 -1.0066 -1.3172
   48CHL1  H26B 3547   5.230   3.604   4.292 -0.8527 -0.7738 -0.5769
   48CHL1  H26C 3548   5.252   3.750   4.405  1.8958 -1.9311 -0.7928
   48CHL1   C27 3549   5.064   3.911   4.295  0.0848  0.3688  0.2817
   48CHL1  H27A 3550   5.150   3.964   4.341  3.0223 -3.2341 -0.5691
   48CHL1  H27B 3551   5.009   3.970   4.219 -0.1559  1.4774  1.2776
   48CHL1  H27C 3552   4.985   3.891   4.371  0.8358 -0.2945  0.9195
   49CHL1    C3 3553   6.417   0.176   2.849 -0.9743 -0.4022  0.1255
   49CHL1    H3 3554   6.517   0.130   2.867 -1.1433 -0.0267  2.2861
   49CHL1    O3 3555   6.370   0.166   2.716  0.0065  0.0653 -0.0540
   49CHL1   H3' 3556   6.427   0.227   2.669  2.1083 -2.6037 -1.1764
   49CHL1    C4 3557   6.317   0.111   2.932 -0.0281 -0.1259  0.6467
   49CHL1   H4A 3558   6.212   0.145   2.918  0.0817  0.1935  0.5922
   49CHL1   H4B 3559   6.321   0.006   2.898  1.0638  0.5202 -1.4377
   49CHL1    C5 3560   6.352   0.119   3.078 -0.5816  0.5050  0.6349
   49CHL1    C6 3561   6.363   0.008   3.153 -0.0073 -0.3690  0.3226
   49CHL1    H6 3562   6.352  -0.094   3.113 -2.5452 -0.1069  0.2220
   49CHL1    C7 3563   6.396   0.020   3.300  0.9830 -0.1445  0.1239
   49CHL1   H7A 3564   6.347  -0.051   3.371  0.7952 -1.5737 -1.3912
   49CHL1   H7B 3565   6.504  -0.004   3.311  1.2007 -0.2658 -1.9775
   49CHL1    C8 3566   6.364   0.160   3.376  0.2537 -0.1158  0.1060
   49CHL1    H8 3567   6.257   0.185   3.388  0.6737  1.9144 -0.0111
   49CHL1   C14 3568   6.440   0.175   3.512 -0.0734  0.4563  0.5789
   49CHL1   H14 3569   6.549   0.180   3.494  0.4640 -1.3204  2.8167
   49CHL1   C15 3570   6.435   0.063   3.606 -0.7741  0.5230  0.1989
   49CHL1  H15A 3571   6.326   0.046   3.619 -0.8879 -0.4321 -1.6350
   49CHL1  H15B 3572   6.492  -0.020   3.559 -2.2901 -1.1462  1.2169
   49CHL1   C16 3573   6.489   0.111   3.736 -0.0291 -0.5911  0.0331
   49CHL1  H16A 3574   6.406   0.099   3.809 -1.1506 -3.5630 -1.5567
   49CHL1  H16B 3575   6.583   0.062   3.769 -1.5926 -2.4868  1.9344
   49CHL1   C17 3576   6.509   0.271   3.710  0.1216  0.7327  0.4996
   49CHL1   H17 3577   6.616   0.262   3.683 -0.3971  2.0352 -2.3337
   49CHL1   C13 3578   6.424   0.301   3.586 -0.1676  0.3711  0.2370
   49CHL1   C18 3579   6.275   0.315   3.627 -0.5830 -0.0953 -0.2882
   49CHL1  H18A 3580   6.238   0.238   3.698  0.1417  0.0160  0.2149
   49CHL1  H18B 3581   6.254   0.418   3.664 -0.9437 -0.3580  0.2522
   49CHL1  H18C 3582   6.217   0.313   3.532 -1.1100 -1.6859  0.0443
   49CHL1   C12 3583   6.456   0.419   3.491 -0.6307 -0.1535 -0.0673
   49CHL1  H12A 3584   6.419   0.518   3.525  0.7844  0.4121 -0.1165
   49CHL1  H12B 3585   6.567   0.424   3.501 -0.6035 -2.0926  0.9854
   49CHL1   C11 3586   6.398   0.406   3.354  0.1157  0.2735  0.6651
   49CHL1  H11A 3587   6.290   0.429   3.364 -0.6205 -1.7910 -1.6416
   49CHL1  H11B 3588   6.438   0.479   3.281 -1.5816 -0.8570 -1.5182
   49CHL1    C9 3589   6.418   0.271   3.283  0.1307  0.3552 -0.2616
   49CHL1    H9 3590   6.528   0.260   3.272  0.3543  2.0753 -0.0691
   49CHL1   C10 3591   6.364   0.262   3.135 -0.5501 -0.4611  0.2167
   49CHL1   C19 3592   6.230   0.338   3.121 -0.3632 -0.7388 -0.8430
   49CHL1  H19A 3593   6.247   0.443   3.152  1.3807 -2.1372  3.7623
   49CHL1  H19B 3594   6.203   0.355   3.014 -2.2735  1.0610 -0.1258
   49CHL1  H19C 3595   6.149   0.281   3.170 -1.0357 -1.7841 -3.0224
   49CHL1    C1 3596   6.456   0.347   3.044 -1.1289  0.0654  0.4448
   49CHL1   H1A 3597   6.458   0.454   3.070 -1.3364  0.0436  0.5548
   49CHL1   H1B 3598   6.559   0.308   3.063 -0.8833 -1.2418 -2.9099
   49CHL1    C2 3599   6.433   0.323   2.887 -0.1653  0.6350 -0.0661
   49CHL1   H2A 3600   6.522   0.357   2.829  0.9568  0.2403  1.3655
   49CHL1   H2B 3601   6.337   0.374   2.862 -0.5490 -0.3511 -0.6660
   49CHL1   C20 3602   6.511   0.357   3.837  0.3954  0.0243  0.3125
   49CHL1   H20 3603   6.408   0.363   3.879  0.2974  1.4621 -0.0487
   49CHL1   C21 3604   6.563   0.498   3.796  0.0718 -0.4169 -0.3331
   49CHL1  H21A 3605   6.659   0.484   3.743  0.4921  0.8376  0.0533
   49CHL1  H21B 3606   6.572   0.557   3.890 -0.2829 -1.2401  0.2293
   49CHL1  H21C 3607   6.493   0.541   3.720 -0.5712  0.0616  0.5040
   49CHL1   C22 3608   6.597   0.295   3.952  0.3010 -0.1786 -0.8810
   49CHL1  H22A 3609   6.577   0.186   3.962  0.8392 -0.3280 -1.4049
   49CHL1  H22B 3610   6.706   0.307   3.934  0.4444  1.2351  0.5982
   49CHL1   C23 3611   6.562   0.353   4.096 -0.8091 -0.0244  0.7128
   49CHL1  H23A 3612   6.574   0.463   4.090  2.1591 -0.2649  1.0383
   49CHL1  H23B 3613   6.463   0.318   4.134  1.3795 -4.8181  2.8246
   49CHL1   C24 3614   6.665   0.303   4.197 -0.0944 -0.5251  0.7088
   49CHL1  H24A 3615   6.637   0.355   4.291  0.1923 -3.0791  2.2999
   49CHL1  H24B 3616   6.648   0.195   4.214 -1.5832 -0.7593 -1.7908
   49CHL1   C25 3617   6.816   0.343   4.194  0.3992  0.2220  0.3105
   49CHL1   H25 3618   6.864   0.324   4.095  0.9372 -0.9089  0.7587
   49CHL1   C26 3619   6.826   0.490   4.221  0.1976 -0.5885  0.6736
   49CHL1  H26A 3620   6.932   0.522   4.226  0.3657 -0.8142 -0.9054
   49CHL1  H26B 3621   6.773   0.537   4.135  1.1490  0.8316  0.8354
   49CHL1  H26C 3622   6.776   0.536   4.308 -1.1925  3.0875 -1.8308
   49CHL1   C27 3623   6.893   0.266   4.292  0.0916 -0.1928  0.0739
   49CHL1  H27A 3624   6.867   0.277   4.399  1.6943 -0.7238  0.5426
   49CHL1  H27B 3625   6.888   0.157   4.270 -0.1349 -0.6717  2.2429
   49CHL1  H27C 3626   6.999   0.296   4.276 -0.0094  0.2840  0.2744
   50CHL1    C3 3627   4.701   0.406   2.400  0.2759  0.0528 -0.3374
   50CHL1    H3 3628   4.603   0.354   2.399  0.3519 -0.1004 -0.0816
   50CHL1    O3 3629   4.758   0.423   2.272  0.0563  0.4604  0.0111
   50CHL1   H3' 3630   4.823   0.352   2.274 -0.6682 -0.2019  1.5635
   50CHL1    C4 3631   4.658   0.545   2.455 -0.2926 -0.1681  0.0617
   50CHL1   H4A 3632   4.744   0.615   2.462 -0.2756 -0.1590 -0.2305
   50CHL1   H4B 3633   4.584   0.580   2.379  2.2239 -1.1777 -3.0938
   50CHL1    C5 3634   4.599   0.529   2.594 -0.5403 -0.1922  0.5871
   50CHL1    C6 3635   4.473   0.578   2.623 -0.5131  0.4340 -0.3672
   50CHL1    H6 3636   4.418   0.627   2.542  0.0371  0.2610 -0.8584
   50CHL1    C7 3637   4.420   0.584   2.758 -0.0229  0.3511 -0.4007
   50CHL1   H7A 3638   4.384   0.688   2.772  1.3042  0.8859 -0.8602
   50CHL1   H7B 3639   4.336   0.512   2.770  0.3793  0.1604  1.7557
   50CHL1    C8 3640   4.523   0.557   2.865 -0.5852 -1.3642 -0.2998
   50CHL1    H8 3641   4.578   0.653   2.871  0.8349 -2.1513 -0.4054
   50CHL1   C14 3642   4.462   0.537   3.000 -0.2978 -0.0064 -0.3427
   50CHL1   H14 3643   4.402   0.444   2.992  1.0149 -0.9682  0.4342
   50CHL1   C15 3644   4.365   0.647   3.051  0.6816  0.8106 -0.5554
   50CHL1  H15A 3645   4.405   0.742   3.009 -0.4507  1.4893 -0.1535
   50CHL1  H15B 3646   4.262   0.623   3.017  0.6202 -3.3875  1.8846
   50CHL1   C16 3647   4.371   0.640   3.202 -0.4155  0.0326 -0.0251
   50CHL1  H16A 3648   4.400   0.740   3.238  1.9913 -0.3831 -0.6682
   50CHL1  H16B 3649   4.275   0.615   3.253  0.9484 -0.1508  2.6491
   50CHL1   C17 3650   4.477   0.537   3.235 -0.3570 -0.0020  0.6234
   50CHL1   H17 3651   4.426   0.439   3.239 -0.4288  0.0025 -0.0658
   50CHL1   C13 3652   4.566   0.520   3.111  0.5450  0.6637  0.2617
   50CHL1   C18 3653   4.670   0.644   3.111  0.3477  0.4917 -0.2067
   50CHL1  H18A 3654   4.729   0.644   3.205 -0.8051  1.2037  0.5428
   50CHL1  H18B 3655   4.725   0.645   3.014  0.4226 -1.4462 -0.2295
   50CHL1  H18C 3656   4.611   0.738   3.117  0.1986  0.3379  0.8832
   50CHL1   C12 3657   4.643   0.395   3.089  0.3035  0.4079  0.5221
   50CHL1  H12A 3658   4.726   0.402   3.162  1.5803  1.0074 -0.9574
   50CHL1  H12B 3659   4.579   0.306   3.112 -1.3480  1.4193  0.0162
   50CHL1   C11 3660   4.704   0.379   2.948 -0.2265  0.0725  0.2479
   50CHL1  H11A 3661   4.798   0.438   2.949 -0.5064  0.5491 -0.6462
   50CHL1  H11B 3662   4.742   0.278   2.927  0.4816  0.8551 -2.6493
   50CHL1    C9 3663   4.618   0.446   2.832  0.0267  0.0280  0.2799
   50CHL1    H9 3664   4.551   0.361   2.808 -1.0008  0.9924 -0.3652
   50CHL1   C10 3665   4.686   0.470   2.698 -0.3749 -1.1358  0.4533
   50CHL1   C19 3666   4.800   0.573   2.721 -0.0469  0.6953 -0.6381
   50CHL1  H19A 3667   4.857   0.600   2.629 -0.4605  0.1094 -1.0803
   50CHL1  H19B 3668   4.767   0.670   2.765  0.8070  0.2507  1.0372
   50CHL1  H19C 3669   4.880   0.532   2.786  0.9188 -0.3034 -2.3698
   50CHL1    C1 3670   4.735   0.329   2.641  0.0434  0.1702 -0.7131
   50CHL1   H1A 3671   4.810   0.286   2.711  0.7192 -0.4773 -1.8051
   50CHL1   H1B 3672   4.649   0.259   2.653  0.2533 -0.3261 -1.8761
   50CHL1    C2 3673   4.800   0.336   2.499 -0.0627 -0.1394  0.7292
   50CHL1   H2A 3674   4.823   0.232   2.468 -0.6278 -1.5255  4.5535
   50CHL1   H2B 3675   4.895   0.393   2.511 -1.2268  2.1882 -0.3700
   50CHL1   C20 3676   4.544   0.557   3.373  0.3277  0.3665  0.0921
   50CHL1   H20 3677   4.652   0.532   3.370  0.0336 -1.1548  0.8373
   50CHL1   C21 3678   4.484   0.445   3.471 -0.0315  0.7085  0.4168
   50CHL1  H21A 3679   4.377   0.470   3.489 -0.7808 -2.3543  0.7595
   50CHL1  H21B 3680   4.534   0.445   3.570 -0.2865  3.0440  0.6094
   50CHL1  H21C 3681   4.495   0.343   3.428  2.4407  0.9175  0.3900
   50CHL1   C22 3682   4.545   0.697   3.429  0.1138  0.0883 -0.0236
   50CHL1  H22A 3683   4.603   0.765   3.363 -1.1474  0.0865 -1.1830
   50CHL1  H22B 3684   4.438   0.724   3.448  0.0966  0.4516 -0.6201
   50CHL1   C23 3685   4.613   0.705   3.576  0.1417 -0.0029 -0.2755
   50CHL1  H23A 3686   4.570   0.624   3.637  2.7176 -1.0902  0.2266
   50CHL1  H23B 3687   4.723   0.689   3.569  0.3058  0.4945  0.9480
   50CHL1   C24 3688   4.592   0.841   3.641 -0.0852  0.0074  0.6880
   50CHL1  H24A 3689   4.631   0.921   3.574  2.4421 -1.1010  0.7497
   50CHL1  H24B 3690   4.485   0.863   3.663 -0.1713  0.0980  0.1973
   50CHL1   C25 3691   4.669   0.861   3.771 -0.3464  0.0681 -0.0898
   50CHL1   H25 3692   4.773   0.833   3.743 -0.9191 -1.2247 -1.0325
   50CHL1   C26 3693   4.651   1.006   3.812 -0.7639 -0.0282  0.6895
   50CHL1  H26A 3694   4.726   1.046   3.883  0.1479  2.2497 -1.3948
   50CHL1  H26B 3695   4.660   1.058   3.714  1.0158  0.1379  0.8994
   50CHL1  H26C 3696   4.549   1.034   3.845  0.1301  0.1392  3.5913
   50CHL1   C27 3697   4.632   0.764   3.884 -0.1926  0.2107 -0.0148
   50CHL1  H27A 3698   4.639   0.805   3.987 -2.0539 -0.2187  0.3168
   50CHL1  H27B 3699   4.539   0.709   3.858  1.1727 -1.0810 -2.5119
   50CHL1  H27C 3700   4.707   0.682   3.879 -0.6524 -0.1505 -1.5315
   51CHL1    C3 3701   0.114   6.778   2.737 -0.6118  0.5058  0.4632
   51CHL1    H3 3702   0.221   6.755   2.718 -0.7737 -1.1251  1.4171
   51CHL1    O3 3703   0.064   6.790   2.607  0.4259  0.3479 -0.2145
   51CHL1   H3' 3704  -0.011   6.730   2.614 -0.1474  1.1791  1.3188
   51CHL1    C4 3705   0.045   6.665   2.808 -0.1133  0.5680  0.6033
   51CHL1   H4A 3706  -0.064   6.683   2.796 -0.5381 -1.4931  0.9911
   51CHL1   H4B 3707   0.066   6.573   2.750  1.1568  0.0176  1.8516
   51CHL1    C5 3708   0.089   6.650   2.954 -0.7451 -0.2536  0.2553
   51CHL1    C6 3709   0.153   6.539   2.999  0.2072  0.2639 -0.6123
   51CHL1    H6 3710   0.184   6.459   2.930  1.4671  0.8971 -0.8123
   51CHL1    C7 3711   0.199   6.535   3.149 -1.3153  0.0175  0.9799
   51CHL1   H7A 3712   0.181   6.434   3.193  0.6650 -0.9884 -0.3344
   51CHL1   H7B 3713   0.310   6.542   3.146 -1.1727 -1.5586  1.4124
   51CHL1    C8 3714   0.143   6.645   3.240 -0.1953  0.2175 -0.1712
   51CHL1    H8 3715   0.037   6.620   3.257 -0.0334 -0.3387  0.0497
   51CHL1   C14 3716   0.225   6.650   3.372  0.1675 -0.5425 -0.5513
   51CHL1   H14 3717   0.320   6.706   3.366 -0.8254  1.2505 -0.3718
   51CHL1   C15 3718   0.251   6.514   3.439  0.8815  0.5445 -0.1227
   51CHL1  H15A 3719   0.162   6.448   3.427  0.1538  0.9846  2.3569
   51CHL1  H15B 3720   0.344   6.469   3.397 -0.2423 -1.0431 -1.0370
   51CHL1   C16 3721   0.265   6.554   3.588  0.2817  0.7458  0.6110
   51CHL1  H16A 3722   0.186   6.490   3.632 -0.4515  0.4251 -1.0846
   51CHL1  H16B 3723   0.365   6.523   3.626 -0.6319  0.8547  3.2742
   51CHL1   C17 3724   0.231   6.704   3.605 -0.2874 -0.1000  0.3350
   51CHL1   H17 3725   0.324   6.765   3.597  0.2569 -0.6163  2.2754
   51CHL1   C13 3726   0.147   6.739   3.478 -0.1960  0.7495  0.4245
   51CHL1   C18 3727   0.005   6.691   3.501  0.2402 -1.1600  1.0293
   51CHL1  H18A 3728  -0.060   6.695   3.411  1.5927 -0.7438  0.0434
   51CHL1  H18B 3729   0.010   6.585   3.533  1.2231 -0.9786  1.5335
   51CHL1  H18C 3730  -0.048   6.739   3.586 -0.6346  1.6669 -0.9720
   51CHL1   C12 3731   0.152   6.884   3.419 -0.3616 -0.0120 -0.5953
   51CHL1  H12A 3732   0.103   6.954   3.490 -0.1519 -0.2231 -0.2407
   51CHL1  H12B 3733   0.260   6.911   3.413  0.2459 -2.2017 -0.3448
   51CHL1   C11 3734   0.085   6.893   3.283  0.1104  0.4563  0.0617
   51CHL1  H11A 3735  -0.025   6.885   3.292  0.3059 -1.5557  1.2983
   51CHL1  H11B 3736   0.110   6.987   3.230 -0.9914  1.0857  0.6294
   51CHL1    C9 3737   0.139   6.783   3.185 -0.3074 -0.8234  0.0948
   51CHL1    H9 3738   0.246   6.803   3.161 -0.0663  0.2225  1.8130
   51CHL1   C10 3739   0.069   6.780   3.043  0.3873 -0.0706  0.5368
   51CHL1   C19 3740  -0.092   6.783   3.060  0.3491 -0.6191  0.1432
   51CHL1  H19A 3741  -0.152   6.765   2.969 -0.3679 -0.7171  0.6302
   51CHL1  H19B 3742  -0.118   6.714   3.143  2.4381 -1.0965  0.4587
   51CHL1  H19C 3743  -0.114   6.888   3.089 -1.4217 -0.8602 -0.2756
   51CHL1    C1 3744   0.115   6.907   2.960 -0.2896  0.3638 -0.4250
   51CHL1   H1A 3745   0.080   6.990   3.026 -0.9228 -2.1309  2.6316
   51CHL1   H1B 3746   0.225   6.905   2.975 -0.4097 -2.9880  0.8432
   51CHL1    C2 3747   0.094   6.914   2.806  0.0921 -0.0572 -0.5103
   51CHL1   H2A 3748   0.157   6.988   2.752 -0.3744  0.0245 -0.9601
   51CHL1   H2B 3749  -0.012   6.947   2.796 -0.4908 -2.2854 -2.6289
   51CHL1   C20 3750   0.177   6.736   3.746 -0.0309  0.0991  0.3406
   51CHL1   H20 3751   0.085   6.677   3.764  0.7870 -0.5120  2.9716
   51CHL1   C21 3752   0.158   6.892   3.761 -0.3022  0.1009  0.4964
   51CHL1  H21A 3753   0.078   6.937   3.698  0.8159  1.4227 -0.0210
   51CHL1  H21B 3754   0.257   6.936   3.738 -0.6618 -0.9637 -4.1088
   51CHL1  H21C 3755   0.132   6.930   3.862 -0.1151 -0.0781  0.6114
   51CHL1   C22 3756   0.270   6.684   3.853  0.3090 -0.6614 -0.6156
   51CHL1  H22A 3757   0.307   6.581   3.835  0.9194 -0.2070 -2.1918
   51CHL1  H22B 3758   0.360   6.750   3.851 -0.5978  0.6057 -1.2008
   51CHL1   C23 3759   0.206   6.685   3.991 -0.2449 -0.0402 -0.1641
   51CHL1  H23A 3760   0.276   6.649   4.069 -1.6149 -0.1844  1.0420
   51CHL1  H23B 3761   0.185   6.791   4.018 -0.4051  0.1204 -0.8938
   51CHL1   C24 3762   0.079   6.594   4.003 -0.5361 -0.6227  0.3011
   51CHL1  H24A 3763  -0.006   6.647   3.955  0.1667 -1.4836 -2.0006
   51CHL1  H24B 3764   0.091   6.503   3.941  0.0093 -0.5408  0.2761
   51CHL1   C25 3765   0.044   6.565   4.152 -0.1087  0.2580  1.1886
   51CHL1   H25 3766  -0.063   6.533   4.153 -0.8829  2.6936  1.4195
   51CHL1   C26 3767   0.142   6.466   4.219 -0.2763  0.4500  0.3061
   51CHL1  H26A 3768   0.087   6.411   4.299 -0.6924  0.1824 -0.1603
   51CHL1  H26B 3769   0.181   6.392   4.146 -0.0926 -0.8798  1.6976
   51CHL1  H26C 3770   0.235   6.511   4.261  0.0400 -1.1298  1.4111
   51CHL1   C27 3771   0.041   6.694   4.240  0.4107 -0.4444 -0.1273
   51CHL1  H27A 3772   0.004   6.782   4.183  1.6649  1.4549  1.8275
   51CHL1  H27B 3773  -0.013   6.676   4.335  1.8425  0.0687  0.8105
   51CHL1  H27C 3774   0.145   6.713   4.274  0.6228 -2.3043  0.3758
   52CHL1    C3 3775   5.271   2.772   2.775  0.4134  0.5631  0.0521
   52CHL1    H3 3776   5.323   2.678   2.802  2.5478  0.2563 -4.2686
   52CHL1    O3 3777   5.292   2.788   2.635  0.4666 -0.2270  0.2553
   52CHL1   H3' 3778   5.276   2.875   2.600 -0.3580 -0.7982 -0.8271
   52CHL1    C4 3779   5.119   2.777   2.804 -0.3845  1.0684 -0.1341
   52CHL1   H4A 3780   5.080   2.877   2.776 -1.8312  0.8774  1.1119
   52CHL1   H4B 3781   5.066   2.702   2.741 -2.4854  3.2829 -1.1428
   52CHL1    C5 3782   5.096   2.761   2.951 -0.1983  0.9768 -0.5109
   52CHL1    C6 3783   5.017   2.666   3.000  0.4237 -0.4129  1.0526
   52CHL1    H6 3784   4.972   2.599   2.925 -0.6809  1.0639  0.3492
   52CHL1    C7 3785   4.978   2.653   3.144 -0.3501  0.0274 -0.1384
   52CHL1   H7A 3786   4.868   2.638   3.158 -0.2426  0.1660  0.9120
   52CHL1   H7B 3787   5.030   2.563   3.183 -0.9091 -0.1555  0.1990
   52CHL1    C8 3788   5.021   2.774   3.229  0.1129  0.6134 -0.1868
   52CHL1    H8 3789   4.944   2.853   3.215 -0.8760 -0.5287 -1.4954
   52CHL1   C14 3790   5.027   2.737   3.377 -0.4890 -0.4400 -0.6679
   52CHL1   H14 3791   5.114   2.668   3.386  2.8984  3.4458 -0.3264
   52CHL1   C15 3792   4.912   2.659   3.438 -0.3017 -1.1272  0.8304
   52CHL1  H15A 3793   4.814   2.695   3.398 -1.1039 -3.8516  0.1128
   52CHL1  H15B 3794   4.924   2.553   3.410  1.6919 -1.3229  2.2132
   52CHL1   C16 3795   4.915   2.684   3.590 -0.5401  0.1832  0.3050
   52CHL1  H16A 3796   4.823   2.741   3.617  0.3445  0.4353  3.1059
   52CHL1  H16B 3797   4.927   2.591   3.651  1.3413  0.7603  0.8845
   52CHL1   C17 3798   5.035   2.783   3.611  0.0267  0.1316  0.0847
   52CHL1   H17 3799   5.118   2.712   3.631 -0.5596 -0.4948  0.3068
   52CHL1   C13 3800   5.064   2.852   3.473  0.6687 -0.0429 -0.0788
   52CHL1   C18 3801   4.960   2.961   3.450  0.1669 -0.5922 -0.1140
   52CHL1  H18A 3802   4.968   3.041   3.527 -2.6284 -0.0515 -0.2726
   52CHL1  H18B 3803   4.971   3.009   3.350 -4.6636 -3.4113 -2.3641
   52CHL1  H18C 3804   4.855   2.927   3.461 -0.0277  0.1791  0.5602
   52CHL1   C12 3805   5.198   2.900   3.434 -0.1044 -0.0336 -0.3465
   52CHL1  H12A 3806   5.234   2.984   3.496  0.1875 -0.7984  0.5460
   52CHL1  H12B 3807   5.270   2.817   3.452  0.1314  0.5223  1.4155
   52CHL1   C11 3808   5.212   2.935   3.283  0.5793  0.2088  0.1770
   52CHL1  H11A 3809   5.160   3.033   3.270  0.9059  0.1698 -1.8113
   52CHL1  H11B 3810   5.315   2.966   3.257  0.8767  2.0190  3.1291
   52CHL1    C9 3811   5.154   2.829   3.189  0.4750 -0.4161  0.1987
   52CHL1    H9 3812   5.225   2.744   3.199  1.8049  0.1431 -3.2662
   52CHL1   C10 3813   5.163   2.866   3.043 -0.4941  0.2957 -0.3636
   52CHL1   C19 3814   5.103   3.008   3.011 -0.4509  0.3870 -0.7735
   52CHL1  H19A 3815   5.000   3.014   3.053  0.0724 -0.3988  0.7018
   52CHL1  H19B 3816   5.158   3.089   3.063  0.6060 -1.6017  1.4275
   52CHL1  H19C 3817   5.104   3.039   2.905  0.6961 -1.9875 -1.5384
   52CHL1    C1 3818   5.316   2.873   3.009 -0.7416 -0.0128 -0.0543
   52CHL1   H1A 3819   5.369   2.960   3.054 -0.0602 -1.6041  2.4262
   52CHL1   H1B 3820   5.377   2.788   3.046  0.1455  1.7971  2.9820
   52CHL1    C2 3821   5.352   2.869   2.860 -0.2002 -0.3410  0.5648
   52CHL1   H2A 3822   5.456   2.847   2.831 -0.5445  0.3017 -1.3026
   52CHL1   H2B 3823   5.328   2.963   2.806 -1.0459 -0.2859  1.0017
   52CHL1   C20 3824   5.031   2.867   3.738  0.2151 -1.0865 -0.0416
   52CHL1   H20 3825   4.943   2.933   3.722  0.4080 -0.7819  0.1339
   52CHL1   C21 3826   5.163   2.942   3.756 -0.6651  0.0915  0.1107
   52CHL1  H21A 3827   5.190   2.989   3.853  1.1165 -1.1752  0.2736
   52CHL1  H21B 3828   5.177   3.030   3.690 -1.5533 -1.1535 -1.8355
   52CHL1  H21C 3829   5.254   2.882   3.735  0.2930  1.0022  1.4739
   52CHL1   C22 3830   4.990   2.789   3.860 -0.7348 -1.1194 -0.6855
   52CHL1  H22A 3831   4.910   2.721   3.825 -2.3062  0.2438  0.0816
   52CHL1  H22B 3832   5.078   2.728   3.889 -1.1635 -1.1120  0.6810
   52CHL1   C23 3833   4.940   2.877   3.979  0.2129  0.5557 -0.6333
   52CHL1  H23A 3834   5.001   2.968   3.999  0.7930 -0.3472  2.3204
   52CHL1  H23B 3835   4.841   2.919   3.953 -0.3990  0.2546  1.0468
   52CHL1   C24 3836   4.936   2.802   4.112 -0.0593  0.7866  0.0627
   52CHL1  H24A 3837   4.873   2.711   4.110  0.3740  0.3277 -4.7072
   52CHL1  H24B 3838   5.035   2.752   4.118  0.2636  1.3857 -0.1227
   52CHL1   C25 3839   4.890   2.899   4.224 -0.5220 -0.0844  0.4385
   52CHL1   H25 3840   4.953   2.990   4.210  0.5099 -0.3919  2.7066
   52CHL1   C26 3841   4.738   2.933   4.230 -0.5359  0.3490 -0.1400
   52CHL1  H26A 3842   4.701   3.007   4.156 -1.7963  0.0128  0.1265
   52CHL1  H26B 3843   4.675   2.841   4.224  0.1223 -0.0679 -0.8460
   52CHL1  H26C 3844   4.714   2.978   4.329 -1.3818 -0.5671  0.0939
   52CHL1   C27 3845   4.932   2.832   4.356  0.2222 -0.6263  0.0614
   52CHL1  H27A 3846   4.902   2.900   4.438 -2.2659 -1.5094 -0.0239
   52CHL1  H27B 3847   4.884   2.733   4.371  1.2207 -1.1467 -0.1188
   52CHL1  H27C 3848   5.042   2.825   4.364  0.5186  2.5218  0.1188
   53CHL1    C3 3849   1.149   0.146   2.822 -0.2458 -0.0733 -0.0312
   53CHL1    H3 3850   1.095   0.243   2.825 -3.1013 -1.4552 -2.4003
   53CHL1    O3 3851   1.144   0.115   2.686 -0.1220  0.3457 -0.2627
   53CHL1   H3' 3852   1.165   0.022   2.678 -0.3375  0.1803  0.8935
   53CHL1    C4 3853   1.290   0.153   2.871 -0.3221  0.3285 -0.0498
   53CHL1   H4A 3854   1.351   0.060   2.863  0.0302  0.3527  1.8204
   53CHL1   H4B 3855   1.346   0.230   2.814  0.2354 -0.6098 -0.8263
   53CHL1    C5 3856   1.270   0.201   3.020  0.1265  0.4258 -0.3854
   53CHL1    C6 3857   1.319   0.322   3.059  0.6548 -0.0299 -0.0744
   53CHL1    H6 3858   1.369   0.387   2.986 -1.8998  0.7224 -1.2583
   53CHL1    C7 3859   1.293   0.386   3.191 -0.2842  0.2364 -0.0695
   53CHL1   H7A 3860   1.389   0.422   3.234 -1.3171  4.3541 -0.8777
   53CHL1   H7B 3861   1.221   0.470   3.186 -2.0232 -1.0061  2.1880
   53CHL1    C8 3862   1.241   0.288   3.292  0.3190  0.3893  0.5706
   53CHL1    H8 3863   1.321   0.216   3.319 -0.3913  0.0958  1.9735
   53CHL1   C14 3864   1.197   0.362   3.420  0.0375 -0.0951  0.0816
   53CHL1   H14 3865   1.104   0.412   3.386 -0.2654 -1.7044 -1.6349
   53CHL1   C15 3866   1.285   0.463   3.492  0.2981  0.0317  1.1214
   53CHL1  H15A 3867   1.388   0.423   3.481  0.5704  0.3664  2.3397
   53CHL1  H15B 3868   1.286   0.560   3.438  0.5561 -1.3026 -1.4641
   53CHL1   C16 3869   1.230   0.471   3.629  0.1542  0.9643 -0.2349
   53CHL1  H16A 3870   1.299   0.463   3.716 -0.6650  2.8344  0.6315
   53CHL1  H16B 3871   1.180   0.566   3.655 -0.7873  0.4198  0.0003
   53CHL1   C17 3872   1.119   0.358   3.645  0.1919 -0.6502  0.0252
   53CHL1   H17 3873   1.019   0.392   3.612  0.6629 -1.3122 -2.2771
   53CHL1   C13 3874   1.154   0.263   3.529 -0.4415 -0.6989 -0.4352
   53CHL1   C18 3875   1.268   0.169   3.581 -0.5717 -0.4469 -0.1343
   53CHL1  H18A 3876   1.310   0.112   3.495  0.1438 -0.7848  0.4271
   53CHL1  H18B 3877   1.358   0.229   3.608 -0.5945 -1.1411  1.6749
   53CHL1  H18C 3878   1.238   0.100   3.663 -2.1879  0.4423  0.0594
   53CHL1   C12 3879   1.032   0.195   3.466 -0.2990 -0.4700 -0.4656
   53CHL1  H12A 3880   0.990   0.120   3.536  0.3631 -2.3506 -1.9949
   53CHL1  H12B 3881   0.953   0.265   3.431  1.1980  0.9832 -1.0998
   53CHL1   C11 3882   1.072   0.108   3.345  0.0898 -0.3729 -0.5801
   53CHL1  H11A 3883   1.142   0.035   3.390 -2.0515 -1.7968  0.6351
   53CHL1  H11B 3884   0.977   0.060   3.312 -0.2851 -2.1019  2.6416
   53CHL1    C9 3885   1.130   0.198   3.234  0.0313 -0.0269  0.9462
   53CHL1    H9 3886   1.048   0.267   3.207 -0.8161 -1.4891 -0.4481
   53CHL1   C10 3887   1.178   0.119   3.118  0.7872 -0.3407  0.1768
   53CHL1   C19 3888   1.240  -0.019   3.161  0.4232 -0.0424 -0.2124
   53CHL1  H19A 3889   1.273  -0.072   3.069 -0.2300 -0.4658 -0.2049
   53CHL1  H19B 3890   1.326   0.004   3.227  0.3044 -0.2237  0.0060
   53CHL1  H19C 3891   1.157  -0.079   3.204 -0.9492  2.6052  1.0965
   53CHL1    C1 3892   1.047   0.087   3.040 -0.3715  0.2674  0.9067
   53CHL1   H1A 3893   0.989   0.011   3.098 -1.4426  0.7125  0.4548
   53CHL1   H1B 3894   0.985   0.177   3.019 -0.1560 -0.0261 -1.1499
   53CHL1    C2 3895   1.071   0.042   2.897  0.4695 -0.6980  0.0029
   53CHL1   H2A 3896   0.972   0.030   2.848 -1.1711  0.6516  2.7731
   53CHL1   H2B 3897   1.114  -0.061   2.897 -0.1037 -0.9663 -1.7762
   53CHL1   C20 3898   1.105   0.303   3.791 -0.5138 -0.2350  0.3252
   53CHL1   H20 3899   1.208   0.274   3.820  1.0180  2.9815 -1.3527
   53CHL1   C21 3900   1.013   0.177   3.811  0.0171 -0.1686  0.3322
   53CHL1  H21A 3901   0.910   0.207   3.781  0.5169 -0.5634 -1.9357
   53CHL1  H21B 3902   1.030   0.147   3.917  1.2198  0.9413  0.4721
   53CHL1  H21C 3903   1.049   0.100   3.740  2.6556  1.9340 -0.7880
   53CHL1   C22 3904   1.061   0.406   3.899  0.2358 -0.2778  0.0645
   53CHL1  H22A 3905   1.122   0.499   3.894 -0.3302  0.1145  0.3471
   53CHL1  H22B 3906   0.952   0.427   3.897  0.0225 -1.2381  0.9218
   53CHL1   C23 3907   1.083   0.363   4.044  0.0870  0.6585 -0.5489
   53CHL1  H23A 3908   1.029   0.274   4.085  0.3715  0.8308  0.2122
   53CHL1  H23B 3909   1.189   0.330   4.049 -0.0040  0.4887  1.1293
   53CHL1   C24 3910   1.063   0.495   4.128 -0.1707  0.2249  0.3204
   53CHL1  H24A 3911   1.095   0.584   4.070 -0.2689 -0.7884 -1.3642
   53CHL1  H24B 3912   0.952   0.497   4.137 -0.3127 -2.8778  0.4831
   53CHL1   C25 3913   1.125   0.488   4.276 -0.7894  0.5343 -0.1193
   53CHL1   H25 3914   1.221   0.433   4.268 -1.4872 -0.5678 -1.4653
   53CHL1   C26 3915   1.151   0.627   4.322 -0.0933  0.6282 -0.6566
   53CHL1  H26A 3916   1.049   0.664   4.344  0.5327  0.8023  2.3976
   53CHL1  H26B 3917   1.211   0.624   4.416  2.2002 -0.2668 -2.0480
   53CHL1  H26C 3918   1.212   0.676   4.243  3.0707 -1.9700 -0.0962
   53CHL1   C27 3919   1.033   0.416   4.374  0.3751  0.0395 -0.3668
   53CHL1  H27A 3920   0.934   0.467   4.372  0.9403  1.3094  1.5525
   53CHL1  H27B 3921   1.019   0.310   4.343 -0.8370 -0.1018  0.6178
   53CHL1  H27C 3922   1.068   0.434   4.477 -1.8276  2.3689  0.0767
   54CHL1    C3 3923   0.393   0.403   2.997  0.2027  0.1200  0.1684
   54CHL1    H3 3924   0.396   0.307   3.054  0.5795 -0.7518 -1.2656
   54CHL1    O3 3925   0.393   0.372   2.864  0.3741  0.5277  0.2666
   54CHL1   H3' 3926   0.385   0.455   2.816 -0.8096 -0.3275 -1.1005
   54CHL1    C4 3927   0.263   0.475   3.029 -0.3244 -0.0483 -0.5254
   54CHL1   H4A 3928   0.247   0.569   2.972 -0.1019  1.9574  2.5120
   54CHL1   H4B 3929   0.180   0.406   3.004 -2.6847  2.4914 -0.0602
   54CHL1    C5 3930   0.254   0.525   3.180 -0.5034  0.1518 -0.0090
   54CHL1    C6 3931   0.152   0.483   3.257 -0.2658 -0.7901  0.0438
   54CHL1    H6 3932   0.071   0.418   3.220  1.1852 -2.8394  0.3589
   54CHL1    C7 3933   0.145   0.521   3.401  0.3187  0.0836  0.4389
   54CHL1   H7A 3934   0.039   0.530   3.434  0.0273  1.2846 -0.7727
   54CHL1   H7B 3935   0.191   0.436   3.457 -2.8706  0.2332  3.6573
   54CHL1    C8 3936   0.232   0.642   3.442 -0.3769 -0.2968 -0.0002
   54CHL1    H8 3937   0.193   0.731   3.387  0.2686  0.3909  0.6212
   54CHL1   C14 3938   0.242   0.651   3.590  0.1424 -0.1682  0.0118
   54CHL1   H14 3939   0.308   0.567   3.619  0.3531  0.1461  0.4576
   54CHL1   C15 3940   0.113   0.631   3.668  0.6902 -0.2831  0.1342
   54CHL1  H15A 3941   0.022   0.664   3.613 -0.7168 -0.4448  2.2359
   54CHL1  H15B 3942   0.096   0.525   3.697  0.1979 -0.8892 -2.1751
   54CHL1   C16 3943   0.139   0.719   3.794 -0.5290  0.2480  0.1312
   54CHL1  H16A 3944   0.082   0.813   3.778 -1.8304 -0.4992  0.2737
   54CHL1  H16B 3945   0.118   0.667   3.890  2.6497  0.2378  0.9328
   54CHL1   C17 3946   0.288   0.768   3.786 -0.3759  0.1136 -0.0763
   54CHL1   H17 3947   0.348   0.684   3.827 -1.1637 -0.6966 -0.5276
   54CHL1   C13 3948   0.313   0.781   3.637 -0.5296 -0.0944 -0.9831
   54CHL1   C18 3949   0.257   0.914   3.585  0.3048  1.0482  0.4127
   54CHL1  H18A 3950   0.159   0.929   3.636  0.2381  2.0642  0.0085
   54CHL1  H18B 3951   0.319   1.004   3.603  0.8488  0.3885  2.0386
   54CHL1  H18C 3952   0.248   0.905   3.475  0.9406  0.6061  0.3911
   54CHL1   C12 3953   0.458   0.766   3.586 -0.1151  0.2133 -0.3515
   54CHL1  H12A 3954   0.531   0.845   3.614 -0.2647 -0.4335  2.0666
   54CHL1  H12B 3955   0.497   0.678   3.641 -1.5284 -0.6692 -0.6962
   54CHL1   C11 3956   0.468   0.749   3.432 -0.1878  0.5352 -0.1784
   54CHL1  H11A 3957   0.447   0.851   3.394  0.2285  0.6405 -0.1256
   54CHL1  H11B 3958   0.572   0.729   3.399 -0.3086 -0.3267 -0.0643
   54CHL1    C9 3959   0.378   0.636   3.379  0.4476 -0.4894 -0.2288
   54CHL1    H9 3960   0.416   0.542   3.424 -2.7101 -1.5758  0.3891
   54CHL1   C10 3961   0.379   0.615   3.222  0.7543 -0.2286  0.0935
   54CHL1   C19 3962   0.361   0.752   3.146  0.2071 -0.1556  0.3284
   54CHL1  H19A 3963   0.347   0.745   3.036 -3.6760 -1.3015  0.7623
   54CHL1  H19B 3964   0.286   0.815   3.198  0.4263 -0.9177  1.6371
   54CHL1  H19C 3965   0.454   0.811   3.160  0.5307 -0.9224  1.5936
   54CHL1    C1 3966   0.509   0.556   3.174  0.9473 -0.1402  0.2281
   54CHL1   H1A 3967   0.581   0.639   3.194  2.1685 -1.4195  1.3717
   54CHL1   H1B 3968   0.528   0.477   3.249 -0.0984 -0.6451 -0.0138
   54CHL1    C2 3969   0.518   0.496   3.032  0.2710 -0.1951  0.0252
   54CHL1   H2A 3970   0.610   0.433   3.029  1.0742  0.9108  0.3323
   54CHL1   H2B 3971   0.519   0.586   2.967 -0.6980 -1.4925 -1.8737
   54CHL1   C20 3972   0.305   0.901   3.861 -0.0692 -0.1782  0.0481
   54CHL1   H20 3973   0.245   0.985   3.819  2.2850  2.1157  0.9777
   54CHL1   C21 3974   0.450   0.953   3.865  0.0300 -0.4661 -0.2938
   54CHL1  H21A 3975   0.472   0.991   3.763 -0.9938  1.1950  0.0612
   54CHL1  H21B 3976   0.522   0.876   3.901  1.2368  0.1660 -1.2865
   54CHL1  H21C 3977   0.456   1.037   3.937  0.3985 -1.1046  0.4372
   54CHL1   C22 3978   0.254   0.878   4.014 -0.3427  0.1232 -0.4981
   54CHL1  H22A 3979   0.236   0.982   4.049  1.1419  0.6315 -1.1509
   54CHL1  H22B 3980   0.152   0.834   4.007 -1.7665  3.1945 -0.8778
   54CHL1   C23 3981   0.338   0.797   4.112 -0.3535  0.8554  0.6177
   54CHL1  H23A 3982   0.339   0.691   4.077 -0.9359  0.8324  0.6591
   54CHL1  H23B 3983   0.442   0.835   4.103  0.4264 -1.6307 -3.5751
   54CHL1   C24 3984   0.287   0.805   4.256 -0.1292  0.7321 -0.0217
   54CHL1  H24A 3985   0.270   0.911   4.287 -1.0174  1.1302 -1.7248
   54CHL1  H24B 3986   0.187   0.757   4.261 -0.8127  2.1998  1.7871
   54CHL1   C25 3987   0.376   0.736   4.354 -0.6797  0.2041  0.7515
   54CHL1   H25 3988   0.467   0.800   4.363  0.2350 -0.8700 -0.5088
   54CHL1   C26 3989   0.316   0.719   4.494  0.2849  0.1393  0.3634
   54CHL1  H26A 3990   0.380   0.654   4.558  0.3205  0.5236  0.7221
   54CHL1  H26B 3991   0.308   0.815   4.549 -0.5901  1.2033 -1.5411
   54CHL1  H26C 3992   0.215   0.677   4.473  0.0543  1.3154 -1.0492
   54CHL1   C27 3993   0.425   0.594   4.314  0.0057  0.6939  0.0621
   54CHL1  H27A 3994   0.481   0.556   4.403  1.4824  1.9451 -0.2845
   54CHL1  H27B 3995   0.347   0.518   4.290  1.0349 -0.4324  0.1749
   54CHL1  H27C 3996   0.493   0.604   4.226  0.7074  0.5664  0.5806
   55CHL1    C3 3997   5.025   1.283   2.502  0.9216 -0.3292 -0.0696
   55CHL1    H3 3998   4.917   1.254   2.500  0.2288  1.9015  0.8640
   55CHL1    O3 3999   5.084   1.271   2.370 -0.0118  0.4364 -0.1567
   55CHL1   H3' 4000   5.178   1.292   2.372  0.0469  0.1566  0.9507
   55CHL1    C4 4001   5.032   1.422   2.576 -0.2233  0.2336  0.5616
   55CHL1   H4A 4002   5.132   1.467   2.566  0.0626 -0.6707 -0.8605
   55CHL1   H4B 4003   4.964   1.489   2.520 -0.8813 -0.1762  0.8449
   55CHL1    C5 4004   5.001   1.413   2.721  0.5886 -0.0899 -0.0673
   55CHL1    C6 4005   4.895   1.477   2.769 -0.3928  0.1946  0.5320
   55CHL1    H6 4006   4.832   1.530   2.697  0.1278 -0.8297 -0.7140
   55CHL1    C7 4007   4.859   1.478   2.911 -0.8352 -0.3724  0.4900
   55CHL1   H7A 4008   4.837   1.583   2.939  1.6485 -0.3076  2.6046
   55CHL1   H7B 4009   4.762   1.425   2.923 -0.6724 -0.1725  3.5575
   55CHL1    C8 4010   4.956   1.415   3.006 -0.1597 -0.2219 -0.1072
   55CHL1    H8 4011   5.028   1.498   3.027 -1.6034  0.4240  2.8092
   55CHL1   C14 4012   4.893   1.388   3.150  0.3071  1.4349 -0.2566
   55CHL1   H14 4013   4.816   1.312   3.126  2.1542 -0.2495 -1.1354
   55CHL1   C15 4014   4.829   1.506   3.224  0.4625  0.0213 -0.9075
   55CHL1  H15A 4015   4.895   1.595   3.218  0.3662  0.0714 -1.2819
   55CHL1  H15B 4016   4.728   1.535   3.186 -0.0080  0.4249  0.5934
   55CHL1   C16 4017   4.830   1.464   3.370 -0.6439 -0.7649  0.1082
   55CHL1  H16A 4018   4.898   1.528   3.429 -0.4843 -1.2984  0.5019
   55CHL1  H16B 4019   4.729   1.480   3.413 -0.4289  0.5603  0.1764
   55CHL1   C17 4020   4.886   1.319   3.372  0.5835 -0.0315 -0.5632
   55CHL1   H17 4021   4.797   1.261   3.339 -0.4677  0.0031  1.9276
   55CHL1   C13 4022   4.986   1.321   3.250  0.1426  0.4188  0.0085
   55CHL1   C18 4023   5.109   1.405   3.291  0.2048 -0.0500 -0.6519
   55CHL1  H18A 4024   5.083   1.504   3.333  1.3947 -1.0162  2.6878
   55CHL1  H18B 4025   5.182   1.364   3.364 -1.2503  1.6886  1.9237
   55CHL1  H18C 4026   5.164   1.427   3.197 -0.4952 -0.7474 -1.2413
   55CHL1   C12 4027   5.037   1.195   3.196  0.0813  0.9397  0.7543
   55CHL1  H12A 4028   5.112   1.162   3.271  0.6483  1.2765  0.3393
   55CHL1  H12B 4029   4.950   1.126   3.189 -0.1919  1.1364  1.9074
   55CHL1   C11 4030   5.104   1.209   3.059  0.7644 -0.3487  0.3757
   55CHL1  H11A 4031   5.201   1.256   3.086  1.9198 -2.4835  0.1649
   55CHL1  H11B 4032   5.110   1.106   3.019  1.2979 -0.6461  1.2203
   55CHL1    C9 4033   5.017   1.286   2.959  0.4844 -0.0878  0.6129
   55CHL1    H9 4034   4.926   1.227   2.935 -0.4914  1.3920  0.5688
   55CHL1   C10 4035   5.075   1.309   2.814 -0.0733 -0.5908 -0.2921
   55CHL1   C19 4036   5.226   1.340   2.812 -0.9444  0.3964 -0.3099
   55CHL1  H19A 4037   5.236   1.434   2.870 -2.3649  2.6587 -3.4370
   55CHL1  H19B 4038   5.280   1.250   2.848  0.0856  1.6694  1.4940
   55CHL1  H19C 4039   5.263   1.371   2.712  0.2053  0.8675  0.2500
   55CHL1    C1 4040   5.068   1.178   2.740 -0.2320  0.9604  0.4846
   55CHL1   H1A 4041   5.141   1.111   2.791 -0.4521  1.3773  1.3734
   55CHL1   H1B 4042   4.963   1.141   2.744 -0.0143  0.4089  1.9361
   55CHL1    C2 4043   5.102   1.185   2.591 -0.5140  0.7151  0.5258
   55CHL1   H2A 4044   5.085   1.083   2.551  0.6509  1.2719 -1.4939
   55CHL1   H2B 4045   5.212   1.192   2.581 -0.7185  1.8860 -1.4341
   55CHL1   C20 4046   4.925   1.267   3.512  0.1767 -0.3185  0.7743
   55CHL1   H20 4047   5.029   1.301   3.526  0.0274  1.3920 -1.5369
   55CHL1   C21 4048   4.907   1.113   3.504  0.1316 -0.1121 -0.1808
   55CHL1  H21A 4049   4.944   1.067   3.598 -0.4372 -0.6072 -0.1913
   55CHL1  H21B 4050   4.971   1.057   3.433  1.1991  0.7539  0.0676
   55CHL1  H21C 4051   4.800   1.084   3.492 -0.0139 -0.3746  1.5424
   55CHL1   C22 4052   4.846   1.337   3.624 -0.2885  0.0990  0.3188
   55CHL1  H22A 4053   4.854   1.447   3.610  2.8481 -0.3252 -2.3764
   55CHL1  H22B 4054   4.736   1.320   3.622 -0.2398 -0.1246 -0.8550
   55CHL1   C23 4055   4.897   1.303   3.768  0.7230 -0.4257  1.0674
   55CHL1  H23A 4056   4.881   1.193   3.779 -1.9132 -0.3492 -1.0542
   55CHL1  H23B 4057   5.007   1.316   3.753  0.4238 -0.2448 -1.5542
   55CHL1   C24 4058   4.834   1.377   3.885 -0.0885  0.0283 -0.0982
   55CHL1  H24A 4059   4.866   1.481   3.862 -0.3074 -0.0004 -0.5385
   55CHL1  H24B 4060   4.724   1.365   3.881  0.0287 -1.3494  0.1681
   55CHL1   C25 4061   4.891   1.335   4.024  0.0961 -0.0274  0.9256
   55CHL1   H25 4062   4.867   1.227   4.020 -0.0075  0.0266 -1.9448
   55CHL1   C26 4063   5.039   1.358   4.046 -0.2259  0.0886  0.1316
   55CHL1  H26A 4064   5.052   1.469   4.041 -1.3349  0.2092 -0.6279
   55CHL1  H26B 4065   5.070   1.318   4.144 -1.0521  1.2778  0.9045
   55CHL1  H26C 4066   5.099   1.303   3.971 -0.5019 -0.8848  0.6148
   55CHL1   C27 4067   4.816   1.401   4.145 -0.1260 -0.3663 -0.1743
   55CHL1  H27A 4068   4.862   1.369   4.241 -1.0788 -1.0565  0.0599
   55CHL1  H27B 4069   4.835   1.511   4.135  1.1199 -0.2542  2.6293
   55CHL1  H27C 4070   4.707   1.381   4.141 -0.0304 -1.2942  1.4010
   56CHL1    C3 4071   5.211   0.684   2.646 -0.3291 -0.1501  0.4740
   56CHL1    H3 4072   5.124   0.617   2.658 -0.4086 -0.2186 -0.4515
   56CHL1    O3 4073   5.239   0.723   2.512 -0.1300  0.4413 -0.1802
   56CHL1   H3' 4074   5.309   0.789   2.519 -0.4610  0.6297  2.4940
   56CHL1    C4 4075   5.180   0.812   2.724  0.1053 -0.1584  0.2519
   56CHL1   H4A 4076   5.253   0.892   2.698 -0.9556  0.2231 -1.7424
   56CHL1   H4B 4077   5.083   0.854   2.689 -0.0551 -0.7822 -0.0723
   56CHL1    C5 4078   5.182   0.791   2.873 -0.4672 -0.0910  0.0026
   56CHL1    C6 4079   5.077   0.829   2.942  0.4538 -0.4866  0.6011
   56CHL1    H6 4080   5.000   0.888   2.889 -0.2290 -1.0940  0.8995
   56CHL1    C7 4081   5.062   0.809   3.088  0.4097  0.1657  0.2836
   56CHL1   H7A 4082   5.031   0.901   3.142  0.3266  0.6775 -0.6263
   56CHL1   H7B 4083   4.974   0.741   3.095  0.3884  0.2332  0.6765
   56CHL1    C8 4084   5.184   0.751   3.166  1.1180  0.4440  0.4455
   56CHL1    H8 4085   5.253   0.835   3.187 -0.5774  1.2399  3.3931
   56CHL1   C14 4086   5.138   0.684   3.294  0.3122 -0.1430  0.0431
   56CHL1   H14 4087   5.061   0.607   3.271 -0.3365  1.1877 -2.6439
   56CHL1   C15 4088   5.054   0.776   3.385  0.8353  0.4463 -0.3253
   56CHL1  H15A 4089   5.095   0.879   3.384 -0.2613  0.9029 -1.6990
   56CHL1  H15B 4090   4.949   0.782   3.349  0.6393 -0.4643  0.0592
   56CHL1   C16 4091   5.051   0.702   3.521 -0.1539 -0.1584 -0.0180
   56CHL1  H16A 4092   5.079   0.778   3.598 -1.6982 -1.0928  1.5274
   56CHL1  H16B 4093   4.953   0.654   3.543 -2.5058  2.7988 -2.8305
   56CHL1   C17 4094   5.160   0.588   3.510 -0.7327 -0.4468 -0.4250
   56CHL1   H17 4095   5.110   0.493   3.482  1.5705 -1.5846 -0.8673
   56CHL1   C13 4096   5.245   0.630   3.383 -0.3768 -0.3963  0.2760
   56CHL1   C18 4097   5.356   0.747   3.417  0.6137  0.1021 -0.4020
   56CHL1  H18A 4098   5.304   0.822   3.480 -0.9994  0.6919 -2.3460
   56CHL1  H18B 4099   5.441   0.697   3.468  0.2724 -2.4675 -2.1772
   56CHL1  H18C 4100   5.394   0.792   3.323 -0.0407 -0.0993 -0.7722
   56CHL1   C12 4101   5.317   0.519   3.302 -0.0107 -0.2792  0.4042
   56CHL1  H12A 4102   5.407   0.486   3.358 -0.5417 -0.8335  0.9528
   56CHL1  H12B 4103   5.251   0.431   3.289  0.0560 -0.1276 -1.1170
   56CHL1   C11 4104   5.360   0.559   3.162 -1.0550  0.0657  0.5249
   56CHL1  H11A 4105   5.454   0.618   3.167  0.1973 -1.5605 -2.0598
   56CHL1  H11B 4106   5.384   0.472   3.099  0.3079  0.8405 -0.0708
   56CHL1    C9 4107   5.256   0.643   3.080  0.4093  0.3769 -0.4188
   56CHL1    H9 4108   5.174   0.569   3.069 -0.2582  1.3638 -2.5240
   56CHL1   C10 4109   5.291   0.697   2.939  0.0083 -0.3961  0.2970
   56CHL1   C19 4110   5.420   0.779   2.956 -0.5615 -0.8674 -0.0148
   56CHL1  H19A 4111   5.436   0.840   2.865  0.1892 -1.0103  0.0118
   56CHL1  H19B 4112   5.405   0.853   3.038 -1.2190  2.2207 -2.7501
   56CHL1  H19C 4113   5.507   0.713   2.976 -0.3992  0.1500  3.2875
   56CHL1    C1 4114   5.322   0.583   2.849 -0.0710  0.2435  0.4301
   56CHL1   H1A 4115   5.416   0.535   2.884 -1.0147 -0.1098  2.6868
   56CHL1   H1B 4116   5.236   0.513   2.860  0.0703  0.0465  0.2957
   56CHL1    C2 4117   5.335   0.615   2.701 -0.9779 -0.9291 -0.2220
   56CHL1   H2A 4118   5.353   0.519   2.648 -1.7832 -1.2821  0.1317
   56CHL1   H2B 4119   5.426   0.678   2.696 -0.0515 -2.2738 -1.3464
   56CHL1   C20 4120   5.244   0.561   3.634  0.1241  0.9729 -0.1740
   56CHL1   H20 4121   5.292   0.656   3.665 -0.0611  0.7300  0.9119
   56CHL1   C21 4122   5.344   0.448   3.610 -0.4157 -0.2102  0.7001
   56CHL1  H21A 4123   5.373   0.412   3.711  1.1341 -0.2979  0.2469
   56CHL1  H21B 4124   5.441   0.481   3.567 -0.0812 -1.2642  0.6189
   56CHL1  H21C 4125   5.305   0.359   3.556 -2.7840  1.4958 -0.5942
   56CHL1   C22 4126   5.147   0.519   3.750 -0.4481 -0.2988 -0.1642
   56CHL1  H22A 4127   5.077   0.604   3.766 -1.4274 -0.7943 -1.6406
   56CHL1  H22B 4128   5.091   0.427   3.721  1.1305 -1.1613 -0.5966
   56CHL1   C23 4129   5.216   0.486   3.882  0.1738 -0.1565 -0.0530
   56CHL1  H23A 4130   5.271   0.390   3.867  2.0302  0.2696  3.0628
   56CHL1  H23B 4131   5.288   0.568   3.904  0.3001  0.4574 -2.5276
   56CHL1   C24 4132   5.115   0.457   3.998  0.2618  0.0176  0.0369
   56CHL1  H24A 4133   5.041   0.537   4.016 -0.7677 -0.6922 -0.8984
   56CHL1  H24B 4134   5.044   0.377   3.970  1.7367 -1.4426  0.3343
   56CHL1   C25 4135   5.169   0.427   4.135  0.1820  0.0096 -0.2709
   56CHL1   H25 4136   5.243   0.502   4.171  0.1554  1.4065 -2.8816
   56CHL1   C26 4137   5.059   0.427   4.238 -0.6915  0.3285 -0.1565
   56CHL1  H26A 4138   5.087   0.391   4.339 -1.0416 -1.3033 -0.6131
   56CHL1  H26B 4139   5.013   0.529   4.241 -0.4328  0.4631 -0.6629
   56CHL1  H26C 4140   4.977   0.361   4.203 -0.6831  0.6631 -0.8158
   56CHL1   C27 4141   5.233   0.293   4.141 -0.4597  0.0433  0.5635
   56CHL1  H27A 4142   5.312   0.284   4.063 -1.2892 -1.1966 -0.1568
   56CHL1  H27B 4143   5.263   0.267   4.245 -0.1129 -0.3556  0.3690
   56CHL1  H27C 4144   5.160   0.219   4.103  0.8776 -0.5084 -1.0934
   57SAPC     N 4145   6.155   0.995   6.981  0.4673 -0.4049  0.0319
   57SAPC   C12 4146   6.230   0.926   6.870  0.1783  0.8596 -0.2297
   57SAPC  H12A 4147   6.235   0.984   6.779 -0.3715 -1.9173 -2.1553
   57SAPC  H12B 4148   6.183   0.837   6.831 -0.2785  1.1439 -0.3438
   57SAPC   C13 4149   6.008   1.031   6.939 -0.0359 -0.7859  0.1186
   57SAPC  H13A 4150   6.000   1.124   6.884 -0.9898  0.5651  2.3749
   57SAPC  H13B 4151   5.964   0.947   6.889 -1.3246 -0.2238  0.2639
   57SAPC  H13C 4152   5.952   1.064   7.026 -0.5564  0.0564 -0.5186
   57SAPC   C14 4153   6.141   0.896   7.089 -0.5264 -0.7678  0.0380
   57SAPC  H14A 4154   6.234   0.858   7.130 -0.9945 -0.9632  0.9389
   57SAPC  H14B 4155   6.087   0.949   7.165 -0.7105 -0.1377 -0.5172
   57SAPC  H14C 4156   6.082   0.812   7.055 -0.1722 -1.2428  0.5769
   57SAPC   C15 4157   6.220   1.115   7.041 -0.0210  0.1852  0.0666
   57SAPC  H15A 4158   6.207   1.199   6.974 -0.6726 -0.2194 -0.3251
   57SAPC  H15B 4159   6.197   1.145   7.142  0.9638 -0.1100  0.3983
   57SAPC  H15C 4160   6.325   1.087   7.044 -0.6866 -2.8736 -1.0110
   57SAPC   C11 4161   6.375   0.879   6.904 -0.0779 -0.2975  0.0186
   57SAPC  H11A 4162   6.403   0.809   6.822 -1.8335  0.5449 -1.3777
   57SAPC  H11B 4163   6.384   0.826   7.001  2.9648  1.1323  0.6369
   57SAPC     P 4164   6.502   1.078   6.793 -0.6309 -0.0105  0.0164
   57SAPC   O13 4165   6.423   1.201   6.792 -0.0893  0.2982  0.0114
   57SAPC   O14 4166   6.646   1.092   6.819 -0.2054 -0.1729 -0.0932
   57SAPC   O12 4167   6.466   0.987   6.913  0.3846  0.4438  0.1483
   57SAPC   O11 4168   6.469   0.997   6.664 -0.2599 -0.4145  0.2728
   57SAPC    C1 4169   6.560   0.897   6.610  0.0356 -0.3090  0.3054
   57SAPC    HA 4170   6.665   0.896   6.646  0.1503  1.5325  0.1158
   57SAPC    HB 4171   6.517   0.797   6.636 -0.0772  0.5204  3.7532
   57SAPC    C2 4172   6.559   0.908   6.451 -0.2147  0.1009 -0.3690
   57SAPC    HS 4173   6.616   1.001   6.431  1.6969 -0.9164  0.0469
   57SAPC   O21 4174   6.423   0.913   6.396 -1.0352 -0.0745 -0.7621
   57SAPC   C21 4175   6.393   1.011   6.325  0.4905  0.3247 -0.3471
   57SAPC   O22 4176   6.464   1.105   6.287 -0.0381 -0.3511 -0.2976
   57SAPC   C22 4177   6.248   0.988   6.282  0.2158  0.4346 -0.2336
   57SAPC   H2R 4178   6.242   0.878   6.274 -0.4956  0.3038  1.6359
   57SAPC   H2S 4179   6.181   1.010   6.367 -0.5237 -3.7168  0.4553
   57SAPC    C3 4180   6.643   0.794   6.383  0.0214 -0.0281  0.1251
   57SAPC    HX 4181   6.580   0.703   6.396 -0.5758  0.6427  2.2981
   57SAPC    HY 4182   6.730   0.773   6.448  1.5100  0.4941 -1.6308
   57SAPC   O31 4183   6.674   0.809   6.248 -0.0977  0.0874 -0.7182
   57SAPC   C31 4184   6.781   0.868   6.209 -0.9395 -0.1996  0.4392
   57SAPC   O32 4185   6.868   0.910   6.291  0.0677  0.4418 -0.1793
   57SAPC   C32 4186   6.784   0.888   6.055 -0.8475 -0.6313 -0.0382
   57SAPC   H2X 4187   6.698   0.955   6.033 -0.6430 -0.6895 -1.0784
   57SAPC   H2Y 4188   6.777   0.791   6.000 -1.9496 -0.3410 -0.4398
   57SAPC   C23 4189   6.214   1.055   6.139 -1.2391  0.2088 -0.1804
   57SAPC   H3R 4190   6.310   1.049   6.083 -0.9170 -0.0204  0.3851
   57SAPC   H3S 4191   6.204   1.162   6.166  0.5535  0.1279  0.9977
   57SAPC   C24 4192   6.111   0.985   6.045  0.4507  0.2761 -0.4478
   57SAPC   H4R 4193   6.033   0.968   6.122  1.3898  1.3882  0.8135
   57SAPC   H4S 4194   6.141   0.887   6.003 -2.2750 -0.4053 -1.0160
   57SAPC   C25 4195   6.064   1.078   5.941  0.9165 -0.0375 -0.0395
   57SAPC   H5R 4196   6.102   1.181   5.944 -0.1653  0.4605 -1.7861
   57SAPC   C26 4197   6.009   1.052   5.821 -0.4356 -0.5270  0.0235
   57SAPC   H6R 4198   5.985   1.136   5.754  0.7948 -0.7070 -0.6835
   57SAPC   C27 4199   5.998   0.907   5.774 -0.2580  0.3904  0.0973
   57SAPC   H7R 4200   5.969   0.845   5.862 -0.7492 -1.0632 -1.0591
   57SAPC   H7S 4201   6.096   0.862   5.747 -1.4105 -1.4573 -1.2009
   57SAPC   C28 4202   5.905   0.873   5.664  0.0824 -0.5503  0.4674
   57SAPC   H8R 4203   5.800   0.861   5.695 -0.4079  0.7557 -0.6211
   57SAPC   C29 4204   5.932   0.860   5.531  0.4836  0.0002  0.9902
   57SAPC   H9R 4205   5.848   0.843   5.462 -0.2798  2.2109  1.3104
   57SAPC  C210 4206   6.060   0.886   5.463 -0.3241  0.6002 -0.3001
   57SAPC  H10R 4207   6.134   0.806   5.484  0.9075  1.9691  0.8262
   57SAPC  H10S 4208   6.106   0.971   5.518 -1.2956  0.7783  0.2602
   57SAPC  C211 4209   6.057   0.935   5.319  0.0401 -0.1981  0.0811
   57SAPC  H11R 4210   6.024   1.040   5.309 -0.2773 -0.1465  1.3961
   57SAPC  C212 4211   6.052   0.855   5.215 -0.5990 -0.0091  0.1865
   57SAPC  H12R 4212   6.053   0.901   5.114  0.2240  1.0364  0.6454
   57SAPC  C213 4213   6.034   0.710   5.214  1.0820 -0.2786 -0.1664
   57SAPC  H13R 4214   6.014   0.666   5.314 -0.0101  1.4773  0.4381
   57SAPC  H13S 4215   6.136   0.681   5.180  2.1119  2.8720 -0.1590
   57SAPC  C214 4216   5.943   0.681   5.101 -0.1412 -0.0009 -0.3586
   57SAPC  H14R 4217   5.835   0.695   5.116 -0.1964 -2.2234  1.9477
   57SAPC  C215 4218   5.985   0.647   4.975 -0.2582  0.3271 -0.5463
   57SAPC  H15R 4219   5.908   0.653   4.897 -0.1776  1.3077 -0.5606
   57SAPC  C216 4220   6.123   0.605   4.928 -0.5190 -0.3033  0.4893
   57SAPC  H16R 4221   6.186   0.565   5.010  0.2821 -1.7062 -0.7424
   57SAPC  H16S 4222   6.176   0.696   4.892 -2.5003  2.0257  3.1298
   57SAPC  C217 4223   6.132   0.502   4.807  0.0548 -0.0601 -0.6876
   57SAPC  H17R 4224   6.229   0.525   4.758 -0.4966  3.0379 -0.5509
   57SAPC  H17S 4225   6.059   0.526   4.726  1.0246  0.9772 -1.2795
   57SAPC  C218 4226   6.106   0.352   4.841  0.3482 -0.1958 -1.2818
   57SAPC  H18R 4227   6.014   0.345   4.903  1.8184 -0.6990  0.9902
   57SAPC  H18S 4228   6.195   0.310   4.893 -0.8260 -1.4448 -0.1868
   57SAPC  C219 4229   6.083   0.263   4.719  0.9882  0.6892 -0.5100
   57SAPC  H19R 4230   6.093   0.159   4.757  1.2780  1.7529  2.5766
   57SAPC  H19S 4231   6.163   0.287   4.645 -0.9179  1.7058 -2.3644
   57SAPC  C220 4232   5.941   0.273   4.659 -0.5518  0.5987 -0.8412
   57SAPC  H20R 4233   5.951   0.259   4.550  0.2992  1.6895 -0.9237
   57SAPC  H20S 4234   5.885   0.363   4.693 -1.7609 -0.5512  0.3768
   57SAPC  H20T 4235   5.882   0.186   4.694 -1.8498  1.1460 -1.5988
   57SAPC   C33 4236   6.918   0.950   6.010  0.2060  0.3901  0.3783
   57SAPC   H3X 4237   7.005   0.885   6.032  0.3270  0.8547  1.3367
   57SAPC   H3Y 4238   6.926   1.049   6.059 -1.6532  1.4735 -1.3485
   57SAPC   C34 4239   6.914   0.973   5.856  0.1536  0.3829 -0.3188
   57SAPC   H4X 4240   6.929   0.873   5.810  0.8639 -0.2522  1.2285
   57SAPC   H4Y 4241   7.002   1.040   5.841 -1.4788  2.5496 -0.8482
   57SAPC   C35 4242   6.789   1.040   5.796  0.1929 -0.1807  0.7283
   57SAPC   H5X 4243   6.770   1.135   5.850 -1.6233 -0.0470 -0.0800
   57SAPC   H5Y 4244   6.706   0.968   5.815  0.6193 -0.5923  1.0385
   57SAPC   C36 4245   6.802   1.079   5.650  0.2993  0.0930  0.4405
   57SAPC   H6X 4246   6.898   1.133   5.635  1.6286 -2.1132  0.4557
   57SAPC   H6Y 4247   6.730   1.157   5.617  0.4207  0.2464  0.5352
   57SAPC   C37 4248   6.784   0.958   5.569 -0.8469  1.1006 -0.6502
   57SAPC   H7X 4249   6.688   0.907   5.593 -0.6623  0.7637 -0.6168
   57SAPC   H7Y 4250   6.860   0.882   5.598  0.0175  1.1561 -2.5693
   57SAPC   C38 4251   6.809   1.002   5.426  0.6535 -0.6290  0.1490
   57SAPC   H8X 4252   6.775   1.107   5.417  4.5830  0.8593  0.6928
   57SAPC   H8Y 4253   6.754   0.936   5.356  1.1929  1.1285 -2.0595
   57SAPC   C39 4254   6.957   0.998   5.397  0.0528 -0.5605  0.2064
   57SAPC   H9X 4255   7.006   0.903   5.428  0.0564  0.3559  3.3396
   57SAPC   H9Y 4256   7.005   1.075   5.461 -2.8530  3.8219 -2.3389
   57SAPC  C310 4257   6.988   1.044   5.255  0.2690  0.2567  0.5615
   57SAPC  H10X 4258   7.089   1.088   5.257 -0.5932  2.3966  0.0493
   57SAPC  H10Y 4259   6.923   1.129   5.225  0.9126  0.2861 -0.8079
   57SAPC  C311 4260   6.984   0.938   5.149  0.0796 -0.2222 -0.1747
   57SAPC  H11X 4261   6.896   0.872   5.134 -0.6071  0.7407 -0.5021
   57SAPC  H11Y 4262   7.070   0.872   5.173 -0.6628 -0.7975  0.9829
   57SAPC  C312 4263   7.008   0.992   5.009 -0.0423 -0.4956  0.1841
   57SAPC  H12X 4264   7.060   0.924   4.938  1.7190  1.7152 -0.8050
   57SAPC  H12Y 4265   7.084   1.074   5.012  0.0941 -0.6465  1.3257
   57SAPC  C313 4266   6.875   1.041   4.942 -0.3105  0.4263  0.0248
   57SAPC  H13X 4267   6.828   1.120   5.004 -0.3627  0.6178 -0.2584
   57SAPC  H13Y 4268   6.808   0.953   4.936 -1.1473  0.9776  1.0451
   57SAPC  C314 4269   6.909   1.096   4.801 -0.1736 -0.0127 -0.0546
   57SAPC  H14X 4270   6.961   1.013   4.749 -0.9238 -0.4205 -0.1685
   57SAPC  H14Y 4271   6.978   1.183   4.803  1.2248 -1.0028 -1.8278
   57SAPC  C315 4272   6.782   1.127   4.715 -1.2487  0.0243 -0.0717
   57SAPC  H15X 4273   6.710   1.187   4.774  0.8870  0.4630  2.2360
   57SAPC  H15Y 4274   6.725   1.034   4.696 -4.4442  2.1360 -1.6954
   57SAPC  C316 4275   6.830   1.199   4.584  0.6378  0.1644 -0.2443
   57SAPC  H16X 4276   6.880   1.115   4.532  1.1508 -0.5992  1.4002
   57SAPC  H16Y 4277   6.897   1.287   4.595  0.5667  0.3053 -0.9030
   57SAPC  C317 4278   6.710   1.246   4.496 -0.1521 -0.2859 -0.2568
   57SAPC  H17X 4279   6.656   1.328   4.547 -0.0721 -1.5947  2.1158
   57SAPC  H17Y 4280   6.637   1.164   4.482 -2.1121  1.4822 -0.8935
   57SAPC  C318 4281   6.763   1.286   4.361 -0.2064  0.0685 -1.0240
   57SAPC  H18X 4282   6.819   1.207   4.309 -0.4526 -0.6409 -0.2411
   57SAPC  H18Y 4283   6.833   1.372   4.365 -0.3525  0.1579  1.1366
   57SAPC  H18Z 4284   6.676   1.318   4.300 -1.4305  2.1550  1.5724
   58SAPC     N 4285   3.021   0.115   6.544 -0.2140 -0.4029 -0.4375
   58SAPC   C12 4286   3.116   0.145   6.427  0.1914  0.2591 -0.3880
   58SAPC  H12A 4287   3.067   0.184   6.339  1.5876 -0.7643 -1.6762
   58SAPC  H12B 4288   3.160   0.056   6.385 -1.3429 -0.4734 -0.5152
   58SAPC   C13 4289   2.944   0.240   6.577  0.0726 -0.4317  0.2257
   58SAPC  H13A 4290   2.871   0.267   6.502  0.1434  1.5600  0.7982
   58SAPC  H13B 4291   2.892   0.233   6.671  0.3606 -0.2923  0.3976
   58SAPC  H13C 4292   3.021   0.316   6.582 -0.2460 -0.1322  0.5973
   58SAPC   C14 4293   2.929   0.002   6.509 -0.7106 -0.4645 -0.3822
   58SAPC  H14A 4294   2.886  -0.036   6.601  0.5490 -0.6716  0.1496
   58SAPC  H14B 4295   2.850   0.030   6.441 -0.7556 -0.9668 -0.5411
   58SAPC  H14C 4296   2.989  -0.077   6.466 -0.1911  0.1300 -0.7539
   58SAPC   C15 4297   3.107   0.080   6.666 -0.0104 -0.3214  0.8627
   58SAPC  H15A 4298   3.177   0.003   6.637  0.9672  0.7576  0.2712
   58SAPC  H15B 4299   3.151   0.175   6.692 -0.9374  0.6325 -0.8817
   58SAPC  H15C 4300   3.043   0.045   6.746 -1.6286  1.4961  0.4371
   58SAPC   C11 4301   3.240   0.238   6.450  0.4364 -0.8889 -0.1913
   58SAPC  H11A 4302   3.314   0.241   6.367  1.0607  2.0036  0.3670
   58SAPC  H11B 4303   3.296   0.196   6.537 -0.5755 -1.4766  0.1957
   58SAPC     P 4304   3.150   0.468   6.365 -0.0824 -0.0152  0.2246
   58SAPC   O13 4305   3.036   0.543   6.424  0.0151 -0.2489  0.2244
   58SAPC   O14 4306   3.262   0.551   6.323 -0.4005  0.4749 -0.8164
   58SAPC   O12 4307   3.202   0.372   6.480  0.2408 -0.6752 -0.3635
   58SAPC   O11 4308   3.095   0.379   6.245  0.2233  0.2710  0.4103
   58SAPC    C1 4309   3.172   0.365   6.126 -0.6973  0.0333 -0.3045
   58SAPC    HA 4310   3.273   0.408   6.140 -0.2495 -1.4615  1.3851
   58SAPC    HB 4311   3.184   0.258   6.098 -1.0725 -0.2419  0.5442
   58SAPC    C2 4312   3.101   0.436   6.007  0.1275  0.5852 -0.6115
   58SAPC    HS 4313   3.096   0.546   6.020 -0.3804  0.5741 -0.6803
   58SAPC   O21 4314   2.965   0.392   6.001  0.5585 -0.2269  0.0341
   58SAPC   C21 4315   2.870   0.470   5.960  0.0391  0.2193 -0.3549
   58SAPC   O22 4316   2.884   0.582   5.920 -0.2961  0.2498  0.1001
   58SAPC   C22 4317   2.726   0.409   5.953 -1.1123  0.3768  0.1659
   58SAPC   H2R 4318   2.667   0.430   6.046 -0.7574  1.3948  0.1724
   58SAPC   H2S 4319   2.681   0.465   5.869 -1.8464 -0.0131  0.2914
   58SAPC    C3 4320   3.175   0.408   5.875  0.2076  1.1586 -0.2142
   58SAPC    HX 4321   3.110   0.421   5.786  1.9375  2.7171 -1.3166
   58SAPC    HY 4322   3.188   0.298   5.879  1.7375  1.3494  0.4250
   58SAPC   O31 4323   3.297   0.476   5.850  0.9039  0.2947 -0.3986
   58SAPC   C31 4324   3.287   0.591   5.784 -0.2225 -0.5810 -0.8993
   58SAPC   O32 4325   3.182   0.657   5.758  0.3782 -0.0405 -0.5469
   58SAPC   C32 4326   3.435   0.634   5.757 -0.2728 -0.2337  0.0677
   58SAPC   H2X 4327   3.487   0.549   5.708  1.1588 -0.0148  1.1591
   58SAPC   H2Y 4328   3.486   0.657   5.853  0.0153 -2.0604  0.3731
   58SAPC   C23 4329   2.735   0.261   5.912  0.0954 -0.5815  0.0009
   58SAPC   H3R 4330   2.765   0.197   5.998 -0.0235  1.1678  1.4232
   58SAPC   H3S 4331   2.808   0.230   5.834 -1.5157 -2.4283 -0.8223
   58SAPC   C24 4332   2.597   0.207   5.883 -0.5266 -0.0024  0.0755
   58SAPC   H4R 4333   2.555   0.277   5.807 -0.2478  1.2142  1.0270
   58SAPC   H4S 4334   2.536   0.215   5.975 -0.4020 -0.5852  0.2142
   58SAPC   C25 4335   2.602   0.063   5.830  0.3266 -0.6289  0.1326
   58SAPC   H5R 4336   2.625  -0.018   5.901  1.3549  2.0123  3.0668
   58SAPC   C26 4337   2.585   0.028   5.700  0.3482  0.1201 -0.1335
   58SAPC   H6R 4338   2.617  -0.076   5.683  0.5599 -0.3269  2.5661
   58SAPC   C27 4339   2.541   0.112   5.581 -1.0455  0.7118  0.2792
   58SAPC   H7R 4340   2.627   0.152   5.522 -1.5040  1.4822  0.1150
   58SAPC   H7S 4341   2.484   0.202   5.612  0.5090  1.5760  0.7398
   58SAPC   C28 4342   2.448   0.016   5.499 -0.2257  0.1626 -0.3453
   58SAPC   H8R 4343   2.367  -0.020   5.563 -1.4076  1.5539 -1.0037
   58SAPC   C29 4344   2.449  -0.005   5.364 -0.0079  0.1510 -0.4650
   58SAPC   H9R 4345   2.384  -0.083   5.320  2.1772 -2.5542  0.7767
   58SAPC  C210 4346   2.561   0.055   5.280 -0.2077  0.1094 -0.1785
   58SAPC  H10R 4347   2.604  -0.019   5.209 -0.7873  0.8514 -1.3380
   58SAPC  H10S 4348   2.653   0.060   5.341 -0.8198 -2.9650  1.2354
   58SAPC  C211 4349   2.529   0.190   5.226  0.1451 -0.1644  0.2756
   58SAPC  H11R 4350   2.504   0.269   5.298  2.4093  1.1350 -0.2577
   58SAPC  C212 4351   2.531   0.218   5.093 -0.2920  0.2191  0.5937
   58SAPC  H12R 4352   2.512   0.322   5.063 -2.5120  0.1949  1.7604
   58SAPC  C213 4353   2.562   0.113   4.982  0.3444 -0.0447  1.5851
   58SAPC  H13R 4354   2.493   0.117   4.895 -1.2386  2.5271  2.8458
   58SAPC  H13S 4355   2.566   0.009   5.020  0.0713 -0.5566  0.2811
   58SAPC  C214 4356   2.697   0.160   4.936 -1.1792  0.6959 -0.4575
   58SAPC  H14R 4357   2.760   0.201   5.016 -0.7713 -1.0601  0.1571
   58SAPC  C215 4358   2.753   0.142   4.822 -0.3839 -0.3194  0.3247
   58SAPC  H15R 4359   2.855   0.180   4.803 -0.6789  1.3178  1.7655
   58SAPC  C216 4360   2.695   0.074   4.705  0.3325  1.0225  0.1956
   58SAPC  H16R 4361   2.625  -0.007   4.734 -1.2137  1.8034 -1.1923
   58SAPC  H16S 4362   2.778   0.030   4.646  1.4274  2.0638  0.9026
   58SAPC  C217 4363   2.601   0.163   4.629  0.1861  0.7907  0.0575
   58SAPC  H17R 4364   2.635   0.267   4.610 -4.3803  2.5170 -0.0587
   58SAPC  H17S 4365   2.504   0.176   4.683 -0.1108 -1.4382  0.1488
   58SAPC  C218 4366   2.556   0.117   4.487 -0.1453 -0.6828  0.1067
   58SAPC  H18R 4367   2.484   0.035   4.504 -2.3260  0.9381 -0.8668
   58SAPC  H18S 4368   2.649   0.095   4.431  0.2361  0.5783  0.2178
   58SAPC  C219 4369   2.471   0.221   4.403  0.6244  0.0035 -0.3910
   58SAPC  H19R 4370   2.396   0.253   4.478  0.8484  1.9086 -0.9388
   58SAPC  H19S 4371   2.416   0.161   4.327 -0.7626  1.7458 -0.8128
   58SAPC  C220 4372   2.546   0.344   4.341 -0.3166  0.1187 -0.6300
   58SAPC  H20R 4373   2.627   0.328   4.267 -2.3818 -2.5850 -2.5099
   58SAPC  H20S 4374   2.581   0.409   4.424 -0.8442 -0.5826  0.1549
   58SAPC  H20T 4375   2.470   0.403   4.285 -1.6304  0.6449  1.5889
   58SAPC   C33 4376   3.443   0.764   5.669 -0.2761  0.0168 -0.4493
   58SAPC   H3X 4377   3.508   0.843   5.715  1.3593 -1.0315 -0.8662
   58SAPC   H3Y 4378   3.347   0.820   5.670 -0.1285  0.2788 -0.9883
   58SAPC   C34 4379   3.487   0.727   5.528  0.4487 -0.1940  0.5096
   58SAPC   H4X 4380   3.418   0.652   5.483  1.2222 -0.1227 -0.8580
   58SAPC   H4Y 4381   3.586   0.678   5.535  0.6335 -0.6666 -3.2285
   58SAPC   C35 4382   3.492   0.836   5.426 -0.3164 -0.2613  0.3976
   58SAPC   H5X 4383   3.562   0.916   5.459 -1.2933 -0.3075  2.7966
   58SAPC   H5Y 4384   3.397   0.893   5.419  1.5062  3.1753  1.0541
   58SAPC   C36 4385   3.545   0.798   5.285 -0.2247 -0.0052 -0.5352
   58SAPC   H6X 4386   3.471   0.726   5.244 -0.0489 -0.5922  0.1468
   58SAPC   H6Y 4387   3.632   0.729   5.291  1.1579  1.5930 -1.6200
   58SAPC   C37 4388   3.559   0.911   5.180 -0.2197  0.1616  0.1846
   58SAPC   H7X 4389   3.645   0.979   5.197 -0.2495  0.2761 -0.1217
   58SAPC   H7Y 4390   3.470   0.977   5.184 -1.4327 -1.4229  0.6612
   58SAPC   C38 4391   3.580   0.852   5.043 -0.1132  0.4415  0.6141
   58SAPC   H8X 4392   3.491   0.814   4.989  0.0849  3.0967 -1.7842
   58SAPC   H8Y 4393   3.649   0.766   5.056 -1.9860 -1.1424  0.6112
   58SAPC   C39 4394   3.642   0.950   4.942 -0.1096  0.1630  0.2154
   58SAPC   H9X 4395   3.746   0.977   4.972  0.2271  0.1324 -0.8934
   58SAPC   H9Y 4396   3.582   1.040   4.918  1.4600  1.1723 -0.0511
   58SAPC  C310 4397   3.649   0.877   4.806 -0.6132 -0.1815  0.3019
   58SAPC  H10X 4398   3.556   0.823   4.781  0.4037 -2.1004  0.4437
   58SAPC  H10Y 4399   3.736   0.807   4.807  0.5898  1.1217 -1.9397
   58SAPC  C311 4400   3.683   0.976   4.694  0.8088  1.4344 -0.1279
   58SAPC  H11X 4401   3.740   1.068   4.721  2.5713  0.1929  0.5211
   58SAPC  H11Y 4402   3.585   1.019   4.663  1.0019  1.1979 -1.1169
   58SAPC  C312 4403   3.752   0.908   4.577  0.0785  0.4730 -0.1025
   58SAPC  H12X 4404   3.706   0.808   4.560 -0.3001  0.5246  0.5894
   58SAPC  H12Y 4405   3.854   0.895   4.619  0.0622  1.7118  0.3828
   58SAPC  C313 4406   3.751   0.994   4.451 -0.1198 -0.0747 -0.4328
   58SAPC  H13X 4407   3.799   0.948   4.362 -0.0769 -0.5342 -0.1750
   58SAPC  H13Y 4408   3.791   1.095   4.474  2.2955 -0.5777 -2.0491
   58SAPC  C314 4409   3.616   1.041   4.398  0.2093 -0.0527  0.1772
   58SAPC  H14X 4410   3.635   1.093   4.301 -0.2930  2.8766  1.5197
   58SAPC  H14Y 4411   3.571   1.114   4.469  0.1556  0.0362  0.0516
   58SAPC  C315 4412   3.516   0.922   4.377 -0.8857  0.8547 -0.5140
   58SAPC  H15X 4413   3.493   0.865   4.470  0.0691  1.1483 -0.0776
   58SAPC  H15Y 4414   3.560   0.845   4.310 -1.9750  0.1587 -0.4546
   58SAPC  C316 4415   3.384   0.965   4.314  0.2913  0.0477  0.5980
   58SAPC  H16X 4416   3.339   1.057   4.358  0.4302  0.8727 -0.9262
   58SAPC  H16Y 4417   3.310   0.890   4.349 -1.2196  1.5928  0.8539
   58SAPC  C317 4418   3.394   0.972   4.160 -0.0851 -0.5130 -0.1275
   58SAPC  H17X 4419   3.496   0.995   4.124  0.8340 -3.3760  0.3613
   58SAPC  H17Y 4420   3.314   1.041   4.125  0.9783 -0.1876 -2.0589
   58SAPC  C318 4421   3.376   0.834   4.100 -0.2538  0.3728 -0.3080
   58SAPC  H18X 4422   3.402   0.827   3.993  2.1396  1.8352  0.1044
   58SAPC  H18Y 4423   3.276   0.791   4.123 -0.6759  1.7567  0.5530
   58SAPC  H18Z 4424   3.445   0.766   4.154  0.9227  0.7204 -1.3278
   59SAPC     N 4425   1.491   2.989   7.423  0.3693  0.7526  0.6826
   59SAPC   C12 4426   1.446   2.924   7.293  0.0531 -0.3725 -0.1212
   59SAPC  H12A 4427   1.340   2.920   7.276  0.2334 -0.5201 -1.3123
   59SAPC  H12B 4428   1.488   2.825   7.293  0.3225 -0.3477  2.5616
   59SAPC   C13 4429   1.466   3.138   7.415  0.0899 -0.2234 -0.2690
   59SAPC  H13A 4430   1.492   3.202   7.497  0.1314 -0.7573  0.1422
   59SAPC  H13B 4431   1.518   3.169   7.325 -1.5684 -2.4858 -2.1357
   59SAPC  H13C 4432   1.360   3.157   7.407 -0.2084  0.2539  3.2015
   59SAPC   C14 4433   1.412   2.929   7.534  0.5505  0.1535 -0.2503
   59SAPC  H14A 4434   1.440   2.969   7.630 -0.1395 -0.4407  0.2081
   59SAPC  H14B 4435   1.307   2.950   7.517  0.5358  0.7715  0.5339
   59SAPC  H14C 4436   1.426   2.822   7.535 -2.2229 -0.2965  1.4882
   59SAPC   C15 4437   1.633   2.958   7.439 -0.5386  0.0556 -0.9791
   59SAPC  H15A 4438   1.671   3.002   7.530  3.0546 -2.2191 -1.1605
   59SAPC  H15B 4439   1.657   2.852   7.440  1.3466  0.2945  3.5468
   59SAPC  H15C 4440   1.694   3.001   7.360  0.8394  0.7938  0.4423
   59SAPC   C11 4441   1.492   2.998   7.168 -0.9901  0.2075  0.4544
   59SAPC  H11A 4442   1.478   3.108   7.165  3.0323  1.0336  3.2419
   59SAPC  H11B 4443   1.455   2.951   7.074 -3.2192 -1.3716  2.0314
   59SAPC     P 4444   1.714   2.870   7.102 -0.0563  0.0705  0.2059
   59SAPC   O13 4445   1.856   2.886   7.145 -0.4235 -0.7171 -0.1780
   59SAPC   O14 4446   1.647   2.742   7.139  0.1919  0.1934  0.2057
   59SAPC   O12 4447   1.636   2.984   7.151  0.2584  0.1827  0.0968
   59SAPC   O11 4448   1.704   2.873   6.943  0.1261 -0.2165 -0.4031
   59SAPC    C1 4449   1.715   2.998   6.869  0.0757 -0.2042  0.0320
   59SAPC    HA 4450   1.678   3.084   6.928 -0.9469 -1.4886  1.3607
   59SAPC    HB 4451   1.820   3.018   6.840  0.3038 -0.9587  0.3059
   59SAPC    C2 4452   1.634   3.002   6.734  0.4498 -0.8777 -0.0202
   59SAPC    HS 4453   1.537   2.951   6.755  0.3085 -0.0722  1.3951
   59SAPC   O21 4454   1.710   2.934   6.635 -0.2601 -0.3544  0.2125
   59SAPC   C21 4455   1.640   2.869   6.539  0.1109 -0.3628 -0.2725
   59SAPC   O22 4456   1.520   2.858   6.541  0.1263  0.4982 -0.1539
   59SAPC   C22 4457   1.728   2.819   6.430  0.0912 -0.1772  0.3977
   59SAPC   H2R 4458   1.799   2.899   6.403  0.5545 -1.3575 -2.1578
   59SAPC   H2S 4459   1.777   2.732   6.478  1.0686 -0.2716 -0.7433
   59SAPC    C3 4460   1.602   3.145   6.698 -0.7350 -0.8978  0.3792
   59SAPC    HX 4461   1.687   3.214   6.715 -2.6392  1.6554  0.2047
   59SAPC    HY 4462   1.518   3.178   6.763 -1.4494  1.9838 -1.8271
   59SAPC   O31 4463   1.553   3.160   6.562  0.0233  0.0657 -0.3122
   59SAPC   C31 4464   1.641   3.189   6.476  0.2801 -0.3947  0.1991
   59SAPC   O32 4465   1.761   3.185   6.485  0.7509 -0.0552  0.2224
   59SAPC   C32 4466   1.572   3.237   6.345  0.1137 -0.4013 -0.3493
   59SAPC   H2X 4467   1.483   3.296   6.374  0.0509 -0.2072 -0.9150
   59SAPC   H2Y 4468   1.518   3.153   6.296 -3.7706  1.2905  0.6279
   59SAPC   C23 4469   1.655   2.784   6.300 -0.0064  0.1480 -0.0814
   59SAPC   H3R 4470   1.549   2.756   6.316  0.9053 -2.3400  2.3144
   59SAPC   H3S 4471   1.705   2.696   6.254  0.3163  0.8742 -1.1736
   59SAPC   C24 4472   1.655   2.898   6.195  0.1150 -0.2346  0.0411
   59SAPC   H4R 4473   1.740   2.968   6.208  0.3073 -0.6713  1.2951
   59SAPC   H4S 4474   1.572   2.965   6.226  2.5987  2.6938  0.8763
   59SAPC   C25 4475   1.648   2.838   6.060 -0.4009 -0.8544  0.1781
   59SAPC   H5R 4476   1.553   2.788   6.036 -0.5820 -0.7650  0.6873
   59SAPC   C26 4477   1.747   2.837   5.964  0.1898 -0.3832  0.1164
   59SAPC   H6R 4478   1.722   2.794   5.866  0.5644  3.3303 -1.7864
   59SAPC   C27 4479   1.877   2.900   5.989 -0.7731 -0.0183 -0.2364
   59SAPC   H7R 4480   1.905   2.891   6.096 -1.8312 -0.2418  0.0290
   59SAPC   H7S 4481   1.865   3.009   5.972 -0.9836  0.1607  0.9674
   59SAPC   C28 4482   2.002   2.856   5.909  0.9860 -0.3788 -0.6839
   59SAPC   H8R 4483   2.050   2.772   5.961  1.2814 -0.7126 -1.4703
   59SAPC   C29 4484   2.049   2.905   5.792  0.6593  0.1873 -0.4162
   59SAPC   H9R 4485   2.142   2.862   5.753  0.1982 -0.8407 -0.4219
   59SAPC  C210 4486   1.996   3.021   5.705 -0.0166 -0.2579  0.2202
   59SAPC  H10R 4487   1.936   3.095   5.764  1.6532  0.6306  0.8556
   59SAPC  H10S 4488   1.914   2.979   5.642 -0.5206  0.6111  0.2665
   59SAPC  C211 4489   2.097   3.088   5.616 -0.3032 -0.4306  0.1304
   59SAPC  H11R 4490   2.166   3.152   5.674 -1.1365 -0.8659  1.6503
   59SAPC  C212 4491   2.101   3.072   5.482 -0.6657  0.2951 -0.1511
   59SAPC  H12R 4492   2.194   3.108   5.436 -1.2545  2.3761  0.2023
   59SAPC  C213 4493   2.012   2.995   5.391  0.3632  0.0773  0.3795
   59SAPC  H13R 4494   2.028   3.028   5.286 -1.8682 -0.2365 -0.1094
   59SAPC  H13S 4495   1.904   3.018   5.398  0.0130 -0.8915 -1.3599
   59SAPC  C214 4496   2.021   2.846   5.407  0.1685  0.4745  0.4249
   59SAPC  H14R 4497   2.021   2.816   5.513 -3.3722 -0.0672  0.3985
   59SAPC  C215 4498   2.018   2.748   5.318 -0.8312 -0.5677 -0.2758
   59SAPC  H15R 4499   2.024   2.642   5.348 -1.4944 -0.9868 -1.5077
   59SAPC  C216 4500   1.995   2.775   5.172 -0.9172  0.5805 -0.1782
   59SAPC  H16R 4501   1.941   2.872   5.160  0.1165  1.3320  0.9523
   59SAPC  H16S 4502   1.930   2.693   5.135  1.2250  0.2112 -3.6018
   59SAPC  C217 4503   2.126   2.786   5.093 -0.5882 -0.5694  0.2643
   59SAPC  H17R 4504   2.178   2.691   5.117 -0.0421  0.0828  1.8096
   59SAPC  H17S 4505   2.185   2.875   5.127 -0.8547 -0.3425  0.1362
   59SAPC  C218 4506   2.101   2.786   4.943  0.4294  0.3375  0.0704
   59SAPC  H18R 4507   2.042   2.878   4.924 -0.7522 -0.1186  1.3373
   59SAPC  H18S 4508   2.030   2.702   4.932 -0.7304  1.2216  0.5621
   59SAPC  C219 4509   2.237   2.777   4.866  0.5207  0.1533  0.3845
   59SAPC  H19R 4510   2.283   2.680   4.894 -2.4146 -1.1784  0.9052
   59SAPC  H19S 4511   2.303   2.863   4.889  2.2695 -0.3766 -2.2364
   59SAPC  C220 4512   2.212   2.795   4.719 -0.0007 -0.0310 -0.2910
   59SAPC  H20R 4513   2.114   2.749   4.693 -0.3469  0.7129 -0.3434
   59SAPC  H20S 4514   2.298   2.751   4.664  1.7860 -0.4042  2.6530
   59SAPC  H20T 4515   2.209   2.903   4.692  0.5267 -0.0335 -0.3742
   59SAPC   C33 4516   1.663   3.301   6.237  0.0317  0.2852 -0.3884
   59SAPC   H3X 4517   1.768   3.266   6.246  0.8327  1.5692 -3.5050
   59SAPC   H3Y 4518   1.652   3.411   6.253  0.3602  0.5014 -1.5714
   59SAPC   C34 4519   1.609   3.257   6.106 -0.5391 -0.4151 -0.0279
   59SAPC   H4X 4520   1.500   3.276   6.111 -0.0785  2.5477  0.0831
   59SAPC   H4Y 4521   1.610   3.146   6.095 -0.9966 -0.2868 -1.6628
   59SAPC   C35 4522   1.674   3.324   5.983  0.3535  0.2321  0.2805
   59SAPC   H5X 4523   1.783   3.319   6.004  0.3138  1.3274  0.8036
   59SAPC   H5Y 4524   1.642   3.430   5.986 -2.2308 -0.4740 -0.2369
   59SAPC   C36 4525   1.642   3.245   5.858  0.4632 -0.3259  1.1108
   59SAPC   H6X 4526   1.532   3.241   5.843  0.4914  0.6837  0.4840
   59SAPC   H6Y 4527   1.684   3.143   5.859  2.0639  0.2698 -0.3476
   59SAPC   C37 4528   1.691   3.319   5.724 -0.1369 -0.2045 -0.3635
   59SAPC   H7X 4529   1.801   3.339   5.731  0.0725 -0.2704 -2.6376
   59SAPC   H7Y 4530   1.639   3.416   5.712 -1.7796 -1.0343 -0.1146
   59SAPC   C38 4531   1.661   3.245   5.599 -0.3430  0.2067  0.0157
   59SAPC   H8X 4532   1.554   3.229   5.576 -0.4855 -0.1181  0.8407
   59SAPC   H8Y 4533   1.714   3.148   5.610  1.7007  1.0909 -1.5012
   59SAPC   C39 4534   1.717   3.310   5.472 -0.9353 -0.3256 -0.4330
   59SAPC   H9X 4535   1.828   3.313   5.474 -0.9422  1.2988 -1.3121
   59SAPC   H9Y 4536   1.689   3.416   5.459  3.5649  1.0689 -0.5609
   59SAPC  C310 4537   1.682   3.225   5.344 -0.0277  1.1257 -0.0559
   59SAPC  H10X 4538   1.574   3.239   5.326 -0.3603 -1.1631 -0.0977
   59SAPC  H10Y 4539   1.685   3.117   5.369 -1.1023  1.1178  0.0590
   59SAPC  C311 4540   1.764   3.254   5.219  0.0658  0.0600  0.2865
   59SAPC  H11X 4541   1.861   3.202   5.229  0.1814  0.0831 -0.6283
   59SAPC  H11Y 4542   1.784   3.364   5.214 -1.2426  0.2759 -1.2817
   59SAPC  C312 4543   1.680   3.223   5.085  0.0601 -0.1099 -0.4136
   59SAPC  H12X 4544   1.587   3.283   5.078 -1.6021 -2.6287 -1.5140
   59SAPC  H12Y 4545   1.652   3.117   5.101 -1.1293 -0.1534 -2.4720
   59SAPC  C313 4546   1.757   3.214   4.953 -0.2891 -0.0049  0.0553
   59SAPC  H13X 4547   1.858   3.176   4.981 -0.4977 -1.4949 -1.1003
   59SAPC  H13Y 4548   1.775   3.315   4.910  2.1396 -0.4320 -0.0875
   59SAPC  C314 4549   1.690   3.127   4.851  0.1100  0.1267 -0.0231
   59SAPC  H14X 4550   1.603   3.181   4.809 -1.8869 -2.0277  1.1059
   59SAPC  H14Y 4551   1.640   3.039   4.896  2.1898 -1.9429 -1.4839
   59SAPC  C315 4552   1.775   3.097   4.726  0.5057 -0.3696 -0.1725
   59SAPC  H15X 4553   1.877   3.078   4.766  0.0993  3.1621  3.1840
   59SAPC  H15Y 4554   1.779   3.180   4.652  0.4952  0.5660  0.8493
   59SAPC  C316 4555   1.726   2.981   4.654 -0.2451  0.1520 -0.3681
   59SAPC  H16X 4556   1.615   2.994   4.652 -0.1380  1.9883  2.0518
   59SAPC  H16Y 4557   1.750   2.890   4.713 -0.0164  0.4621  0.0146
   59SAPC  C317 4558   1.793   2.981   4.515  0.7832 -0.3065  0.1092
   59SAPC  H17X 4559   1.762   3.072   4.459  0.0889 -0.2413  0.5892
   59SAPC  H17Y 4560   1.761   2.885   4.469 -2.5718 -0.6963  2.8314
   59SAPC  C318 4561   1.945   2.987   4.521 -0.5825  0.4879  0.4700
   59SAPC  H18X 4562   1.980   3.085   4.559  1.7625 -0.9589  2.3183
   59SAPC  H18Y 4563   1.977   2.950   4.422 -1.7537 -3.3649  1.3434
   59SAPC  H18Z 4564   1.990   2.916   4.594 -0.0283  0.2400 -0.1107
   60SAPC     N 4565   1.609   4.125   6.703 -0.0322 -0.0290 -0.6956
   60SAPC   C12 4566   1.630   4.283   6.697 -0.7883  0.1128  0.1067
   60SAPC  H12A 4567   1.736   4.296   6.712 -0.2648 -2.1237 -1.2701
   60SAPC  H12B 4568   1.585   4.325   6.786  0.4340  2.3974 -0.2874
   60SAPC   C13 4569   1.689   4.059   6.596  0.5350 -0.2868  0.0974
   60SAPC  H13A 4570   1.663   4.108   6.503  0.3982  1.9075  1.2178
   60SAPC  H13B 4571   1.795   4.075   6.612  0.1051  0.4705  2.5557
   60SAPC  H13C 4572   1.663   3.954   6.593  2.7310 -0.8802 -0.1179
   60SAPC   C14 4573   1.636   4.066   6.844 -0.4551 -0.1115  0.2272
   60SAPC  H14A 4574   1.652   3.960   6.838  0.1919  0.0362 -1.1959
   60SAPC  H14B 4575   1.728   4.109   6.881 -0.3609 -1.5840  1.7939
   60SAPC  H14C 4576   1.557   4.096   6.911  0.4291  0.8487  0.8824
   60SAPC   C15 4577   1.461   4.108   6.677 -0.0959  0.2095  0.2245
   60SAPC  H15A 4578   1.399   4.182   6.726  2.0550  1.9572  0.4665
   60SAPC  H15B 4579   1.440   4.136   6.575  0.8316  0.3257  0.0651
   60SAPC  H15C 4580   1.434   4.007   6.704  3.3275  0.0509  3.9087
   60SAPC   C11 4581   1.581   4.358   6.566 -0.0982  0.7947  0.2493
   60SAPC  H11A 4582   1.593   4.468   6.570  0.3635  0.8828 -2.0966
   60SAPC  H11B 4583   1.471   4.344   6.559 -0.0545 -0.0694  1.1260
   60SAPC     P 4584   1.812   4.358   6.441 -0.1742  0.1413  0.0482
   60SAPC   O13 4585   1.818   4.503   6.428 -0.5235 -0.5230  0.0191
   60SAPC   O14 4586   1.887   4.292   6.546 -0.2064  0.1821 -0.0360
   60SAPC   O12 4587   1.654   4.315   6.443  0.0006 -0.1224  0.0931
   60SAPC   O11 4588   1.865   4.297   6.308 -0.5915  0.3554  0.0736
   60SAPC    C1 4589   1.823   4.175   6.258 -0.2414  0.0843  0.3767
   60SAPC    HA 4590   1.900   4.096   6.265  0.5495  0.8212  0.1228
   60SAPC    HB 4591   1.744   4.124   6.319  0.1366  0.4839  1.2204
   60SAPC    C2 4592   1.771   4.179   6.110 -0.0027 -0.0694 -0.3350
   60SAPC    HS 4593   1.735   4.077   6.083 -1.3019  0.3489 -0.2323
   60SAPC   O21 4594   1.866   4.226   6.017 -0.4745 -0.0037 -0.0754
   60SAPC   C21 4595   1.966   4.134   5.991  0.5601 -0.0174 -0.4151
   60SAPC   O22 4596   1.977   4.019   6.038  0.2188  0.2830  0.1723
   60SAPC   C22 4597   2.071   4.188   5.890  0.7424 -0.0347 -0.0545
   60SAPC   H2R 4598   2.124   4.265   5.950 -0.0340 -0.7077  1.5665
   60SAPC   H2S 4599   2.137   4.102   5.865  2.6273  1.2248  0.3353
   60SAPC    C3 4600   1.646   4.280   6.099 -0.2357  0.2060 -0.5566
   60SAPC    HX 4601   1.658   4.368   6.166  0.5239  1.0836 -1.8070
   60SAPC    HY 4602   1.562   4.226   6.148  2.8995 -2.3716  2.4591
   60SAPC   O31 4603   1.608   4.309   5.960 -0.1658 -0.2871  0.4850
   60SAPC   C31 4604   1.662   4.418   5.909 -0.6024  0.4105  0.1603
   60SAPC   O32 4605   1.737   4.502   5.960  0.3120  0.2730 -0.1636
   60SAPC   C32 4606   1.634   4.402   5.755 -0.4157 -0.2458  0.8493
   60SAPC   H2X 4607   1.523   4.401   5.747 -0.6368  1.3489  2.6896
   60SAPC   H2Y 4608   1.672   4.303   5.726  0.0581 -0.1024  0.9785
   60SAPC   C23 4609   2.008   4.254   5.759 -0.4074  0.2714  0.2310
   60SAPC   H3R 4610   2.089   4.315   5.714  0.8165 -0.5253  1.2669
   60SAPC   H3S 4611   1.926   4.325   5.785  0.0018  0.6842  0.4131
   60SAPC   C24 4612   1.957   4.144   5.672  0.5297  0.0179 -0.2666
   60SAPC   H4R 4613   1.870   4.188   5.619 -0.5528  1.2847  2.3386
   60SAPC   H4S 4614   1.909   4.057   5.721 -0.3262 -0.4081 -1.8055
   60SAPC   C25 4615   2.060   4.096   5.574  0.0115 -0.6299 -0.7717
   60SAPC   H5R 4616   2.106   3.998   5.594 -0.0190 -0.7326 -1.1884
   60SAPC   C26 4617   2.092   4.145   5.455  1.3556 -0.5331 -0.3955
   60SAPC   H6R 4618   2.170   4.093   5.397  1.4119 -1.3175  0.3686
   60SAPC   C27 4619   2.019   4.259   5.382  0.1476 -0.3217 -0.1972
   60SAPC   H7R 4620   2.021   4.353   5.442  1.7456 -0.2216 -0.3672
   60SAPC   H7S 4621   1.913   4.228   5.372  0.4093 -1.8706  1.4895
   60SAPC   C28 4622   2.067   4.280   5.245  0.3834  0.3194 -0.0786
   60SAPC   H8R 4623   2.154   4.346   5.240  2.2901 -2.1321 -1.0022
   60SAPC   C29 4624   2.014   4.216   5.141 -0.7894  0.3065 -0.0878
   60SAPC   H9R 4625   2.032   4.256   5.040  1.0751  2.7833  1.1339
   60SAPC  C210 4626   1.915   4.103   5.142  0.5184 -0.0356 -0.4562
   60SAPC  H10R 4627   1.899   4.066   5.245  0.4796  0.0066 -0.4465
   60SAPC  H10S 4628   1.962   4.022   5.082 -0.7357 -0.9813 -0.2183
   60SAPC  C211 4629   1.783   4.133   5.082 -0.0119  0.6186 -0.2386
   60SAPC  H11R 4630   1.716   4.176   5.157 -0.8490 -0.2281 -0.4771
   60SAPC  C212 4631   1.735   4.112   4.957 -0.3208  0.3127 -0.2208
   60SAPC  H12R 4632   1.636   4.153   4.935 -0.8031  0.7509  2.3652
   60SAPC  C213 4633   1.817   4.051   4.846 -1.0183  0.1948 -0.6144
   60SAPC  H13R 4634   1.784   3.948   4.822 -1.4184  0.5012 -1.4351
   60SAPC  H13S 4635   1.922   4.032   4.877 -0.6969 -0.2807 -1.9051
   60SAPC  C214 4636   1.817   4.133   4.714  0.3884 -0.1747 -0.6786
   60SAPC  H14R 4637   1.827   4.243   4.721 -1.1403 -0.1298  1.7806
   60SAPC  C215 4638   1.750   4.105   4.599 -0.0449  0.4612 -0.8282
   60SAPC  H15R 4639   1.748   4.182   4.520  2.5983  1.9949  0.4576
   60SAPC  C216 4640   1.680   3.977   4.552  0.5830 -1.5354  0.1539
   60SAPC  H16R 4641   1.643   3.930   4.645  0.1259 -2.7552 -0.6232
   60SAPC  H16S 4642   1.739   3.900   4.497 -0.7632 -3.0093  0.6983
   60SAPC  C217 4643   1.545   4.015   4.485 -0.3454  0.5514 -0.2853
   60SAPC  H17R 4644   1.561   4.043   4.379  4.8607  1.1339  0.3868
   60SAPC  H17S 4645   1.494   4.101   4.534  0.3358  0.9167 -0.1998
   60SAPC  C218 4646   1.442   3.894   4.479 -0.1381 -0.9549  0.4390
   60SAPC  H18R 4647   1.376   3.900   4.568  2.1077  0.1348  2.1100
   60SAPC  H18S 4648   1.494   3.796   4.475 -2.1784 -2.1121  1.0964
   60SAPC  C219 4649   1.342   3.907   4.356 -0.3608  0.4595 -0.1105
   60SAPC  H19R 4650   1.264   3.830   4.374  0.7231 -0.5610  0.3446
   60SAPC  H19S 4651   1.386   3.877   4.259  0.9619  0.4887  0.4611
   60SAPC  C220 4652   1.286   4.048   4.351  0.1007 -0.5575 -0.4020
   60SAPC  H20R 4653   1.195   4.063   4.290  0.4427  2.5259 -0.3148
   60SAPC  H20S 4654   1.370   4.103   4.304  1.1630 -1.5682  0.2519
   60SAPC  H20T 4655   1.262   4.079   4.455  1.6278 -2.9064  0.7481
   60SAPC   C33 4656   1.707   4.507   5.671  0.2007 -0.4528  0.5201
   60SAPC   H3X 4657   1.812   4.530   5.701  1.0149 -0.3036 -2.2196
   60SAPC   H3Y 4658   1.652   4.603   5.676  0.3080 -0.3378 -0.4685
   60SAPC   C34 4659   1.706   4.453   5.528 -0.0826  0.7587  0.5548
   60SAPC   H4X 4660   1.607   4.413   5.497  0.7380 -1.3734  0.5068
   60SAPC   H4Y 4661   1.772   4.365   5.541 -0.5157  0.6209  2.0693
   60SAPC   C35 4662   1.762   4.547   5.428  0.0904  0.6416  0.4797
   60SAPC   H5X 4663   1.873   4.551   5.432  0.2980 -0.8358 -2.0205
   60SAPC   H5Y 4664   1.721   4.646   5.459 -1.5165 -0.0484  0.6424
   60SAPC   C36 4665   1.732   4.508   5.281  0.4375  0.2195  0.5951
   60SAPC   H6X 4666   1.629   4.492   5.242  1.2181 -0.8520 -1.1242
   60SAPC   H6Y 4667   1.777   4.407   5.292 -1.3104 -0.4757  1.8667
   60SAPC   C37 4668   1.807   4.594   5.187 -0.0152 -0.4900 -0.5370
   60SAPC   H7X 4669   1.916   4.584   5.209 -0.0509 -1.4355 -0.7532
   60SAPC   H7Y 4670   1.782   4.700   5.206  1.0855 -0.2220 -0.4895
   60SAPC   C38 4671   1.773   4.569   5.040  0.5054 -0.1157  0.5128
   60SAPC   H8X 4672   1.668   4.604   5.027  0.1440 -0.4337  2.2717
   60SAPC   H8Y 4673   1.792   4.463   5.012 -0.0538 -0.2427  0.5912
   60SAPC   C39 4674   1.868   4.651   4.950  0.0112 -0.2797 -0.6135
   60SAPC   H9X 4675   1.974   4.619   4.952  0.8278  2.1205 -1.7625
   60SAPC   H9Y 4676   1.854   4.751   4.996  0.0370  0.2825 -1.7654
   60SAPC  C310 4677   1.822   4.668   4.804  0.8018 -0.5674  0.1340
   60SAPC  H10X 4678   1.892   4.735   4.751  0.9337 -1.8056 -1.3424
   60SAPC  H10Y 4679   1.719   4.710   4.800  1.6648  1.6324 -0.3921
   60SAPC  C311 4680   1.826   4.537   4.721  0.2977  0.0580 -0.0350
   60SAPC  H11X 4681   1.740   4.471   4.745  1.7095 -1.8161  0.1340
   60SAPC  H11Y 4682   1.924   4.486   4.732 -0.1284 -1.2294 -1.7201
   60SAPC  C312 4683   1.811   4.572   4.574  0.1958  0.0274  0.8815
   60SAPC  H12X 4684   1.881   4.650   4.536  0.1492 -1.1720 -1.8870
   60SAPC  H12Y 4685   1.707   4.607   4.561  0.2978  0.3633  0.9624
   60SAPC  C313 4686   1.799   4.454   4.480  0.5854 -0.2540  0.7874
   60SAPC  H13X 4687   1.723   4.380   4.512 -0.8183  0.4961 -0.6882
   60SAPC  H13Y 4688   1.900   4.407   4.484  0.2282 -1.2401 -0.9348
   60SAPC  C314 4689   1.768   4.502   4.339  0.6248  1.2130 -0.9276
   60SAPC  H14X 4690   1.844   4.450   4.276  3.5081  1.4339  2.0916
   60SAPC  H14Y 4691   1.782   4.612   4.332 -0.5952  1.5862  1.4653
   60SAPC  C315 4692   1.619   4.486   4.299 -0.6088 -0.0468 -0.2546
   60SAPC  H15X 4693   1.554   4.538   4.373 -0.1781  0.8428 -0.4814
   60SAPC  H15Y 4694   1.612   4.376   4.308 -1.1749  0.1447  2.3625
   60SAPC  C316 4695   1.585   4.538   4.159  0.3933 -0.0042 -1.0125
   60SAPC  H16X 4696   1.494   4.488   4.122 -1.7065  3.1819 -0.5595
   60SAPC  H16Y 4697   1.668   4.512   4.089  0.9767 -1.0763  0.0485
   60SAPC  C317 4698   1.562   4.686   4.148  0.2313  0.1901  0.6554
   60SAPC  H17X 4699   1.656   4.738   4.176  0.2187  0.2980  0.4994
   60SAPC  H17Y 4700   1.486   4.726   4.219 -0.8456 -1.6840  0.6125
   60SAPC  C318 4701   1.527   4.734   4.011 -0.1340  0.1417 -0.0436
   60SAPC  H18X 4702   1.434   4.682   3.978  0.3267 -3.8129  3.8706
   60SAPC  H18Y 4703   1.609   4.703   3.943  0.8618  1.1169  0.6749
   60SAPC  H18Z 4704   1.509   4.844   4.004 -0.7565  0.0065 -0.6905
   61SAPC     N 4705   6.733   3.360   7.037 -0.3253  0.4920 -0.4525
   61SAPC   C12 4706   6.619   3.346   6.940 -0.0256 -0.3502  0.0464
   61SAPC  H12A 4707   6.591   3.443   6.900  1.4138 -0.6845 -1.9483
   61SAPC  H12B 4708   6.528   3.312   6.987  0.3485  0.5867  1.5112
   61SAPC   C13 4709   6.811   3.473   7.002 -0.1383  0.6279 -0.4176
   61SAPC  H13A 4710   6.883   3.465   6.921 -0.2166  0.8818 -0.5138
   61SAPC  H13B 4711   6.756   3.564   6.981 -0.1139  0.8332  0.3861
   61SAPC  H13C 4712   6.876   3.498   7.085  0.7286  0.8389 -1.1320
   61SAPC   C14 4713   6.672   3.396   7.169 -0.0218 -0.8153  0.5743
   61SAPC  H14A 4714   6.742   3.443   7.237 -1.5195 -0.4141  1.8849
   61SAPC  H14B 4715   6.599   3.473   7.149  0.5636 -0.8678 -2.0574
   61SAPC  H14C 4716   6.617   3.315   7.216 -1.4370  0.0626  0.4825
   61SAPC   C15 4717   6.829   3.243   7.046  0.7374  0.1058  0.1485
   61SAPC  H15A 4718   6.769   3.167   7.095 -2.3412 -0.2637 -3.6973
   61SAPC  H15B 4719   6.860   3.207   6.949  1.5090 -0.6529  0.6665
   61SAPC  H15C 4720   6.919   3.274   7.097  0.5207 -0.2049  0.7320
   61SAPC   C11 4721   6.648   3.261   6.815  0.4431 -0.1782 -0.3823
   61SAPC  H11A 4722   6.749   3.287   6.774  0.6202  0.1030  0.2137
   61SAPC  H11B 4723   6.570   3.276   6.737  0.0767 -2.2769 -0.4537
   61SAPC     P 4724   6.700   3.008   6.752  0.0693  0.2091 -0.1510
   61SAPC   O13 4725   6.843   3.032   6.733  0.3849  0.0370 -0.2581
   61SAPC   O14 4726   6.643   2.880   6.790 -0.0780  0.3044  0.0444
   61SAPC   O12 4727   6.646   3.123   6.855 -0.1657  0.2971 -0.1829
   61SAPC   O11 4728   6.632   3.062   6.621 -0.3412  0.5393  0.7567
   61SAPC    C1 4729   6.493   3.020   6.594  0.5097  0.5827  0.7029
   61SAPC    HA 4730   6.433   3.029   6.687 -0.1811  0.3668  0.2847
   61SAPC    HB 4731   6.451   3.087   6.517  0.0393 -1.1893 -0.6376
   61SAPC    C2 4732   6.478   2.873   6.538  0.2220  0.4076  0.5750
   61SAPC    HS 4733   6.487   2.807   6.627  1.9130 -0.5122 -0.2304
   61SAPC   O21 4734   6.584   2.846   6.446  0.1235  0.3441  0.2637
   61SAPC   C21 4735   6.602   2.711   6.435 -0.3137 -0.8014 -0.1466
   61SAPC   O22 4736   6.547   2.624   6.502  0.0695 -0.8252  0.1225
   61SAPC   C22 4737   6.714   2.685   6.333  0.5448 -0.3861  0.5208
   61SAPC   H2R 4738   6.804   2.746   6.354  0.3339  0.6867 -1.4218
   61SAPC   H2S 4739   6.741   2.577   6.332 -0.3404 -0.6126  0.2750
   61SAPC    C3 4740   6.336   2.835   6.477  0.4298  0.5320  0.0040
   61SAPC    HX 4741   6.267   2.869   6.557  0.1736  0.3519 -0.1429
   61SAPC    HY 4742   6.329   2.724   6.481  0.7081  0.3651 -2.6067
   61SAPC   O31 4743   6.316   2.886   6.351  0.3335  0.4414  0.0938
   61SAPC   C31 4744   6.330   2.799   6.256  0.5677 -0.9151  0.0009
   61SAPC   O32 4745   6.338   2.677   6.262 -0.3106 -0.5903  0.3165
   61SAPC   C32 4746   6.324   2.877   6.127  0.5847  0.2173 -0.3830
   61SAPC   H2X 4747   6.418   2.935   6.121  1.6860 -1.5681 -1.4093
   61SAPC   H2Y 4748   6.243   2.951   6.145  0.5271 -0.2790  1.6457
   61SAPC   C23 4749   6.682   2.719   6.186 -0.2844 -0.0885  0.6331
   61SAPC   H3R 4750   6.637   2.821   6.190 -1.1400 -0.3081 -1.7587
   61SAPC   H3S 4751   6.604   2.652   6.143 -0.3511  0.8592 -0.8283
   61SAPC   C24 4752   6.807   2.720   6.084  0.6075  0.3850 -0.1703
   61SAPC   H4R 4753   6.880   2.640   6.107  0.5810  0.4790  0.2526
   61SAPC   H4S 4754   6.859   2.813   6.116  0.6313  0.2959  0.0580
   61SAPC   C25 4755   6.768   2.726   5.938  0.0694  0.0561  0.3753
   61SAPC   H5R 4756   6.700   2.644   5.910 -2.0083  1.8098  0.0093
   61SAPC   C26 4757   6.772   2.832   5.852 -0.7162 -0.1739  0.4631
   61SAPC   H6R 4758   6.731   2.814   5.752 -2.0300 -1.3964  1.1749
   61SAPC   C27 4759   6.842   2.961   5.882  0.3217  0.7049 -0.5308
   61SAPC   H7R 4760   6.910   2.981   5.796 -0.3213  0.8463 -1.0059
   61SAPC   H7S 4761   6.909   2.960   5.971  1.0139 -0.8951 -1.0307
   61SAPC   C28 4762   6.730   3.064   5.902  0.7215 -0.6545 -0.2355
   61SAPC   H8R 4763   6.671   3.065   5.995 -1.1042  2.1167 -1.3042
   61SAPC   C29 4764   6.715   3.168   5.819 -1.0462 -0.1615  0.7863
   61SAPC   H9R 4765   6.642   3.245   5.848 -2.0822 -0.4400 -0.9465
   61SAPC  C210 4766   6.781   3.191   5.684  0.1888  0.1851  0.2389
   61SAPC  H10R 4767   6.783   3.100   5.620 -1.4325 -0.6291  1.2992
   61SAPC  H10S 4768   6.886   3.219   5.704  0.7607 -1.1808 -0.6858
   61SAPC  C211 4769   6.695   3.288   5.607  0.2067 -0.7058 -0.4776
   61SAPC  H11R 4770   6.636   3.357   5.668  0.8924  0.4850 -1.1338
   61SAPC  C212 4771   6.655   3.288   5.474  0.1437 -0.1361 -0.3399
   61SAPC  H12R 4772   6.582   3.369   5.456 -2.3235 -2.1162  0.1898
   61SAPC  C213 4773   6.711   3.213   5.356 -0.0173  0.6256 -0.5628
   61SAPC  H13R 4774   6.817   3.195   5.386  0.1444  0.8578 -0.9811
   61SAPC  H13S 4775   6.707   3.276   5.265 -1.1052  0.7702 -0.4307
   61SAPC  C214 4776   6.637   3.080   5.353 -0.1025 -0.3380 -0.1396
   61SAPC  H14R 4777   6.574   3.056   5.439 -0.3976 -1.0909 -0.5609
   61SAPC  C215 4778   6.616   3.004   5.242 -0.3417 -0.9095 -1.2011
   61SAPC  H15R 4779   6.555   2.913   5.237 -1.6760 -0.2933  1.7137
   61SAPC  C216 4780   6.696   3.028   5.111 -0.1080 -0.4949 -0.3128
   61SAPC  H16R 4781   6.746   2.936   5.074  0.6050  0.4998 -1.9529
   61SAPC  H16S 4782   6.787   3.092   5.123 -1.6080  2.2480 -2.5042
   61SAPC  C217 4783   6.634   3.102   4.987 -0.2907 -0.0038 -0.1881
   61SAPC  H17R 4784   6.716   3.155   4.933 -1.1009 -1.4787 -3.0734
   61SAPC  H17S 4785   6.563   3.174   5.034  1.4587  0.7341  1.4854
   61SAPC  C218 4786   6.574   3.002   4.889  0.0471 -0.4380  0.1483
   61SAPC  H18R 4787   6.497   2.942   4.942 -2.0345  0.1757 -2.0059
   61SAPC  H18S 4788   6.657   2.933   4.862  1.9336  1.5924  0.4951
   61SAPC  C219 4789   6.505   3.066   4.776  0.0165 -0.1728 -0.4269
   61SAPC  H19R 4790   6.407   3.098   4.818 -0.8858 -0.7252 -2.0231
   61SAPC  H19S 4791   6.489   2.980   4.708 -0.0892 -2.8484  2.7247
   61SAPC  C220 4792   6.582   3.173   4.704  0.4697 -0.3346  0.8097
   61SAPC  H20R 4793   6.684   3.128   4.707  0.7277  0.1676 -0.2081
   61SAPC  H20S 4794   6.566   3.271   4.752 -1.8388  0.8702 -2.1178
   61SAPC  H20T 4795   6.549   3.182   4.599 -2.3833  0.9931  1.7252
   61SAPC   C33 4796   6.292   2.810   5.993  0.1862 -0.2565 -0.1100
   61SAPC   H3X 4797   6.183   2.808   5.972  0.3300 -0.7473 -0.8659
   61SAPC   H3Y 4798   6.333   2.706   5.990  0.3316 -0.1958 -0.2342
   61SAPC   C34 4799   6.375   2.858   5.871  0.2180 -0.3622 -0.0669
   61SAPC   H4X 4800   6.470   2.803   5.858  1.3943  0.6469  3.2571
   61SAPC   H4Y 4801   6.409   2.961   5.899  1.4550 -1.1467  1.4844
   61SAPC   C35 4802   6.297   2.878   5.740 -0.6196  0.0466  0.0517
   61SAPC   H5X 4803   6.352   2.953   5.680  1.4149 -1.6947 -0.4249
   61SAPC   H5Y 4804   6.198   2.922   5.760 -0.7369 -0.3455  0.3594
   61SAPC   C36 4805   6.283   2.755   5.656  0.1187  0.0889 -0.4223
   61SAPC   H6X 4806   6.242   2.671   5.717  1.5897  0.1864  0.7444
   61SAPC   H6Y 4807   6.383   2.723   5.621  0.0834 -2.6804  1.6946
   61SAPC   C37 4808   6.197   2.785   5.533  0.0136  0.6784 -0.4714
   61SAPC   H7X 4809   6.093   2.812   5.561  0.3814  1.5661  0.0641
   61SAPC   H7Y 4810   6.194   2.686   5.482  0.4883  0.2905  0.2264
   61SAPC   C38 4811   6.248   2.884   5.427 -0.0863 -0.8394  0.2993
   61SAPC   H8X 4812   6.358   2.877   5.426 -0.1330 -1.8399  1.0823
   61SAPC   H8Y 4813   6.240   2.989   5.462  1.0871 -0.1735 -1.2831
   61SAPC   C39 4814   6.172   2.860   5.302  0.8747 -0.4222  0.3576
   61SAPC   H9X 4815   6.063   2.872   5.323  0.8675  1.4177 -0.5567
   61SAPC   H9Y 4816   6.190   2.758   5.260 -1.6270 -0.3109 -1.2045
   61SAPC  C310 4817   6.197   2.965   5.194 -0.4892  0.0179  0.3116
   61SAPC  H10X 4818   6.285   2.931   5.135  0.5558 -1.6422  2.6587
   61SAPC  H10Y 4819   6.211   3.060   5.250 -0.7354  0.7669 -0.8752
   61SAPC  C311 4820   6.078   2.984   5.101  0.0452  0.2982  0.1583
   61SAPC  H11X 4821   6.001   3.033   5.164  0.7694 -0.5398  1.7470
   61SAPC  H11Y 4822   6.051   2.879   5.075 -2.7605  1.2152 -1.0597
   61SAPC  C312 4823   6.109   3.076   4.980 -1.2086  0.3879  0.4115
   61SAPC  H12X 4824   6.025   3.068   4.908 -0.4250 -0.6529 -0.4209
   61SAPC  H12Y 4825   6.201   3.043   4.929  0.0315  2.1572  1.3850
   61SAPC  C313 4826   6.139   3.219   5.020 -0.1223  0.5439 -0.4095
   61SAPC  H13X 4827   6.206   3.217   5.109 -0.7567  0.7713  0.0810
   61SAPC  H13Y 4828   6.049   3.259   5.071 -0.0284 -1.3391  1.3669
   61SAPC  C314 4829   6.180   3.309   4.909  0.0556 -0.0401 -0.0876
   61SAPC  H14X 4830   6.279   3.282   4.867  0.5762  2.5925 -0.7982
   61SAPC  H14Y 4831   6.196   3.414   4.942 -0.8088 -0.0229  0.2943
   61SAPC  C315 4832   6.085   3.314   4.788  0.1739 -0.5903 -0.1760
   61SAPC  H15X 4833   5.982   3.330   4.826  0.2504 -1.4658  0.4453
   61SAPC  H15Y 4834   6.080   3.215   4.738 -2.0196 -0.8547  0.4646
   61SAPC  C316 4835   6.124   3.415   4.679 -1.1068  0.1977  0.0925
   61SAPC  H16X 4836   6.105   3.518   4.717 -1.3171  0.1237  0.1871
   61SAPC  H16Y 4837   6.050   3.409   4.596  0.2981 -0.6443 -1.1463
   61SAPC  C317 4838   6.272   3.408   4.642 -0.1067  0.0152  0.4939
   61SAPC  H17X 4839   6.343   3.395   4.726  0.2620 -0.1396  0.1596
   61SAPC  H17Y 4840   6.295   3.506   4.595  2.7173 -1.8277 -2.4289
   61SAPC  C318 4841   6.311   3.307   4.530 -0.6258  0.0462 -0.2253
   61SAPC  H18X 4842   6.254   3.330   4.437 -1.6287  0.4032  0.4590
   61SAPC  H18Y 4843   6.298   3.200   4.557 -0.2625 -0.4832 -2.0128
   61SAPC  H18Z 4844   6.414   3.330   4.496 -0.6729  1.5753  0.5761
   62SAPC     N 4845   1.854   1.107   6.971 -0.1174 -0.3420 -0.1473
   62SAPC   C12 4846   1.879   1.106   6.825 -0.4621  0.2106 -0.7058
   62SAPC  H12A 4847   1.819   1.026   6.785 -0.8182  0.0038  0.2278
   62SAPC  H12B 4848   1.985   1.093   6.812  0.0623  1.4990  1.6337
   62SAPC   C13 4849   1.710   1.116   7.011 -0.0903 -0.0172 -0.5400
   62SAPC  H13A 4850   1.690   1.119   7.117 -0.3419  0.9481 -0.6072
   62SAPC  H13B 4851   1.660   1.200   6.967  1.5541  1.3357  0.0644
   62SAPC  H13C 4852   1.658   1.023   6.992  1.2381 -1.2794  1.5619
   62SAPC   C14 4853   1.903   0.979   7.034 -0.1780  0.0143  0.7287
   62SAPC  H14A 4854   1.866   0.893   6.980 -1.2406  1.0464 -0.2476
   62SAPC  H14B 4855   2.010   0.977   7.026 -0.1598 -0.2533  1.0023
   62SAPC  H14C 4856   1.883   0.974   7.141  1.7817  1.7773  1.2346
   62SAPC   C15 4857   1.915   1.219   7.044 -0.5364 -0.1719 -0.5635
   62SAPC  H15A 4858   2.021   1.221   7.023 -0.1404 -0.7716  1.2360
   62SAPC  H15B 4859   1.868   1.310   7.009 -0.9280 -0.2385 -0.2233
   62SAPC  H15C 4860   1.911   1.218   7.152  1.6574 -0.8083 -0.4421
   62SAPC   C11 4861   1.846   1.224   6.730 -0.3184 -0.0744 -0.6821
   62SAPC  H11A 4862   1.737   1.223   6.706 -0.2141 -0.0295 -1.1618
   62SAPC  H11B 4863   1.901   1.194   6.639  1.6482  2.0760 -0.2706
   62SAPC     P 4864   1.980   1.448   6.689  0.4978  0.0841 -0.1676
   62SAPC   O13 4865   2.039   1.543   6.790  0.4388  0.1037  0.5893
   62SAPC   O14 4866   2.066   1.368   6.598 -0.7293 -0.4054  0.1245
   62SAPC   O12 4867   1.894   1.348   6.778 -0.1299 -0.7906 -0.0007
   62SAPC   O11 4868   1.879   1.530   6.601 -0.5661  0.0079 -0.1781
   62SAPC    C1 4869   1.841   1.467   6.474  0.4405 -0.2591 -0.2114
   62SAPC    HA 4870   1.926   1.418   6.423  0.4161 -3.5301  2.5733
   62SAPC    HB 4871   1.754   1.400   6.492 -1.4111  1.5896 -1.6900
   62SAPC    C2 4872   1.783   1.567   6.372  0.5718 -0.2968 -0.3019
   62SAPC    HS 4873   1.789   1.536   6.265  2.3332  0.0400 -0.3229
   62SAPC   O21 4874   1.862   1.689   6.377 -0.4251  0.0731 -0.0272
   62SAPC   C21 4875   1.980   1.672   6.330 -0.2900 -0.3865  0.5469
   62SAPC   O22 4876   2.018   1.582   6.258  0.1532  0.2009  0.0221
   62SAPC   C22 4877   2.059   1.797   6.365 -0.7095 -0.0499  0.0035
   62SAPC   H2R 4878   2.005   1.893   6.354  1.1737  1.2226  1.3089
   62SAPC   H2S 4879   2.087   1.775   6.470  0.5533 -0.0097 -0.3014
   62SAPC    C3 4880   1.624   1.596   6.384 -0.2542 -0.7581 -0.0336
   62SAPC    HX 4881   1.593   1.639   6.481  0.0213  0.8373 -0.6154
   62SAPC    HY 4882   1.574   1.497   6.383 -0.2359 -0.7659 -0.9401
   62SAPC   O31 4883   1.570   1.696   6.293  0.2565  0.6444 -0.2285
   62SAPC   C31 4884   1.552   1.650   6.166  0.6717  0.8674 -0.0865
   62SAPC   O32 4885   1.568   1.534   6.130  0.0127 -0.0906 -0.0995
   62SAPC   C32 4886   1.498   1.755   6.074 -0.9792 -0.0582 -0.4040
   62SAPC   H2X 4887   1.410   1.805   6.120  0.4416  1.4084  0.8471
   62SAPC   H2Y 4888   1.471   1.707   5.978  0.0332  1.9894 -1.7965
   62SAPC   C23 4889   2.198   1.809   6.283 -0.1598 -0.2839 -0.0125
   62SAPC   H3R 4890   2.234   1.704   6.295 -1.5081 -0.9641 -1.5175
   62SAPC   H3S 4891   2.252   1.885   6.343  0.0102  0.4705 -1.0821
   62SAPC   C24 4892   2.178   1.854   6.137  0.3485 -1.1101 -0.3732
   62SAPC   H4R 4893   2.101   1.787   6.093 -1.4494 -0.2955  1.3724
   62SAPC   H4S 4894   2.274   1.851   6.081  1.5190  1.3101  1.3208
   62SAPC   C25 4895   2.128   2.002   6.134 -0.0909  0.0872 -0.6415
   62SAPC   H5R 4896   2.126   2.058   6.229 -1.7761 -1.5219  0.3491
   62SAPC   C26 4897   2.116   2.070   6.018  0.4376 -0.5009  0.4569
   62SAPC   H6R 4898   2.088   2.176   6.016 -0.5692 -0.7487  0.7687
   62SAPC   C27 4899   2.131   2.001   5.879 -1.2467 -0.2579 -0.8826
   62SAPC   H7R 4900   2.036   1.956   5.845  0.3662 -3.4698 -1.5576
   62SAPC   H7S 4901   2.208   1.921   5.875  0.2883  1.0027  1.0854
   62SAPC   C28 4902   2.169   2.098   5.775 -0.3961  0.1456  0.6007
   62SAPC   H8R 4903   2.179   2.202   5.809 -0.2622  0.9743 -1.7409
   62SAPC   C29 4904   2.164   2.078   5.640 -0.2218 -0.5872  0.8099
   62SAPC   H9R 4905   2.199   2.163   5.580  0.7983 -1.0454  0.7366
   62SAPC  C210 4906   2.123   1.958   5.564  0.1784  0.2778 -0.1891
   62SAPC  H10R 4907   2.153   1.869   5.623 -1.0938 -1.2200 -1.6949
   62SAPC  H10S 4908   2.168   1.952   5.463 -1.2920 -2.1944 -0.7796
   62SAPC  C211 4909   1.972   1.947   5.538 -0.6077 -0.6330 -0.2280
   62SAPC  H11R 4910   1.917   2.007   5.612  0.2701 -2.9777  2.4874
   62SAPC  C212 4911   1.904   1.895   5.430 -0.1324  1.0818 -0.1408
   62SAPC  H12R 4912   1.794   1.898   5.431 -0.3519 -1.5864  3.3405
   62SAPC  C213 4913   1.966   1.821   5.314  0.3387  0.6421  0.8375
   62SAPC  H13R 4914   1.905   1.730   5.298 -0.6203  1.0616  1.9614
   62SAPC  H13S 4915   2.075   1.812   5.334  0.4454  0.9007  0.3945
   62SAPC  C214 4916   1.967   1.895   5.184 -0.2411 -0.0658 -0.3125
   62SAPC  H14R 4917   1.930   1.998   5.196  1.7487  0.9288 -2.0603
   62SAPC  C215 4918   1.991   1.848   5.057  0.0561  1.1373 -0.3773
   62SAPC  H15R 4919   1.979   1.921   4.976  2.3069  0.7457 -1.1352
   62SAPC  C216 4920   2.056   1.716   5.017 -0.7120 -0.1998  0.3244
   62SAPC  H16R 4921   2.054   1.655   5.110 -1.8714 -0.6336  0.0252
   62SAPC  H16S 4922   2.164   1.723   4.990 -0.5145 -2.9021  0.1219
   62SAPC  C217 4923   1.976   1.651   4.906 -0.0359  0.1256 -0.3613
   62SAPC  H17R 4924   1.874   1.629   4.945 -0.2684 -1.6933 -1.8564
   62SAPC  H17S 4925   2.015   1.551   4.876 -1.2856 -0.3363 -0.5272
   62SAPC  C218 4926   1.968   1.733   4.782 -0.2504  0.1372  0.0453
   62SAPC  H18R 4927   2.070   1.768   4.758  0.1178 -0.8019  0.2249
   62SAPC  H18S 4928   1.900   1.819   4.801  0.6736  1.2584 -1.4418
   62SAPC  C219 4929   1.919   1.655   4.655  0.4686  0.0718 -0.2940
   62SAPC  H19R 4930   1.981   1.565   4.636  0.1971 -0.5020  1.4110
   62SAPC  H19S 4931   1.916   1.730   4.573  1.8251  0.3337 -0.1342
   62SAPC  C220 4932   1.784   1.584   4.679 -0.4646 -0.9515  0.3215
   62SAPC  H20R 4933   1.719   1.658   4.731  0.5287 -0.4715  0.9049
   62SAPC  H20S 4934   1.816   1.504   4.748 -0.1684  1.8074  3.6342
   62SAPC  H20T 4935   1.741   1.543   4.585  0.5434 -0.4771 -0.3710
   62SAPC   C33 4936   1.600   1.863   6.049 -0.0612  0.2036 -0.0654
   62SAPC   H3X 4937   1.691   1.813   6.008  0.4754  0.1378  1.1726
   62SAPC   H3Y 4938   1.630   1.927   6.135  1.7639  5.2650 -3.8707
   62SAPC   C34 4939   1.556   1.967   5.942 -0.3115 -0.5317  0.0824
   62SAPC   H4X 4940   1.468   2.029   5.972  1.3012  0.9135  2.0788
   62SAPC   H4Y 4941   1.521   1.904   5.857  0.3611 -0.5104 -0.2196
   62SAPC   C35 4942   1.660   2.059   5.890  0.7190  0.3478 -0.9152
   62SAPC   H5X 4943   1.760   2.009   5.884  0.7750  0.5892 -2.2565
   62SAPC   H5Y 4944   1.667   2.137   5.969 -1.5093  1.6033 -1.8705
   62SAPC   C36 4945   1.617   2.135   5.760  0.4770  0.0448  0.4880
   62SAPC   H6X 4946   1.704   2.182   5.709 -0.4690  0.3909 -0.8436
   62SAPC   H6Y 4947   1.544   2.214   5.787  1.5634  0.8162  1.2645
   62SAPC   C37 4948   1.546   2.045   5.658  0.1965 -0.5052  0.6934
   62SAPC   H7X 4949   1.448   2.010   5.696  0.1550 -1.4662 -0.2684
   62SAPC   H7Y 4950   1.617   1.964   5.633  1.7250  0.8621  0.4321
   62SAPC   C38 4951   1.515   2.121   5.518 -0.1913 -0.3258  0.2374
   62SAPC   H8X 4952   1.454   2.208   5.549 -0.6441 -1.0595  1.4733
   62SAPC   H8Y 4953   1.445   2.054   5.464  1.0904 -1.1788 -0.4225
   62SAPC   C39 4954   1.640   2.165   5.440 -0.3436  0.2036 -0.0372
   62SAPC   H9X 4955   1.710   2.080   5.427 -1.5869 -1.0187  0.8572
   62SAPC   H9Y 4956   1.690   2.238   5.507  0.5495  0.5120 -1.0189
   62SAPC  C310 4957   1.614   2.218   5.300  0.0471  0.4948 -0.5846
   62SAPC  H10X 4958   1.708   2.268   5.271 -0.7850  0.4925 -3.5295
   62SAPC  H10Y 4959   1.527   2.287   5.289 -0.4658  0.1166  0.8002
   62SAPC  C311 4960   1.618   2.105   5.193 -0.5541  0.1884 -0.4680
   62SAPC  H11X 4961   1.544   2.025   5.217  2.1920 -2.7090 -1.0647
   62SAPC  H11Y 4962   1.716   2.055   5.182  0.2623  2.1546 -3.2928
   62SAPC  C312 4963   1.595   2.174   5.056 -0.1995  0.1058  0.5330
   62SAPC  H12X 4964   1.672   2.251   5.040  0.6255 -0.6198  0.9268
   62SAPC  H12Y 4965   1.494   2.220   5.053 -0.7669 -0.6817  3.8071
   62SAPC  C313 4966   1.603   2.063   4.948 -1.0022 -0.3832 -0.4975
   62SAPC  H13X 4967   1.533   1.981   4.973 -0.6487 -0.4161  0.4604
   62SAPC  H13Y 4968   1.707   2.025   4.958 -0.0666  2.1544  0.2805
   62SAPC  C314 4969   1.575   2.120   4.810  0.1439 -0.6736 -0.1716
   62SAPC  H14X 4970   1.639   2.207   4.785 -1.3639  0.4594 -0.2704
   62SAPC  H14Y 4971   1.470   2.154   4.796  0.3846  0.1142 -0.1198
   62SAPC  C315 4972   1.596   2.006   4.703  0.0736 -0.4014  0.7553
   62SAPC  H15X 4973   1.521   1.924   4.704 -0.5184 -0.0771 -2.9170
   62SAPC  H15Y 4974   1.697   1.963   4.722  1.8101  1.7344 -2.5934
   62SAPC  C316 4975   1.582   2.059   4.558 -0.1361 -0.0604  0.5008
   62SAPC  H16X 4976   1.646   2.148   4.542  1.7166 -1.4363 -0.1108
   62SAPC  H16Y 4977   1.477   2.089   4.540 -0.6297 -2.3249 -0.7654
   62SAPC  C317 4978   1.612   1.950   4.455  0.0916  0.1910 -0.0880
   62SAPC  H17X 4979   1.561   1.975   4.360  0.7580  1.8950 -0.0321
   62SAPC  H17Y 4980   1.576   1.849   4.485  1.8615 -0.6135 -0.5033
   62SAPC  C318 4981   1.766   1.945   4.438  0.4490 -0.4702  0.0071
   62SAPC  H18X 4982   1.801   1.864   4.370  1.6056  1.7064 -2.1509
   62SAPC  H18Y 4983   1.806   1.925   4.540 -0.4844 -1.4899  0.1896
   62SAPC  H18Z 4984   1.807   2.043   4.407 -1.6413 -0.0643 -1.6404
   63SAPC     N 4985   2.806   5.411   6.308 -0.3802  0.0310 -0.2313
   63SAPC   C12 4986   2.851   5.327   6.432 -0.7903  0.5690 -0.1108
   63SAPC  H12A 4987   2.770   5.291   6.493 -1.4183  1.5746 -0.3171
   63SAPC  H12B 4988   2.906   5.394   6.496 -0.1465 -0.3963  0.3607
   63SAPC   C13 4989   2.913   5.399   6.203 -0.6276 -0.6344  0.1497
   63SAPC  H13A 4990   2.996   5.461   6.234 -1.8536  1.9052 -1.3723
   63SAPC  H13B 4991   2.935   5.295   6.184  1.3757 -0.4668  1.2393
   63SAPC  H13C 4992   2.886   5.449   6.111  0.3184  0.0471  0.2206
   63SAPC   C14 4993   2.671   5.356   6.271 -0.2427 -0.2103 -0.0832
   63SAPC  H14A 4994   2.600   5.382   6.348 -0.9103 -0.9919 -0.4130
   63SAPC  H14B 4995   2.628   5.391   6.178 -1.4159 -1.1910  0.0637
   63SAPC  H14C 4996   2.669   5.248   6.276 -3.3579 -0.2705 -0.5970
   63SAPC   C15 4997   2.796   5.558   6.341  0.8971  0.1396 -0.1553
   63SAPC  H15A 4998   2.715   5.575   6.411  1.5380 -0.8886  0.8793
   63SAPC  H15B 4999   2.886   5.613   6.362  1.6379 -0.8167 -0.7070
   63SAPC  H15C 5000   2.755   5.600   6.250  0.0464 -0.5985 -0.1284
   63SAPC   C11 5001   2.935   5.198   6.414  0.2200  0.1431 -0.4285
   63SAPC  H11A 5002   2.953   5.143   6.509  0.7956  1.1440  0.0661
   63SAPC  H11B 5003   3.031   5.240   6.377 -0.6858  1.3513 -1.4975
   63SAPC     P 5004   2.780   5.005   6.332  0.1615 -0.2339  0.3347
   63SAPC   O13 5005   2.825   4.864   6.293  0.9848 -0.0886  0.6647
   63SAPC   O14 5006   2.714   5.016   6.464  0.3175 -0.5814  0.4129
   63SAPC   O12 5007   2.898   5.105   6.311 -0.0649 -0.3734  0.1766
   63SAPC   O11 5008   2.672   5.063   6.225 -0.0362 -0.3500 -0.5148
   63SAPC    C1 5009   2.539   5.009   6.231 -0.2894 -0.6547  0.4196
   63SAPC    HA 5010   2.535   4.920   6.298  2.2812 -0.0910  1.4461
   63SAPC    HB 5011   2.472   5.090   6.265  0.2339 -0.5536  1.2199
   63SAPC    C2 5012   2.501   4.974   6.080 -0.6091  0.7267  0.0792
   63SAPC    HS 5013   2.397   4.942   6.061 -0.4560  0.8117 -0.9611
   63SAPC   O21 5014   2.579   4.873   6.021  0.3869  0.8211  0.9879
   63SAPC   C21 5015   2.567   4.752   6.059  0.3308  0.3842 -0.3452
   63SAPC   O22 5016   2.485   4.710   6.139  0.6020  0.1904  0.1910
   63SAPC   C22 5017   2.668   4.660   5.987 -0.2878 -0.4693 -0.2315
   63SAPC   H2R 5018   2.717   4.724   5.910 -1.3117 -0.0010 -0.5229
   63SAPC   H2S 5019   2.748   4.637   6.061 -1.7910  0.4859  1.8080
   63SAPC    C3 5020   2.531   5.095   5.990  0.0021  0.6964  0.2517
   63SAPC    HX 5021   2.637   5.122   6.006 -0.1671  1.3000  0.3623
   63SAPC    HY 5022   2.465   5.172   6.035  0.2453  1.3934 -0.5725
   63SAPC   O31 5023   2.504   5.078   5.848 -0.5735 -0.2875 -0.2907
   63SAPC   C31 5024   2.546   5.187   5.772  0.0421  0.2372 -0.7623
   63SAPC   O32 5025   2.591   5.292   5.819  0.4989  0.4776 -0.4140
   63SAPC   C32 5026   2.506   5.164   5.628  0.1892  0.2036  0.5023
   63SAPC   H2X 5027   2.400   5.130   5.628  0.1271  0.3912  0.1942
   63SAPC   H2Y 5028   2.554   5.073   5.585  2.8773  1.0958  1.4499
   63SAPC   C23 5029   2.599   4.536   5.923  0.5207 -0.0736  0.1830
   63SAPC   H3R 5030   2.534   4.565   5.837  0.4318 -0.4552  0.1223
   63SAPC   H3S 5031   2.540   4.491   6.006 -0.9510  0.9271 -0.2622
   63SAPC   C24 5032   2.702   4.424   5.885  0.0695  0.6139 -0.3233
   63SAPC   H4R 5033   2.646   4.345   5.831 -0.0070 -0.7544  1.6340
   63SAPC   H4S 5034   2.741   4.377   5.978  2.7890  2.0154 -0.6759
   63SAPC   C25 5035   2.823   4.465   5.802 -0.1547 -0.2383 -0.2410
   63SAPC   H5R 5036   2.919   4.468   5.855  0.5511 -2.4601 -1.2370
   63SAPC   C26 5037   2.820   4.492   5.668  0.5554  0.2773 -0.2245
   63SAPC   H6R 5038   2.912   4.533   5.624 -0.1436  2.4831  0.2419
   63SAPC   C27 5039   2.694   4.473   5.585  0.4769 -0.6803 -1.0283
   63SAPC   H7R 5040   2.617   4.425   5.648 -0.5502  4.1117  1.8695
   63SAPC   H7S 5041   2.706   4.403   5.500  2.3507 -1.5657 -0.0961
   63SAPC   C28 5042   2.653   4.614   5.542 -0.4201 -0.1930 -0.1156
   63SAPC   H8R 5043   2.586   4.665   5.613  1.9094  1.6190  0.9231
   63SAPC   C29 5044   2.681   4.686   5.429 -0.4320 -0.0116 -0.7962
   63SAPC   H9R 5045   2.639   4.786   5.412 -1.5538 -0.5858 -1.5327
   63SAPC  C210 5046   2.749   4.631   5.317 -0.4571 -0.0577  0.0892
   63SAPC  H10R 5047   2.831   4.564   5.350  1.2313  0.3280 -2.9155
   63SAPC  H10S 5048   2.795   4.713   5.257  0.3884 -0.2826  0.4222
   63SAPC  C211 5049   2.661   4.552   5.224  0.4057  0.0257  0.2153
   63SAPC  H11R 5050   2.584   4.488   5.270  0.7748  0.6273  1.7195
   63SAPC  C212 5051   2.674   4.545   5.091  0.5911 -0.2434 -0.6195
   63SAPC  H12R 5052   2.609   4.476   5.036  0.4997 -1.0700  0.5087
   63SAPC  C213 5053   2.765   4.632   5.010 -1.1100  0.2489  0.1845
   63SAPC  H13R 5054   2.871   4.612   5.039 -1.1708 -1.3328 -0.6227
   63SAPC  H13S 5055   2.745   4.739   5.031 -0.5858  0.2234  0.8695
   63SAPC  C214 5056   2.759   4.599   4.861  0.2147  0.3628  0.2237
   63SAPC  H14R 5057   2.840   4.531   4.829  0.6272  0.4508  1.0535
   63SAPC  C215 5058   2.679   4.652   4.769 -0.3129  0.6852 -0.1125
   63SAPC  H15R 5059   2.673   4.611   4.667  1.6134  1.0122 -0.3893
   63SAPC  C216 5060   2.572   4.757   4.801 -0.4222  0.2294 -0.4009
   63SAPC  H16R 5061   2.604   4.856   4.762 -0.2168  0.7818  1.0831
   63SAPC  H16S 5062   2.553   4.765   4.911 -0.7321 -1.2751 -0.3211
   63SAPC  C217 5063   2.433   4.722   4.733  0.5111  0.3972 -0.4978
   63SAPC  H17R 5064   2.436   4.731   4.622 -1.4969  1.6841 -0.4851
   63SAPC  H17S 5065   2.352   4.788   4.769  0.5256  1.4821 -2.3432
   63SAPC  C218 5066   2.389   4.571   4.764 -0.0659 -0.5800  0.0110
   63SAPC  H18R 5067   2.380   4.558   4.874 -0.6314  1.8843  0.3075
   63SAPC  H18S 5068   2.469   4.508   4.720  0.8653  0.8852 -0.4970
   63SAPC  C219 5069   2.250   4.533   4.707  0.1077 -0.5352 -0.5271
   63SAPC  H19R 5070   2.170   4.599   4.748 -0.4752  0.5359 -3.1783
   63SAPC  H19S 5071   2.226   4.433   4.748 -2.1909 -0.7647 -2.2569
   63SAPC  C220 5072   2.250   4.546   4.558  0.3796  0.8509 -0.0379
   63SAPC  H20R 5073   2.326   4.481   4.509  0.7781  2.2474 -1.3498
   63SAPC  H20S 5074   2.265   4.652   4.528  1.9721  1.2848  2.1005
   63SAPC  H20T 5075   2.147   4.511   4.534 -1.5632  2.6356  4.5117
   63SAPC   C33 5076   2.517   5.284   5.530 -0.4281 -0.5401 -0.4714
   63SAPC   H3X 5077   2.622   5.319   5.537 -0.6180 -0.0102 -0.1993
   63SAPC   H3Y 5078   2.456   5.358   5.586  2.6640  0.8039  1.4038
   63SAPC   C34 5079   2.470   5.262   5.381 -0.0394 -0.3212  0.8724
   63SAPC   H4X 5080   2.361   5.239   5.385 -0.3969  1.2074  0.6311
   63SAPC   H4Y 5081   2.536   5.179   5.351  4.0942  3.1652 -0.7497
   63SAPC   C35 5082   2.488   5.377   5.287 -0.6666  0.3193  0.2341
   63SAPC   H5X 5083   2.596   5.397   5.271 -0.2296 -0.3251  2.1210
   63SAPC   H5Y 5084   2.446   5.473   5.322 -1.4823 -0.0268  0.2364
   63SAPC   C36 5085   2.416   5.342   5.157 -0.5513  0.0303 -0.6637
   63SAPC   H6X 5086   2.305   5.340   5.171 -0.5911 -0.0424 -0.9611
   63SAPC   H6Y 5087   2.450   5.242   5.123 -1.0741 -0.6586  0.7887
   63SAPC   C37 5088   2.443   5.448   5.058 -0.1239 -1.1424  0.4140
   63SAPC   H7X 5089   2.553   5.461   5.054 -0.2532 -0.0070  0.1829
   63SAPC   H7Y 5090   2.404   5.545   5.095 -0.6459 -2.0050  2.2641
   63SAPC   C38 5091   2.393   5.407   4.918 -0.0732 -1.1821  0.6737
   63SAPC   H8X 5092   2.282   5.397   4.913 -0.0541 -0.9335 -1.0001
   63SAPC   H8Y 5093   2.439   5.311   4.887  1.8952 -0.3635  0.9115
   63SAPC   C39 5094   2.431   5.503   4.802  0.6047  0.2676  0.6918
   63SAPC   H9X 5095   2.541   5.518   4.812  0.7403 -0.0453 -0.2666
   63SAPC   H9Y 5096   2.378   5.600   4.814  0.3503  0.5034 -1.8707
   63SAPC  C310 5097   2.393   5.448   4.664 -0.3242 -0.7085  0.5456
   63SAPC  H10X 5098   2.285   5.459   4.638 -0.1694  0.1826  0.2464
   63SAPC  H10Y 5099   2.407   5.338   4.655 -0.5681 -0.5802 -2.3787
   63SAPC  C311 5100   2.483   5.517   4.561 -0.2232  0.3624  0.2847
   63SAPC  H11X 5101   2.592   5.505   4.579 -0.5018 -2.1845  0.6722
   63SAPC  H11Y 5102   2.451   5.623   4.576 -0.0472  0.5312 -0.4974
   63SAPC  C312 5103   2.464   5.451   4.425  0.4666 -0.1620 -0.1088
   63SAPC  H12X 5104   2.354   5.452   4.411  0.2375  1.2738  1.4854
   63SAPC  H12Y 5105   2.494   5.344   4.432  0.3109 -0.1866  0.2319
   63SAPC  C313 5106   2.527   5.521   4.308 -0.0788  0.3169 -0.4628
   63SAPC  H13X 5107   2.489   5.483   4.211  0.2820 -0.9305 -0.1423
   63SAPC  H13Y 5108   2.637   5.508   4.312 -0.2540 -2.1028 -1.3642
   63SAPC  C314 5109   2.503   5.671   4.321 -0.9580 -0.7674 -0.4023
   63SAPC  H14X 5110   2.555   5.709   4.411  0.4189 -0.1114 -1.4384
   63SAPC  H14Y 5111   2.394   5.695   4.328 -0.3634  2.3282 -0.2664
   63SAPC  C315 5112   2.549   5.747   4.191  0.2444 -0.1877  0.0637
   63SAPC  H15X 5113   2.528   5.680   4.105  1.0570  0.0438 -0.3221
   63SAPC  H15Y 5114   2.660   5.743   4.190  0.3445  1.7259 -0.2509
   63SAPC  C316 5115   2.495   5.885   4.169  0.0139 -0.4108 -0.3432
   63SAPC  H16X 5116   2.385   5.877   4.156 -0.5385  0.4581  2.8672
   63SAPC  H16Y 5117   2.542   5.926   4.077  0.5502  0.4565  0.3073
   63SAPC  C317 5118   2.520   5.984   4.280 -0.1866  0.6163  0.3070
   63SAPC  H17X 5119   2.485   5.945   4.378 -1.1253 -0.9055 -0.5957
   63SAPC  H17Y 5120   2.460   6.074   4.253  0.3907  0.5634 -1.2627
   63SAPC  C318 5121   2.675   6.016   4.296 -0.1025  0.3150 -0.3010
   63SAPC  H18X 5122   2.728   6.014   4.198  1.1648 -0.0857  0.3750
   63SAPC  H18Y 5123   2.721   5.927   4.343 -1.1395 -0.7670 -1.2462
   63SAPC  H18Z 5124   2.689   6.115   4.345 -1.2204  0.1110  0.4759
   64SAPC     N 5125   1.978   6.464   6.944  0.5516 -0.2115  0.5290
   64SAPC   C12 5126   1.933   6.410   6.809  0.4270 -0.1535 -0.0187
   64SAPC  H12A 5127   1.825   6.398   6.813  0.6074 -2.6432 -0.5838
   64SAPC  H12B 5128   1.975   6.312   6.793 -0.2098 -0.1570 -2.0337
   64SAPC   C13 5129   1.964   6.367   7.058 -0.1254 -0.3231 -0.2697
   64SAPC  H13A 5130   1.989   6.414   7.152  1.0456  0.7964 -1.1084
   64SAPC  H13B 5131   1.864   6.326   7.061 -0.5010  0.5981  0.2015
   64SAPC  H13C 5132   2.036   6.287   7.051  1.6956  1.2261  0.1238
   64SAPC   C14 5133   2.126   6.491   6.933 -0.1644  0.6395  0.5193
   64SAPC  H14A 5134   2.187   6.405   6.910 -0.3148  0.8321 -0.6389
   64SAPC  H14B 5135   2.154   6.555   6.851 -1.2732  1.6914  0.9202
   64SAPC  H14C 5136   2.168   6.539   7.020 -2.7384  1.7498  1.2384
   64SAPC   C15 5137   1.907   6.595   6.978  0.3419  0.8604 -0.1169
   64SAPC  H15A 5138   1.801   6.575   6.978  0.0060  2.2030 -2.9595
   64SAPC  H15B 5139   1.942   6.641   7.069 -1.0092  1.0627  0.3297
   64SAPC  H15C 5140   1.922   6.667   6.899  1.6024  1.3000  0.5048
   64SAPC   C11 5141   1.971   6.490   6.682  0.4378 -0.1265 -0.5170
   64SAPC  H11A 5142   1.980   6.596   6.713  0.3860 -0.0640 -0.7150
   64SAPC  H11B 5143   1.898   6.498   6.599 -0.6714  0.5539  0.4779
   64SAPC     P 5144   2.145   6.308   6.597  0.1677 -0.4489  0.6897
   64SAPC   O13 5145   2.292   6.303   6.629  0.5547 -0.0136 -0.1846
   64SAPC   O14 5146   2.054   6.204   6.645 -0.2383  0.3365 -0.3802
   64SAPC   O12 5147   2.096   6.451   6.638  0.1259 -0.0490 -0.7477
   64SAPC   O11 5148   2.126   6.304   6.438 -0.7816  0.3621  0.6397
   64SAPC    C1 5149   2.107   6.420   6.352  0.1231  0.1872  0.1926
   64SAPC    HA 5150   2.041   6.388   6.269 -0.5249  0.9551  0.3996
   64SAPC    HB 5151   2.048   6.503   6.396  0.6018  1.2952 -1.1816
   64SAPC    C2 5152   2.237   6.464   6.286 -0.1712  0.0903 -0.4040
   64SAPC    HS 5153   2.311   6.491   6.364  0.6575 -0.7656 -0.8755
   64SAPC   O21 5154   2.209   6.569   6.193 -0.0785  0.2626 -0.5531
   64SAPC   C21 5155   2.302   6.616   6.117 -0.1455 -0.2561  0.3982
   64SAPC   O22 5156   2.423   6.603   6.127 -0.0089 -0.6670  0.1920
   64SAPC   C22 5157   2.228   6.691   6.004  0.1665  0.5522 -0.4893
   64SAPC   H2R 5158   2.151   6.742   6.065 -2.0574 -0.9402 -1.9115
   64SAPC   H2S 5159   2.309   6.754   5.962  0.5742  0.5147  0.2353
   64SAPC    C3 5160   2.300   6.335   6.214 -0.6190 -0.3232  0.4208
   64SAPC    HX 5161   2.334   6.264   6.293  2.3550 -0.9891 -1.3100
   64SAPC    HY 5162   2.391   6.372   6.162  0.2126 -0.8931  1.4209
   64SAPC   O31 5163   2.213   6.276   6.119  0.1349  0.2021  0.1081
   64SAPC   C31 5164   2.188   6.148   6.117 -0.2214  0.7965  0.0768
   64SAPC   O32 5165   2.247   6.067   6.184 -0.0571  0.4274  0.0351
   64SAPC   C32 5166   2.091   6.111   6.006  1.0743  0.0568  1.1424
   64SAPC   H2X 5167   1.991   6.132   6.049 -0.3298 -0.0736 -1.7950
   64SAPC   H2Y 5168   2.107   6.004   5.984  0.6824  0.3685 -0.8978
   64SAPC   C23 5169   2.159   6.613   5.893  0.1250 -0.3421  0.3659
   64SAPC   H3R 5170   2.083   6.555   5.949  0.1223 -1.4621 -0.7673
   64SAPC   H3S 5171   2.223   6.536   5.844  0.1050  0.4795 -1.0036
   64SAPC   C24 5172   2.101   6.714   5.793 -0.1946  0.7701  0.1983
   64SAPC   H4R 5173   2.185   6.741   5.726  0.8982 -0.9832  0.7891
   64SAPC   H4S 5174   2.063   6.802   5.849 -2.3141  0.7669 -1.1120
   64SAPC   C25 5175   1.979   6.659   5.721  0.7889 -0.9843 -0.0988
   64SAPC   H5R 5176   1.889   6.625   5.774 -2.5099  1.3911 -3.6431
   64SAPC   C26 5177   1.974   6.636   5.592  0.1218  0.1826  0.3091
   64SAPC   H6R 5178   1.880   6.605   5.545 -0.0693 -0.5133  1.1163
   64SAPC   C27 5179   2.082   6.653   5.485 -0.4190  0.0576  0.9981
   64SAPC   H7R 5180   2.183   6.656   5.532  0.1954  2.9223 -0.3086
   64SAPC   H7S 5181   2.069   6.742   5.421  0.8458 -0.7755 -0.4940
   64SAPC   C28 5182   2.082   6.529   5.391  0.2205 -0.4847 -0.5436
   64SAPC   H8R 5183   2.037   6.439   5.434 -0.9545 -0.4532 -1.6497
   64SAPC   C29 5184   2.121   6.528   5.258 -0.3813  0.4128  0.0883
   64SAPC   H9R 5185   2.106   6.441   5.192 -1.1465  0.5222  0.1123
   64SAPC  C210 5186   2.170   6.651   5.180  0.1489  0.4063  0.4689
   64SAPC  H10R 5187   2.277   6.636   5.156  0.2420  2.0400 -0.2391
   64SAPC  H10S 5188   2.157   6.748   5.232 -0.6641  1.1667 -1.0989
   64SAPC  C211 5189   2.080   6.670   5.059  0.5004 -0.3854  0.2152
   64SAPC  H11R 5190   1.971   6.667   5.075  0.4698  0.3947  0.1695
   64SAPC  C212 5191   2.114   6.700   4.934  0.6702 -0.8903  0.1163
   64SAPC  H12R 5192   2.037   6.724   4.859  0.6568  0.3181  0.4876
   64SAPC  C213 5193   2.249   6.725   4.882 -0.6781 -0.3964  0.0555
   64SAPC  H13R 5194   2.322   6.739   4.965 -2.0828 -0.3771  1.3315
   64SAPC  H13S 5195   2.239   6.814   4.816  0.1727 -0.2496  0.1054
   64SAPC  C214 5196   2.298   6.616   4.788  0.5401 -0.0230 -0.4671
   64SAPC  H14R 5197   2.349   6.531   4.834 -1.8528 -1.9453 -1.1632
   64SAPC  C215 5198   2.275   6.612   4.652 -0.0180 -0.1772  0.5284
   64SAPC  H15R 5199   2.310   6.520   4.604 -1.1994 -0.6990  0.6117
   64SAPC  C216 5200   2.197   6.707   4.565  0.4046 -0.0098 -0.1633
   64SAPC  H16R 5201   2.268   6.761   4.500  2.2167 -2.3179 -0.2085
   64SAPC  H16S 5202   2.140   6.778   4.629  1.1685  0.1495  0.3494
   64SAPC  C217 5203   2.083   6.630   4.495 -0.7578 -0.4374 -0.6052
   64SAPC  H17R 5204   2.013   6.590   4.571  0.0768  0.4778  0.6874
   64SAPC  H17S 5205   2.123   6.535   4.454  1.0367  1.3524 -3.3564
   64SAPC  C218 5206   2.023   6.714   4.383  0.6428 -0.6595 -0.5004
   64SAPC  H18R 5207   1.941   6.655   4.335  0.6434  0.4092 -1.8768
   64SAPC  H18S 5208   2.106   6.729   4.310  3.2586  0.5392  2.5022
   64SAPC  C219 5209   1.972   6.854   4.417  0.1052 -0.2803  0.2138
   64SAPC  H19R 5210   1.938   6.907   4.325 -2.8960  1.9305  2.3889
   64SAPC  H19S 5211   2.049   6.921   4.460  1.9760 -0.6914 -2.2482
   64SAPC  C220 5212   1.845   6.844   4.503  0.0002 -0.0285  0.8130
   64SAPC  H20R 5213   1.831   6.933   4.569 -0.6811 -0.7056  1.6096
   64SAPC  H20S 5214   1.839   6.755   4.569 -0.2213 -1.5088 -1.1195
   64SAPC  H20T 5215   1.755   6.826   4.440 -0.5323 -0.9837  1.8077
   64SAPC   C33 5216   2.118   6.169   5.863  0.8611 -0.2561  0.6783
   64SAPC   H3X 5217   2.228   6.186   5.857  1.3948 -2.3743  2.7046
   64SAPC   H3Y 5218   2.058   6.262   5.855  1.7251  0.1770 -1.7356
   64SAPC   C34 5219   2.089   6.064   5.753  0.6899  0.5439  0.6002
   64SAPC   H4X 5220   1.982   6.033   5.745  1.0017 -0.0971 -2.1337
   64SAPC   H4Y 5221   2.143   5.967   5.765 -1.7973 -1.4038 -2.2472
   64SAPC   C35 5222   2.127   6.132   5.617 -0.0897 -0.0785 -0.3115
   64SAPC   H5X 5223   2.236   6.155   5.613  0.1531 -0.9754  0.5451
   64SAPC   H5Y 5224   2.081   6.230   5.595  1.8409  0.1736 -3.8862
   64SAPC   C36 5225   2.088   6.043   5.503  0.1562 -0.9319 -0.1416
   64SAPC   H6X 5226   1.978   6.028   5.513 -0.0861 -1.4460 -2.7754
   64SAPC   H6Y 5227   2.130   5.940   5.506  2.1650 -0.1807 -1.0436
   64SAPC   C37 5228   2.102   6.107   5.368 -0.3904 -0.2290  0.3586
   64SAPC   H7X 5229   2.210   6.091   5.344 -0.6099  1.6630 -2.3497
   64SAPC   H7Y 5230   2.081   6.216   5.377 -0.2258 -0.1877  0.2426
   64SAPC   C38 5231   2.021   6.038   5.255 -0.3554  0.3584  0.0326
   64SAPC   H8X 5232   1.911   6.033   5.270 -0.5733 -3.7075 -1.3620
   64SAPC   H8Y 5233   2.052   5.933   5.236 -1.5439  0.0888 -0.5022
   64SAPC   C39 5234   2.031   6.113   5.121  0.5262 -0.4239  0.6571
   64SAPC   H9X 5235   1.999   6.218   5.139  0.1181 -0.2814 -0.7923
   64SAPC   H9Y 5236   1.956   6.075   5.047 -0.1577  0.5031  0.8628
   64SAPC  C310 5237   2.170   6.103   5.050  0.5357  0.2612 -0.4114
   64SAPC  H10X 5238   2.191   5.996   5.032 -1.8693 -0.0579 -1.7645
   64SAPC  H10Y 5239   2.254   6.139   5.113 -1.6433  0.1102  2.8091
   64SAPC  C311 5240   2.159   6.184   4.925  0.0314 -0.0787 -0.3188
   64SAPC  H11X 5241   2.124   6.286   4.951 -0.2432 -0.5037  1.0499
   64SAPC  H11Y 5242   2.081   6.135   4.863 -0.5796 -0.9534  1.0897
   64SAPC  C312 5243   2.290   6.195   4.847 -0.0936 -0.0990  0.3462
   64SAPC  H12X 5244   2.334   6.098   4.819 -2.2532 -0.6627 -1.4060
   64SAPC  H12Y 5245   2.366   6.259   4.898 -0.9087  0.0294  1.4533
   64SAPC  C313 5246   2.268   6.250   4.704 -0.7323  0.0263 -0.1803
   64SAPC  H13X 5247   2.366   6.257   4.651 -0.7030 -0.1107 -0.1447
   64SAPC  H13Y 5248   2.238   6.356   4.718 -0.6742  0.0417 -0.1706
   64SAPC  C314 5249   2.158   6.181   4.613 -0.2458 -0.4462 -0.2431
   64SAPC  H14X 5250   2.066   6.239   4.635  0.7832  1.2720 -0.3184
   64SAPC  H14Y 5251   2.156   6.076   4.650  2.4142 -1.1146 -1.7086
   64SAPC  C315 5252   2.179   6.200   4.460 -0.2295 -0.5172 -1.1784
   64SAPC  H15X 5253   2.274   6.148   4.436  1.5074  0.1191  3.3699
   64SAPC  H15Y 5254   2.174   6.309   4.437  0.2686 -0.0187  0.9011
   64SAPC  C316 5255   2.058   6.143   4.387 -0.2640  0.4542 -0.1751
   64SAPC  H16X 5256   1.957   6.177   4.420 -1.4662 -2.4452 -0.5865
   64SAPC  H16Y 5257   2.063   6.033   4.401  0.0206  0.0255 -2.9342
   64SAPC  C317 5258   2.056   6.146   4.227  0.1140 -0.4562  0.0816
   64SAPC  H17X 5259   1.974   6.086   4.184 -1.6571  0.2600  2.2599
   64SAPC  H17Y 5260   2.150   6.098   4.193 -0.1336  0.2467 -1.7094
   64SAPC  C318 5261   2.042   6.289   4.173  0.5210  0.5203 -0.0147
   64SAPC  H18X 5262   2.039   6.281   4.062 -0.3948 -0.4072  0.0555
   64SAPC  H18Y 5263   2.124   6.355   4.207 -0.3579  1.4353  0.3871
   64SAPC  H18Z 5264   1.949   6.330   4.218 -1.2785 -2.9588 -0.1950
   65SAPC     N 5265   0.461   0.906   2.263 -0.1636  0.2573  0.0598
   65SAPC   C12 5266   0.486   0.956   2.120 -0.3770 -0.0817  0.0015
   65SAPC  H12A 5267   0.461   1.061   2.121  0.7997  0.2808 -2.2631
   65SAPC  H12B 5268   0.408   0.919   2.055 -0.7028  0.3028  0.1699
   65SAPC   C13 5269   0.328   0.955   2.323 -0.5224  0.1431  0.5240
   65SAPC  H13A 5270   0.312   1.053   2.280 -1.7518 -0.6203 -0.8957
   65SAPC  H13B 5271   0.240   0.897   2.299 -1.1321 -0.2045  3.3277
   65SAPC  H13C 5272   0.333   0.965   2.430 -0.5257  1.1265  0.4488
   65SAPC   C14 5273   0.467   0.761   2.275  0.2255 -0.2288 -0.9688
   65SAPC  H14A 5274   0.380   0.707   2.239 -0.7892  1.4908 -1.1667
   65SAPC  H14B 5275   0.550   0.714   2.223  0.7016 -1.2015  0.5906
   65SAPC  H14C 5276   0.459   0.725   2.376  0.3888  1.7024 -0.2349
   65SAPC   C15 5277   0.562   0.977   2.344 -0.2798  0.3469 -0.3580
   65SAPC  H15A 5278   0.552   1.084   2.357 -0.0765  0.3020  0.2304
   65SAPC  H15B 5279   0.575   0.940   2.445 -3.5416  1.5425  0.6211
   65SAPC  H15C 5280   0.657   0.961   2.295 -0.9061 -2.0529 -0.9413
   65SAPC   C11 5281   0.619   0.929   2.055 -0.5144 -0.4832  0.4876
   65SAPC  H11A 5282   0.619   0.962   1.949  2.3064  1.4061  0.9636
   65SAPC  H11B 5283   0.634   0.820   2.048  1.0683 -0.2124 -0.9195
   65SAPC     P 5284   0.829   1.095   2.071 -0.3508 -0.1402  0.4467
   65SAPC   O13 5285   0.877   1.057   1.936 -0.3247 -0.2936  0.1565
   65SAPC   O14 5286   0.757   1.226   2.083 -0.1390 -0.2510  0.1476
   65SAPC   O12 5287   0.728   0.988   2.126 -0.8272  0.0667 -0.1672
   65SAPC   O11 5288   0.946   1.089   2.171 -0.3945 -0.0939 -0.5380
   65SAPC    C1 5289   0.950   1.142   2.306 -0.0798  0.2927 -0.3948
   65SAPC    HA 5290   0.851   1.185   2.336 -1.3951 -2.2078 -0.9428
   65SAPC    HB 5291   0.960   1.059   2.379 -2.2648  1.7422  1.7643
   65SAPC    C2 5292   1.084   1.226   2.325  1.1840 -0.0007 -0.4077
   65SAPC    HS 5293   1.106   1.239   2.433  0.0052  1.1394 -0.2731
   65SAPC   O21 5294   1.054   1.360   2.282  0.0841 -0.2023  0.4752
   65SAPC   C21 5295   0.964   1.431   2.358 -0.0020  0.5614 -0.1188
   65SAPC   O22 5296   0.937   1.403   2.475 -0.0207  0.5094 -0.1018
   65SAPC   C22 5297   0.923   1.560   2.289 -0.4430 -0.4979  0.1493
   65SAPC   H2R 5298   1.012   1.622   2.269 -2.4907  1.7645 -2.9631
   65SAPC   H2S 5299   0.887   1.528   2.189 -0.8608 -2.1421  0.7954
   65SAPC    C3 5300   1.212   1.169   2.260 -0.8553 -0.4157  0.4798
   65SAPC    HX 5301   1.191   1.127   2.160 -2.0639  1.2213 -0.0029
   65SAPC    HY 5302   1.247   1.082   2.319  2.0796  0.0053 -0.4762
   65SAPC   O31 5303   1.324   1.261   2.249 -0.4118  0.3471 -0.0296
   65SAPC   C31 5304   1.393   1.288   2.351 -0.3926  0.0538 -0.2638
   65SAPC   O32 5305   1.385   1.227   2.459  0.3027 -0.5233 -0.1279
   65SAPC   C32 5306   1.494   1.397   2.324  0.6548  0.0575  0.2641
   65SAPC   H2X 5307   1.551   1.361   2.236  0.5039  2.4999 -0.9131
   65SAPC   H2Y 5308   1.560   1.398   2.413  0.9191  0.4701  0.0624
   65SAPC   C23 5309   0.804   1.635   2.353  0.2440  0.3058 -0.3915
   65SAPC   H3R 5310   0.733   1.556   2.387 -0.6340  1.4010  0.3664
   65SAPC   H3S 5311   0.752   1.707   2.286  1.1376 -0.8322 -2.4300
   65SAPC   C24 5312   0.863   1.722   2.469  0.2184 -0.0985 -0.7060
   65SAPC   H4R 5313   0.911   1.816   2.435  0.8606 -0.2641 -0.2722
   65SAPC   H4S 5314   0.943   1.658   2.512 -0.5600 -0.6408 -0.0078
   65SAPC   C25 5315   0.761   1.768   2.582  1.0632  0.6050  0.8498
   65SAPC   H5R 5316   0.678   1.831   2.546  0.2546 -0.4346  0.8392
   65SAPC   C26 5317   0.752   1.716   2.701 -0.8083 -0.9030  0.0632
   65SAPC   H6R 5318   0.670   1.740   2.770 -1.1269 -1.9242  0.0556
   65SAPC   C27 5319   0.844   1.610   2.761  0.2361 -0.2361  0.5558
   65SAPC   H7R 5320   0.861   1.535   2.682 -1.9205 -0.3868  0.1999
   65SAPC   H7S 5321   0.785   1.561   2.842 -1.5256  0.3449 -0.3307
   65SAPC   C28 5322   0.965   1.663   2.824  0.4314  0.5108 -0.1074
   65SAPC   H8R 5323   1.058   1.640   2.770  0.9975  1.3665  0.4844
   65SAPC   C29 5324   0.970   1.722   2.943 -0.7004  0.3108  0.3142
   65SAPC   H9R 5325   1.069   1.755   2.975 -0.7890  0.9157 -0.0286
   65SAPC  C210 5326   0.857   1.737   3.040  0.3956  0.1434 -0.7101
   65SAPC  H10R 5327   0.913   1.731   3.136  1.0261 -0.0636 -1.0860
   65SAPC  H10S 5328   0.792   1.647   3.039  0.1212  0.3017  0.5410
   65SAPC  C211 5329   0.785   1.869   3.027  0.0412  0.2060  0.5478
   65SAPC  H11R 5330   0.709   1.870   2.948 -1.4614  3.1755  1.8653
   65SAPC  C212 5331   0.792   1.975   3.107  0.4237 -0.3448  0.8375
   65SAPC  H12R 5332   0.714   2.051   3.094 -0.9568 -1.5684  1.7151
   65SAPC  C213 5333   0.875   1.990   3.231  0.0278  0.3449  0.4526
   65SAPC  H13R 5334   0.948   2.072   3.212  1.1611 -0.2828  1.8952
   65SAPC  H13S 5335   0.934   1.898   3.250 -0.5199 -0.4940 -1.6167
   65SAPC  C214 5336   0.793   2.038   3.348  0.0867  0.1666 -0.4415
   65SAPC  H14R 5337   0.748   2.137   3.336  0.7246  1.0357  3.2111
   65SAPC  C215 5338   0.757   1.967   3.461 -0.2723 -1.1204  0.2082
   65SAPC  H15R 5339   0.700   2.021   3.538  2.2459  0.9039  0.7994
   65SAPC  C216 5340   0.806   1.827   3.486  0.4722 -0.1779  0.6503
   65SAPC  H16R 5341   0.888   1.829   3.560  1.7277  0.3354 -0.7165
   65SAPC  H16S 5342   0.853   1.789   3.393  0.6745 -3.0388  1.8256
   65SAPC  C217 5343   0.691   1.732   3.528  0.0790  0.2284  0.2790
   65SAPC  H17R 5344   0.712   1.627   3.500 -1.3427 -0.0892  0.2952
   65SAPC  H17S 5345   0.598   1.751   3.469  0.4820 -3.0757 -1.6764
   65SAPC  C218 5346   0.652   1.746   3.682 -0.6914  0.4737 -0.4800
   65SAPC  H18R 5347   0.559   1.686   3.685 -0.5568  0.2120 -1.2709
   65SAPC  H18S 5348   0.612   1.844   3.716  1.5017  1.1513  0.2901
   65SAPC  C219 5349   0.751   1.694   3.787 -0.1875  0.1214  0.1723
   65SAPC  H19R 5350   0.841   1.758   3.799 -0.8120  0.8212  1.3408
   65SAPC  H19S 5351   0.802   1.602   3.751  0.6634  1.1101 -1.2351
   65SAPC  C220 5352   0.687   1.678   3.925  0.9377  0.5274 -0.0356
   65SAPC  H20R 5353   0.594   1.620   3.908  1.0778  0.1540  0.4442
   65SAPC  H20S 5354   0.640   1.774   3.953  1.2655  0.4213  0.9035
   65SAPC  H20T 5355   0.749   1.644   4.011  1.7619  1.3439 -0.2890
   65SAPC   C33 5356   1.429   1.533   2.277  0.1170 -0.0874 -0.3888
   65SAPC   H3X 5357   1.366   1.521   2.186 -1.0853 -0.8235  0.5212
   65SAPC   H3Y 5358   1.512   1.603   2.255  0.3411 -0.6927 -1.5379
   65SAPC   C34 5359   1.357   1.609   2.388 -0.0093  0.1145  0.2062
   65SAPC   H4X 5360   1.424   1.623   2.476 -0.3376  1.1661  0.3031
   65SAPC   H4Y 5361   1.280   1.540   2.428  0.4189 -0.7865 -0.5067
   65SAPC   C35 5362   1.296   1.747   2.369  0.5742 -0.2943  0.3597
   65SAPC   H5X 5363   1.231   1.745   2.279  1.1705 -0.2652 -0.0748
   65SAPC   H5Y 5364   1.378   1.816   2.341 -1.5002  1.3065 -2.2360
   65SAPC   C36 5365   1.221   1.814   2.487 -0.0940 -0.5505  0.1035
   65SAPC   H6X 5366   1.159   1.738   2.538 -0.0062  1.8025  4.0850
   65SAPC   H6Y 5367   1.146   1.890   2.456 -1.0876 -0.7546  1.9026
   65SAPC   C37 5368   1.313   1.879   2.587  0.5213  0.1016 -0.8744
   65SAPC   H7X 5369   1.393   1.942   2.543  0.9732 -0.8468 -1.4416
   65SAPC   H7Y 5370   1.360   1.795   2.642 -2.1781  0.0957  1.6572
   65SAPC   C38 5371   1.225   1.958   2.684 -0.0583  0.1843  0.0219
   65SAPC   H8X 5372   1.134   1.897   2.706  0.1372 -0.3972 -0.7581
   65SAPC   H8Y 5373   1.190   2.048   2.630  0.5739 -0.9517 -2.4182
   65SAPC   C39 5374   1.304   1.989   2.806  0.6155  0.2100 -0.2020
   65SAPC   H9X 5375   1.388   2.057   2.782 -1.0920  2.4579 -0.1600
   65SAPC   H9Y 5376   1.331   1.889   2.847 -3.6994 -0.0904  2.5891
   65SAPC  C310 5377   1.229   2.050   2.918 -0.3792 -0.4165 -0.1117
   65SAPC  H10X 5378   1.147   1.981   2.948  0.0675 -0.2701  1.5227
   65SAPC  H10Y 5379   1.188   2.144   2.874 -2.6091 -0.1794  2.2046
   65SAPC  C311 5380   1.332   2.066   3.033 -0.0894 -0.2373  0.3180
   65SAPC  H11X 5381   1.420   2.123   2.994  0.3684 -2.0303 -1.4133
   65SAPC  H11Y 5382   1.364   1.968   3.073 -0.4833 -1.4171 -2.0967
   65SAPC  C312 5383   1.263   2.129   3.161 -0.3582  0.5724  1.1824
   65SAPC  H12X 5384   1.173   2.077   3.200 -1.1453  0.8354 -0.2371
   65SAPC  H12Y 5385   1.209   2.223   3.137 -1.7907 -0.9257 -2.0798
   65SAPC  C313 5386   1.370   2.155   3.265  0.0405  0.4065  0.5363
   65SAPC  H13X 5387   1.442   2.228   3.221 -0.7687  0.7985 -0.1611
   65SAPC  H13Y 5388   1.421   2.058   3.283 -2.5198 -1.4826 -1.7508
   65SAPC  C314 5389   1.310   2.216   3.394 -0.1920 -0.3393 -0.1669
   65SAPC  H14X 5390   1.240   2.301   3.383 -1.2654 -0.6900  2.9600
   65SAPC  H14Y 5391   1.384   2.254   3.467 -0.8515  0.0608  0.2988
   65SAPC  C315 5392   1.229   2.103   3.464  0.6509 -0.6512  0.1802
   65SAPC  H15X 5393   1.302   2.023   3.486  1.7706  0.4243  0.5233
   65SAPC  H15Y 5394   1.146   2.064   3.402  1.3208 -3.1088  0.7446
   65SAPC  C316 5395   1.163   2.152   3.600 -0.3524 -0.1980  0.5705
   65SAPC  H16X 5396   1.098   2.240   3.579  2.0378  1.4414 -0.3521
   65SAPC  H16Y 5397   1.252   2.180   3.660  1.7292 -3.6788 -0.5820
   65SAPC  C317 5398   1.090   2.042   3.669 -0.9173  0.1550 -0.4754
   65SAPC  H17X 5399   1.153   1.951   3.682  1.8637  2.1228  0.7895
   65SAPC  H17Y 5400   1.001   2.001   3.618 -1.0957 -3.3823  2.3051
   65SAPC  C318 5401   1.029   2.079   3.799  0.5243 -0.0113 -0.7856
   65SAPC  H18X 5402   0.949   2.013   3.842  0.3355  1.1000  0.6568
   65SAPC  H18Y 5403   0.979   2.177   3.787  1.4902  0.4715 -0.8975
   65SAPC  H18Z 5404   1.102   2.085   3.883  0.2963 -2.4822 -0.3292
   66SAPC     N 5405   3.405   4.098   1.509  0.6038  0.3995 -0.4487
   66SAPC   C12 5406   3.459   4.116   1.651  0.1001  0.6134 -0.1570
   66SAPC  H12A 5407   3.481   4.221   1.662 -0.5469  0.5604  2.0006
   66SAPC  H12B 5408   3.553   4.064   1.664 -0.0651  0.4503  0.3889
   66SAPC   C13 5409   3.513   4.129   1.412  0.1114  0.3194  0.1102
   66SAPC  H13A 5410   3.584   4.049   1.398  0.1829  0.7690 -2.8061
   66SAPC  H13B 5411   3.473   4.160   1.316  1.4110 -1.8745 -1.2400
   66SAPC  H13C 5412   3.565   4.219   1.442 -1.7281  2.1252 -1.7231
   66SAPC   C14 5413   3.368   3.954   1.491 -0.6316 -0.4729 -0.1403
   66SAPC  H14A 5414   3.305   3.926   1.574 -0.0573 -0.6430  0.2510
   66SAPC  H14B 5415   3.313   3.931   1.401  1.4883  1.0519 -1.9206
   66SAPC  H14C 5416   3.452   3.885   1.486  0.5365  0.9288 -0.6877
   66SAPC   C15 5417   3.286   4.185   1.481  0.6652 -0.5291 -0.6026
   66SAPC  H15A 5418   3.260   4.168   1.378 -0.8420  2.1864 -0.7495
   66SAPC  H15B 5419   3.202   4.163   1.544  0.7373 -2.2908 -1.0615
   66SAPC  H15C 5420   3.307   4.290   1.488 -2.3364  0.1517 -0.7519
   66SAPC   C11 5421   3.367   4.068   1.770  0.2089  0.1412  0.4553
   66SAPC  H11A 5422   3.272   4.124   1.777  1.0403  1.3972  5.0229
   66SAPC  H11B 5423   3.426   4.095   1.861  1.0349 -1.2692  0.3723
   66SAPC     P 5424   3.449   3.820   1.803  0.3208  0.3114 -0.5486
   66SAPC   O13 5425   3.407   3.698   1.725  0.0319  0.1473 -0.4449
   66SAPC   O14 5426   3.578   3.879   1.776  0.1695  0.1833 -0.5182
   66SAPC   O12 5427   3.340   3.926   1.771 -0.4369 -0.1840  0.0039
   66SAPC   O11 5428   3.433   3.788   1.959 -0.3501 -0.6823  0.1656
   66SAPC    C1 5429   3.350   3.869   2.040  0.7295  0.7005 -1.1330
   66SAPC    HA 5430   3.361   3.976   2.013 -1.4293  0.7901 -1.8110
   66SAPC    HB 5431   3.243   3.850   2.016  1.0274 -1.9922 -0.7286
   66SAPC    C2 5432   3.380   3.850   2.194  0.6788  0.8730  0.3189
   66SAPC    HS 5433   3.337   3.932   2.255 -0.1948 -0.4634  1.5740
   66SAPC   O21 5434   3.523   3.847   2.215  0.6291 -0.0714  0.0956
   66SAPC   C21 5435   3.594   3.965   2.195  1.1009 -0.0356  0.0101
   66SAPC   O22 5436   3.547   4.075   2.182  0.6351 -0.4874 -0.3153
   66SAPC   C22 5437   3.737   3.935   2.215  0.3888  0.2603  0.9526
   66SAPC   H2R 5438   3.778   3.910   2.115 -1.8008  1.6584 -0.3971
   66SAPC   H2S 5439   3.784   4.030   2.248  2.9880 -0.5722 -0.0468
   66SAPC    C3 5440   3.323   3.712   2.241  0.9864 -0.0538  0.2281
   66SAPC    HX 5441   3.375   3.630   2.187  0.7399 -0.4646  0.6077
   66SAPC    HY 5442   3.216   3.701   2.213  1.0195 -0.7729  0.3726
   66SAPC   O31 5443   3.345   3.686   2.384  0.1303 -0.1652  0.0929
   66SAPC   C31 5444   3.259   3.745   2.467 -0.6420  0.5091 -0.2846
   66SAPC   O32 5445   3.174   3.824   2.426  0.0806  0.0959 -0.3670
   66SAPC   C32 5446   3.286   3.696   2.607  0.3453  0.4104 -0.6269
   66SAPC   H2X 5447   3.355   3.609   2.604  0.3532  0.3201  1.2262
   66SAPC   H2Y 5448   3.194   3.643   2.638  0.6976 -0.2078 -0.6106
   66SAPC   C23 5449   3.772   3.829   2.323  0.1082  0.1403 -0.7969
   66SAPC   H3R 5450   3.733   3.730   2.292 -1.1769  0.7969 -1.3501
   66SAPC   H3S 5451   3.711   3.850   2.413 -1.0603 -3.2896 -0.6637
   66SAPC   C24 5452   3.925   3.823   2.336  0.0477 -0.7177 -0.2403
   66SAPC   H4R 5453   3.963   3.921   2.372 -0.3532 -0.6971  0.1350
   66SAPC   H4S 5454   3.959   3.808   2.232 -1.1416  2.0941 -1.1267
   66SAPC   C25 5455   3.968   3.708   2.425  0.6037 -0.3739  0.4331
   66SAPC   H5R 5456   4.023   3.626   2.377  1.8584  1.2494 -1.0208
   66SAPC   C26 5457   3.960   3.706   2.559 -1.2396  0.4902  0.1219
   66SAPC   H6R 5458   3.994   3.615   2.611 -1.0614  1.9951  2.8701
   66SAPC   C27 5459   3.918   3.818   2.650  0.4044 -0.0724  0.0801
   66SAPC   H7R 5460   3.858   3.897   2.600  2.7065  2.3704  0.9206
   66SAPC   H7S 5461   4.009   3.869   2.689  0.7528 -1.4684  1.1950
   66SAPC   C28 5462   3.838   3.766   2.761  0.7356  0.1212  0.1870
   66SAPC   H8R 5463   3.755   3.705   2.723  1.8434  0.1177 -2.4346
   66SAPC   C29 5464   3.880   3.751   2.886  0.1789  0.2149 -0.0361
   66SAPC   H9R 5465   3.817   3.704   2.963 -0.1500  0.4140 -0.1806
   66SAPC  C210 5466   4.016   3.793   2.940 -0.4331  0.0536 -0.3468
   66SAPC  H10R 5467   4.035   3.898   2.910 -0.6448  0.2776  0.2890
   66SAPC  H10S 5468   4.098   3.731   2.896 -0.9968 -0.9468 -0.0080
   66SAPC  C211 5469   4.017   3.793   3.091 -0.2221  0.1483  0.5223
   66SAPC  H11R 5470   4.084   3.720   3.138 -0.8172 -2.0439 -1.8048
   66SAPC  C212 5471   3.963   3.885   3.172  0.1851 -0.8695  0.2079
   66SAPC  H12R 5472   3.979   3.868   3.279  1.2719 -0.8479  0.0512
   66SAPC  C213 5473   3.896   4.018   3.151  0.4149 -0.0463  0.5271
   66SAPC  H13R 5474   3.917   4.056   3.048  3.8951  2.2467  1.9002
   66SAPC  H13S 5475   3.938   4.098   3.216 -0.2777  0.1779  0.7133
   66SAPC  C214 5476   3.747   4.021   3.167  1.2705  0.4127  0.0671
   66SAPC  H14R 5477   3.684   4.013   3.077 -1.1711  1.6094  1.5780
   66SAPC  C215 5478   3.686   4.035   3.289 -0.1584  0.2972  0.3520
   66SAPC  H15R 5479   3.578   4.058   3.290 -0.4649 -1.0122 -0.5462
   66SAPC  C216 5480   3.758   4.039   3.425 -0.0766  0.2654 -0.1533
   66SAPC  H16R 5481   3.779   4.147   3.443  0.9027  0.6364 -2.9866
   66SAPC  H16S 5482   3.853   3.982   3.433 -0.3684 -0.0450  1.6214
   66SAPC  C217 5483   3.662   3.995   3.535 -0.5259  0.1018  0.3087
   66SAPC  H17R 5484   3.635   3.889   3.516  2.0775 -0.5957  0.1224
   66SAPC  H17S 5485   3.566   4.051   3.525 -0.4742  0.2955  0.8887
   66SAPC  C218 5486   3.718   4.008   3.679 -0.5386  0.2879 -0.4328
   66SAPC  H18R 5487   3.638   3.981   3.752  1.0798 -0.1715  1.2414
   66SAPC  H18S 5488   3.733   4.116   3.697 -2.0376  0.4075  0.2380
   66SAPC  C219 5489   3.834   3.916   3.713 -0.2888 -0.1209  0.0075
   66SAPC  H19R 5490   3.917   3.918   3.640 -0.3667  0.8026 -0.0574
   66SAPC  H19S 5491   3.795   3.813   3.693 -2.1227  0.9988 -2.9778
   66SAPC  C220 5492   3.879   3.936   3.855  0.6469 -0.3300 -0.1779
   66SAPC  H20R 5493   3.989   3.926   3.863  0.9427  2.1978 -0.2019
   66SAPC  H20S 5494   3.829   3.857   3.916  1.4824  0.0447  1.0183
   66SAPC  H20T 5495   3.850   4.039   3.884  2.7719  0.3072 -0.2220
   66SAPC   C33 5496   3.340   3.797   2.708  0.3542  0.0381  0.5737
   66SAPC   H3X 5497   3.271   3.881   2.733 -0.3930  0.2757 -1.9811
   66SAPC   H3Y 5498   3.429   3.853   2.671 -0.8786  2.3592  0.9237
   66SAPC   C34 5499   3.393   3.727   2.836 -0.1244 -0.5028  0.0078
   66SAPC   H4X 5500   3.464   3.794   2.890 -0.6975 -0.4953  0.7712
   66SAPC   H4Y 5501   3.460   3.656   2.784  3.5518  3.2134 -0.9284
   66SAPC   C35 5502   3.294   3.665   2.937  0.0799  0.2074  0.4882
   66SAPC   H5X 5503   3.203   3.634   2.881 -0.9009  1.8214  1.1089
   66SAPC   H5Y 5504   3.247   3.745   2.999 -2.0417  0.0816 -0.8441
   66SAPC   C36 5505   3.333   3.547   3.028  0.1191 -0.0784  0.2876
   66SAPC   H6X 5506   3.368   3.466   2.960 -3.2844 -2.3601  1.0314
   66SAPC   H6Y 5507   3.241   3.524   3.085 -0.3032 -0.1671 -0.4183
   66SAPC   C37 5508   3.456   3.573   3.129  0.3220  0.1827 -0.1953
   66SAPC   H7X 5509   3.539   3.620   3.073  0.5737  0.3149  0.2858
   66SAPC   H7Y 5510   3.472   3.469   3.164  0.6643  0.4998  0.6189
   66SAPC   C38 5511   3.407   3.655   3.247 -0.1723 -0.0381 -0.3688
   66SAPC   H8X 5512   3.300   3.684   3.246 -0.9512 -1.9540  3.8977
   66SAPC   H8Y 5513   3.476   3.742   3.248 -1.4324  0.9825  0.1613
   66SAPC   C39 5514   3.435   3.589   3.387  0.6716  0.1707 -0.0910
   66SAPC   H9X 5515   3.544   3.579   3.402  0.4048  0.4855  2.4472
   66SAPC   H9Y 5516   3.389   3.488   3.387 -0.8470  0.7995 -1.7016
   66SAPC  C310 5517   3.380   3.683   3.500  0.4657  0.8431  0.2085
   66SAPC  H10X 5518   3.271   3.668   3.512  0.6487  0.8854  2.3770
   66SAPC  H10Y 5519   3.407   3.789   3.477 -0.2975  1.0138  0.0881
   66SAPC  C311 5520   3.439   3.654   3.643  0.2823  0.5183  0.4185
   66SAPC  H11X 5521   3.550   3.665   3.651  0.3445  0.4197 -0.3097
   66SAPC  H11Y 5522   3.421   3.545   3.658  1.2722 -0.0262 -1.8976
   66SAPC  C312 5523   3.366   3.722   3.752 -0.6236 -0.4963  0.2637
   66SAPC  H12X 5524   3.257   3.707   3.740 -0.5603  0.3190 -1.8164
   66SAPC  H12Y 5525   3.394   3.828   3.731  0.2556 -1.1216 -2.0911
   66SAPC  C313 5526   3.388   3.671   3.897  0.0195 -0.1613  0.1393
   66SAPC  H13X 5527   3.495   3.687   3.919  0.1537  0.6087 -0.9906
   66SAPC  H13Y 5528   3.376   3.561   3.893 -0.9949 -0.0444 -2.6179
   66SAPC  C314 5529   3.321   3.742   4.009  0.7373 -0.1792  0.3878
   66SAPC  H14X 5530   3.336   3.852   4.005 -0.8388  0.0399 -0.3038
   66SAPC  H14Y 5531   3.369   3.715   4.105  3.3335 -0.8100 -0.9819
   66SAPC  C315 5532   3.174   3.718   4.028  0.5913 -0.2405 -0.0839
   66SAPC  H15X 5533   3.151   3.610   4.040 -0.3050 -0.3747 -2.3660
   66SAPC  H15Y 5534   3.140   3.745   3.925  1.0000  0.6860  0.0072
   66SAPC  C316 5535   3.114   3.794   4.139  0.0415 -0.4902 -0.2684
   66SAPC  H16X 5536   3.177   3.799   4.231  0.5403  1.1518 -0.6591
   66SAPC  H16Y 5537   3.026   3.732   4.165  1.5040 -2.6575 -0.2193
   66SAPC  C317 5538   3.070   3.934   4.099  0.7690 -0.4004  0.6689
   66SAPC  H17X 5539   3.002   3.945   4.011  2.3022 -0.5472 -0.5738
   66SAPC  H17Y 5540   3.157   3.996   4.070 -1.3574  1.4938 -2.2571
   66SAPC  C318 5541   3.008   4.014   4.222  0.0390  0.0041 -0.2257
   66SAPC  H18X 5542   2.975   4.118   4.199  1.0797  0.0069 -1.8954
   66SAPC  H18Y 5543   3.071   4.027   4.313 -1.9702  2.7955  0.9479
   66SAPC  H18Z 5544   2.914   3.960   4.247  0.0376  0.3673  0.5781
   67SAPC     N 5545   1.051   3.270   1.979  0.2616 -0.0831 -0.6464
   67SAPC   C12 5546   0.945   3.278   2.088 -0.0534  0.0290  0.4200
   67SAPC  H12A 5547   0.906   3.378   2.092 -1.1415 -0.3911  0.6593
   67SAPC  H12B 5548   0.993   3.276   2.185 -0.1735  0.4904  0.4890
   67SAPC   C13 5549   1.000   3.290   1.837 -0.2541  0.1757  0.1445
   67SAPC  H13A 5550   0.940   3.201   1.828  0.9842 -0.9444  2.1525
   67SAPC  H13B 5551   0.944   3.382   1.829  0.7433  0.7431 -0.5086
   67SAPC  H13C 5552   1.080   3.285   1.765  0.1367  1.5414  0.4612
   67SAPC   C14 5553   1.150   3.384   2.002 -1.1856 -0.2127  0.7237
   67SAPC  H14A 5554   1.114   3.486   1.993  2.7402  1.3198  0.4205
   67SAPC  H14B 5555   1.197   3.373   2.099  2.5247  0.3722 -0.8321
   67SAPC  H14C 5556   1.240   3.370   1.943 -1.4315  0.9958  0.0251
   67SAPC   C15 5557   1.121   3.144   1.988 -0.6123 -0.5137  0.0247
   67SAPC  H15A 5558   1.055   3.058   1.984 -3.3221  1.4127  0.7378
   67SAPC  H15B 5559   1.187   3.134   1.904  0.6287 -0.8297  1.0040
   67SAPC  H15C 5560   1.194   3.133   2.067 -1.1412  1.9090  0.9367
   67SAPC   C11 5561   0.814   3.197   2.076  0.1246  0.7245  0.7628
   67SAPC  H11A 5562   0.754   3.220   1.985  0.6039 -2.8231 -0.5839
   67SAPC  H11B 5563   0.749   3.212   2.166 -1.5921  0.3541 -0.3582
   67SAPC     P 5564   0.856   2.960   2.194  0.2362  0.0894  0.1879
   67SAPC   O13 5565   0.733   2.876   2.217  0.4552 -0.0856 -0.5771
   67SAPC   O14 5566   0.983   2.892   2.165  0.1194 -0.6818 -0.1677
   67SAPC   O12 5567   0.833   3.057   2.067 -0.3455 -0.6672  0.1246
   67SAPC   O11 5568   0.868   3.058   2.321  0.0823 -0.1465  0.2193
   67SAPC    C1 5569   0.981   3.059   2.407 -0.2143 -0.8927  0.0033
   67SAPC    HA 5570   1.002   2.960   2.453 -1.0904 -1.1307 -0.0959
   67SAPC    HB 5571   1.068   3.093   2.347 -0.2733 -2.2072 -0.8865
   67SAPC    C2 5572   0.960   3.152   2.526 -0.1261  0.5878 -0.6394
   67SAPC    HS 5573   1.059   3.173   2.573  1.4536 -1.5604 -2.7717
   67SAPC   O21 5574   0.866   3.091   2.621  0.4978  0.0791 -0.2270
   67SAPC   C21 5575   0.910   3.000   2.705  0.2121 -0.1642  0.0469
   67SAPC   O22 5576   1.025   2.966   2.707 -0.0168  0.2617 -0.9331
   67SAPC   C22 5577   0.795   2.968   2.803 -0.4143  0.2392 -0.3217
   67SAPC   H2R 5578   0.700   3.017   2.773 -0.0645 -0.0957 -2.1386
   67SAPC   H2S 5579   0.783   2.858   2.816  1.9548 -0.0659 -0.3138
   67SAPC    C3 5580   0.912   3.289   2.478  0.1419 -0.3932 -0.2440
   67SAPC    HX 5581   0.822   3.281   2.414 -1.4401  0.2267  1.8054
   67SAPC    HY 5582   0.997   3.319   2.412  0.9869 -4.0183 -0.9867
   67SAPC   O31 5583   0.897   3.380   2.586 -0.2787  0.1804  0.3626
   67SAPC   C31 5584   0.868   3.501   2.551  0.7519  0.7298 -0.4210
   67SAPC   O32 5585   0.852   3.543   2.437  0.0279 -0.0016 -0.1336
   67SAPC   C32 5586   0.845   3.587   2.675 -0.0518 -0.1518 -0.0168
   67SAPC   H2X 5587   0.737   3.603   2.693  0.5361  2.0262  2.0323
   67SAPC   H2Y 5588   0.889   3.687   2.653  1.2962 -0.8769 -0.7446
   67SAPC   C23 5589   0.830   3.010   2.944 -0.4130 -0.2725 -0.8388
   67SAPC   H3R 5590   0.844   3.118   2.969  0.9048 -0.9826  1.9345
   67SAPC   H3S 5591   0.920   2.954   2.978  0.0717 -0.1693 -1.9020
   67SAPC   C24 5592   0.712   2.973   3.041  1.0774 -0.5270  0.1719
   67SAPC   H4R 5593   0.671   2.876   3.004 -2.5409 -0.1905  2.8524
   67SAPC   H4S 5594   0.627   3.043   3.032  0.5295 -1.3722 -1.7450
   67SAPC   C25 5595   0.750   2.969   3.185  0.0260  0.0575 -0.7762
   67SAPC   H5R 5596   0.818   3.044   3.227  0.5539  0.1095 -1.7034
   67SAPC   C26 5597   0.711   2.868   3.259 -0.1875  0.6397  0.1252
   67SAPC   H6R 5598   0.736   2.870   3.366  1.4280 -1.9334 -0.1164
   67SAPC   C27 5599   0.613   2.751   3.237  0.7618 -0.0647  0.2442
   67SAPC   H7R 5600   0.525   2.811   3.206  1.2507  0.4705 -0.1436
   67SAPC   H7S 5601   0.587   2.702   3.333  0.0275 -1.1111 -0.4647
   67SAPC   C28 5602   0.654   2.650   3.135 -0.1846 -0.0053  0.7729
   67SAPC   H8R 5603   0.761   2.628   3.124 -0.3740  0.3028 -2.8774
   67SAPC   C29 5604   0.572   2.566   3.072  0.0379  0.2773 -0.8347
   67SAPC   H9R 5605   0.631   2.490   3.020 -0.2163 -1.0252  0.7103
   67SAPC  C210 5606   0.424   2.543   3.090  0.4882 -0.3514  0.2835
   67SAPC  H10R 5607   0.397   2.488   2.997  1.6679 -2.0778  0.9130
   67SAPC  H10S 5608   0.377   2.643   3.102 -0.4755 -0.5609 -1.4823
   67SAPC  C211 5609   0.377   2.459   3.205 -0.5407 -0.1445 -0.6074
   67SAPC  H11R 5610   0.454   2.408   3.265 -2.3375  1.1183  3.0727
   67SAPC  C212 5611   0.256   2.417   3.230 -0.2355 -0.4250 -0.4999
   67SAPC  H12R 5612   0.246   2.354   3.319  0.3139 -0.0150 -0.1493
   67SAPC  C213 5613   0.139   2.450   3.137 -0.5413 -0.5546 -0.5082
   67SAPC  H13R 5614   0.147   2.547   3.084  0.9220 -0.3113  0.1073
   67SAPC  H13S 5615   0.043   2.450   3.193 -1.6570 -0.3989 -2.3456
   67SAPC  C214 5616   0.142   2.352   3.028  0.5423  0.5312  0.0965
   67SAPC  H14R 5617   0.175   2.251   3.056 -1.1684 -0.4226 -1.1088
   67SAPC  C215 5618   0.109   2.366   2.895 -0.0036  0.5270  0.9210
   67SAPC  H15R 5619   0.104   2.271   2.839 -0.1850  1.2719 -0.3619
   67SAPC  C216 5620   0.050   2.487   2.833 -0.1774  0.0459 -0.4037
   67SAPC  H16R 5621   0.109   2.502   2.740  0.1538 -0.8998 -0.3651
   67SAPC  H16S 5622   0.071   2.571   2.903  1.3167 -0.1372 -0.5948
   67SAPC  C217 5623  -0.107   2.478   2.814  1.1041 -0.7229 -0.0603
   67SAPC  H17R 5624  -0.167   2.462   2.906  0.8473 -1.0147 -0.2794
   67SAPC  H17S 5625  -0.135   2.388   2.755 -0.6506 -0.3930  0.2381
   67SAPC  C218 5626  -0.165   2.597   2.738  0.4125 -0.2637  0.5812
   67SAPC  H18R 5627  -0.128   2.590   2.633  2.5578  2.1029  1.1061
   67SAPC  H18S 5628  -0.133   2.697   2.772  0.7827 -1.1041  2.8115
   67SAPC  C219 5629  -0.320   2.595   2.732  0.3078  0.0692 -0.8865
   67SAPC  H19R 5630  -0.345   2.599   2.840 -0.4626 -0.5805 -1.0298
   67SAPC  H19S 5631  -0.354   2.498   2.690 -0.8045  0.0049  0.1176
   67SAPC  C220 5632  -0.364   2.709   2.650  0.3699  0.2838  0.4943
   67SAPC  H20R 5633  -0.338   2.696   2.543 -2.4640  3.3126 -0.7322
   67SAPC  H20S 5634  -0.313   2.806   2.669  0.8422  0.4158 -1.2390
   67SAPC  H20T 5635  -0.473   2.726   2.665  0.1732 -1.0296  0.6170
   67SAPC   C33 5636   0.908   3.540   2.806 -0.4980 -0.8618 -0.5050
   67SAPC   H3X 5637   1.015   3.514   2.794 -0.1228  1.3452 -2.7500
   67SAPC   H3Y 5638   0.859   3.442   2.827 -0.5354 -0.8372 -0.4780
   67SAPC   C34 5639   0.869   3.640   2.919 -0.6851  0.0551  0.0005
   67SAPC   H4X 5640   0.759   3.653   2.909 -0.6278 -0.7816 -2.7103
   67SAPC   H4Y 5641   0.914   3.741   2.908  1.5198 -0.9584 -0.9837
   67SAPC   C35 5642   0.911   3.579   3.055  0.4714  0.8218 -0.5927
   67SAPC   H5X 5643   1.021   3.572   3.069  0.1461 -1.3800  1.4928
   67SAPC   H5Y 5644   0.875   3.475   3.065 -0.1566  1.2066  1.7493
   67SAPC   C36 5645   0.857   3.664   3.174  0.1416 -0.0222 -0.8614
   67SAPC   H6X 5646   0.763   3.622   3.216  0.0979  1.0824  0.1902
   67SAPC   H6Y 5647   0.836   3.772   3.155  1.2416  0.6417  1.3723
   67SAPC   C37 5648   0.942   3.651   3.298  0.2603 -1.1172 -0.2961
   67SAPC   H7X 5649   1.029   3.718   3.280 -0.2387 -0.7870 -1.6261
   67SAPC   H7Y 5650   0.974   3.546   3.318  2.4355 -0.4943 -0.2608
   67SAPC   C38 5651   0.870   3.693   3.426  0.4240 -0.6597 -0.4166
   67SAPC   H8X 5652   0.775   3.636   3.437 -2.3710  3.2870 -1.4879
   67SAPC   H8Y 5653   0.834   3.798   3.416 -0.1237 -0.7943  0.0456
   67SAPC   C39 5654   0.952   3.679   3.560 -0.5479 -0.0452 -0.2116
   67SAPC   H9X 5655   1.052   3.720   3.535 -0.9780  1.1581 -0.0232
   67SAPC   H9Y 5656   0.976   3.574   3.589  0.4019 -0.2772 -1.7274
   67SAPC  C310 5657   0.892   3.759   3.674 -0.5380 -0.2884  0.6672
   67SAPC  H10X 5658   0.881   3.866   3.647  0.2699 -0.5781 -0.9367
   67SAPC  H10Y 5659   0.967   3.766   3.755  0.1703 -2.2528  0.2417
   67SAPC  C311 5660   0.759   3.705   3.732  0.1751  0.4809 -0.2455
   67SAPC  H11X 5661   0.782   3.600   3.759 -1.3478  0.4400  0.9908
   67SAPC  H11Y 5662   0.673   3.699   3.663 -2.0748 -1.0087  2.4746
   67SAPC  C312 5663   0.712   3.781   3.854 -0.3674 -0.5393 -0.4102
   67SAPC  H12X 5664   0.609   3.749   3.881 -0.8390  0.6410 -0.7742
   67SAPC  H12Y 5665   0.688   3.887   3.832 -0.1061 -0.5219 -0.6244
   67SAPC  C313 5666   0.802   3.766   3.977  0.1999 -0.4172  0.0026
   67SAPC  H13X 5667   0.906   3.802   3.960 -0.3866  0.7521 -1.3923
   67SAPC  H13Y 5668   0.819   3.660   4.004  0.1583 -0.2829  0.5668
   67SAPC  C314 5669   0.747   3.839   4.100  0.6462 -0.3293 -0.4539
   67SAPC  H14X 5670   0.653   3.795   4.138 -0.1331  0.9667 -0.8329
   67SAPC  H14Y 5671   0.719   3.945   4.086 -1.1557 -0.6874  0.2277
   67SAPC  C315 5672   0.845   3.842   4.215  0.5409  0.2448 -0.2767
   67SAPC  H15X 5673   0.939   3.891   4.183  0.0315  0.4118 -1.5760
   67SAPC  H15Y 5674   0.875   3.739   4.245  3.5698  0.3483 -2.4767
   67SAPC  C316 5675   0.800   3.905   4.347  0.2251 -0.7591  0.0783
   67SAPC  H16X 5676   0.723   3.846   4.402  1.0147 -2.2836 -0.3893
   67SAPC  H16Y 5677   0.753   4.004   4.335 -2.0943 -1.7832  0.2731
   67SAPC  C317 5678   0.918   3.917   4.440 -0.8288 -0.0384  0.2554
   67SAPC  H17X 5679   0.994   3.994   4.412 -1.6142  0.9635  0.7842
   67SAPC  H17Y 5680   0.962   3.816   4.453 -0.1130  0.3795  1.1937
   67SAPC  C318 5681   0.872   3.959   4.579  0.0684  0.1170 -0.2524
   67SAPC  H18X 5682   0.792   4.035   4.571  0.3400  0.4599  0.1896
   67SAPC  H18Y 5683   0.950   3.998   4.648  1.8390 -0.9623 -1.5589
   67SAPC  H18Z 5684   0.821   3.872   4.626 -0.3610  0.4962 -0.0013
   68SAPC     N 5685   3.243   2.657   1.929  1.0257  0.1694  0.2123
   68SAPC   C12 5686   3.225   2.701   2.075 -0.2147 -0.2876 -0.1042
   68SAPC  H12A 5687   3.206   2.614   2.137  0.8108 -1.5853 -1.5124
   68SAPC  H12B 5688   3.130   2.751   2.083 -0.1228 -0.1221 -0.0561
   68SAPC   C13 5689   3.108   2.611   1.883  0.2141  0.1825  0.7916
   68SAPC  H13A 5690   3.110   2.555   1.791 -1.6129 -1.1861  1.5278
   68SAPC  H13B 5691   3.072   2.541   1.957  2.1585 -1.9073 -0.1082
   68SAPC  H13C 5692   3.041   2.693   1.862 -1.6524 -0.7939  2.5465
   68SAPC   C14 5693   3.289   2.776   1.852 -0.1606 -0.1784 -0.1755
   68SAPC  H14A 5694   3.211   2.850   1.849 -0.2138 -0.2494 -0.5528
   68SAPC  H14B 5695   3.371   2.821   1.907  0.6631  0.0008 -1.5157
   68SAPC  H14C 5696   3.342   2.750   1.762  2.0497  2.1356  0.3524
   68SAPC   C15 5697   3.340   2.545   1.920  0.5630 -0.3139 -0.2863
   68SAPC  H15A 5698   3.349   2.508   1.819  0.3435  0.2650 -0.5205
   68SAPC  H15B 5699   3.439   2.569   1.955 -0.3232 -0.3501  2.5629
   68SAPC  H15C 5700   3.307   2.472   1.993  1.8113  0.4676  1.1219
   68SAPC   C11 5701   3.346   2.769   2.140 -0.5170 -0.0274 -0.2001
   68SAPC  H11A 5702   3.439   2.709   2.138 -0.0356  0.6562  0.9405
   68SAPC  H11B 5703   3.321   2.775   2.248  0.4624  2.6992 -0.0705
   68SAPC     P 5704   3.308   3.027   2.147  0.0204 -0.0398 -0.5128
   68SAPC   O13 5705   3.348   3.150   2.067 -0.5467  0.2417 -1.0166
   68SAPC   O14 5706   3.164   3.010   2.156  0.1102  0.4546 -0.3107
   68SAPC   O12 5707   3.370   2.901   2.082 -0.0310  0.0390  0.7551
   68SAPC   O11 5708   3.362   3.040   2.300  0.0568 -0.5676  0.3249
   68SAPC    C1 5709   3.496   3.003   2.338  0.4259 -0.2726 -0.4632
   68SAPC    HA 5710   3.524   2.900   2.307  1.1476  0.0716 -0.9910
   68SAPC    HB 5711   3.563   3.075   2.285 -0.9194  0.3944 -1.3090
   68SAPC    C2 5712   3.508   3.015   2.499 -0.0811 -0.6844  0.5035
   68SAPC    HS 5713   3.599   2.966   2.540 -0.6164 -0.8979  1.4439
   68SAPC   O21 5714   3.384   2.967   2.561  0.8397  0.2058  0.0403
   68SAPC   C21 5715   3.356   2.839   2.535  1.0852 -0.4578  0.6182
   68SAPC   O22 5716   3.437   2.764   2.487 -0.3659  1.0500 -0.7119
   68SAPC   C22 5717   3.212   2.793   2.565 -0.5454  0.4118  0.2775
   68SAPC   H2R 5718   3.147   2.867   2.513  1.1364  2.0699  0.4162
   68SAPC   H2S 5719   3.194   2.697   2.512 -1.5159  1.5042 -1.4824
   68SAPC    C3 5720   3.523   3.164   2.523 -0.9159  0.2308  0.7921
   68SAPC    HX 5721   3.429   3.206   2.480 -0.1786  0.3612 -0.7308
   68SAPC    HY 5722   3.604   3.197   2.455  0.4333 -3.0121  0.6523
   68SAPC   O31 5723   3.548   3.202   2.663  0.0060 -0.1286  0.0941
   68SAPC   C31 5724   3.609   3.316   2.671 -0.1652  0.1817 -0.6529
   68SAPC   O32 5725   3.657   3.382   2.579 -0.5665 -0.5809  0.3537
   68SAPC   C32 5726   3.622   3.355   2.820  0.9179 -0.5365 -0.2326
   68SAPC   H2X 5727   3.563   3.290   2.888  0.7903  1.3025  1.5223
   68SAPC   H2Y 5728   3.576   3.455   2.830  2.6460  0.2396  0.3598
   68SAPC   C23 5729   3.178   2.776   2.710 -0.0707 -0.1369 -0.3643
   68SAPC   H3R 5730   3.224   2.866   2.756  0.9813 -0.4927 -0.6905
   68SAPC   H3S 5731   3.221   2.685   2.758 -0.9046  0.0233  0.7536
   68SAPC   C24 5732   3.032   2.772   2.732 -0.0427  0.2861 -0.5311
   68SAPC   H4R 5733   2.989   2.872   2.707  0.2462  0.1724 -1.5138
   68SAPC   H4S 5734   2.997   2.753   2.836 -1.1937  0.4381 -0.8737
   68SAPC   C25 5735   2.949   2.675   2.647 -0.8551  0.2180 -0.2493
   68SAPC   H5R 5736   2.942   2.700   2.540  1.6744 -3.3816 -1.4327
   68SAPC   C26 5737   2.861   2.577   2.686  0.3637  0.9740  0.5182
   68SAPC   H6R 5738   2.813   2.524   2.603  2.6862  1.2801 -1.1561
   68SAPC   C27 5739   2.818   2.537   2.816  0.0603 -0.1145  0.1625
   68SAPC   H7R 5740   2.901   2.532   2.890  2.3746  3.2865 -1.9365
   68SAPC   H7S 5741   2.790   2.430   2.803 -1.5695  0.2627  0.3155
   68SAPC   C28 5742   2.700   2.618   2.871 -0.0631  0.4694  0.2113
   68SAPC   H8R 5743   2.616   2.646   2.806 -0.7142 -0.0461  0.8172
   68SAPC   C29 5744   2.680   2.661   2.999  0.1606  0.6666 -0.4000
   68SAPC   H9R 5745   2.586   2.714   3.020  0.6696  1.7079 -0.6678
   68SAPC  C210 5746   2.772   2.621   3.117 -0.4576 -0.1076  0.6430
   68SAPC  H10R 5747   2.810   2.518   3.101  3.0892  1.2587 -0.7228
   68SAPC  H10S 5748   2.714   2.596   3.208  0.1242 -4.4106  0.0207
   68SAPC  C211 5749   2.891   2.711   3.130 -0.0392 -0.6619  0.1301
   68SAPC  H11R 5750   2.948   2.730   3.038 -0.3122 -0.0284  0.0871
   68SAPC  C212 5751   2.925   2.773   3.248 -0.0462 -0.1879  0.6696
   68SAPC  H12R 5752   3.016   2.833   3.234 -0.4537 -0.1513 -2.6862
   68SAPC  C213 5753   2.859   2.772   3.387  0.1553 -0.2524 -0.4725
   68SAPC  H13R 5754   2.763   2.716   3.392 -0.6933  1.2975  1.8584
   68SAPC  H13S 5755   2.851   2.875   3.428  3.0887 -0.3225  0.4744
   68SAPC  C214 5756   2.963   2.710   3.481 -0.0268  0.7468 -0.0248
   68SAPC  H14R 5757   2.951   2.601   3.479  1.2864  0.5890 -1.8616
   68SAPC  C215 5758   3.041   2.780   3.566  0.2888  0.7711  0.3482
   68SAPC  H15R 5759   3.121   2.722   3.613 -0.9611 -0.8603  0.5620
   68SAPC  C216 5760   3.072   2.927   3.558  0.4871 -0.6377 -0.7473
   68SAPC  H16R 5761   3.010   2.980   3.483 -0.6889  3.0436  2.4625
   68SAPC  H16S 5762   3.179   2.945   3.533  0.9921 -2.1850  0.1515
   68SAPC  C217 5763   3.049   3.000   3.692  0.7526 -1.1727  0.3045
   68SAPC  H17R 5764   2.944   2.990   3.727  0.1107 -3.4100 -1.9665
   68SAPC  H17S 5765   3.068   3.108   3.675 -1.4142 -0.9544 -1.0751
   68SAPC  C218 5766   3.132   2.939   3.808 -0.2983  0.0662 -0.3079
   68SAPC  H18R 5767   3.120   2.829   3.804  3.7455 -0.5126 -1.9211
   68SAPC  H18S 5768   3.090   2.978   3.903 -1.7325 -1.3496 -0.3349
   68SAPC  C219 5769   3.285   2.959   3.793  0.1222  0.2869  0.0398
   68SAPC  H19R 5770   3.308   3.067   3.785 -0.4460  0.4226  0.1816
   68SAPC  H19S 5771   3.328   2.908   3.704 -0.4548  0.0304 -0.0996
   68SAPC  C220 5772   3.347   2.908   3.926  0.2228  0.1330  0.2396
   68SAPC  H20R 5773   3.446   2.954   3.945  0.2798 -0.3937  1.3032
   68SAPC  H20S 5774   3.357   2.798   3.919 -1.5464  0.0819 -3.0816
   68SAPC  H20T 5775   3.274   2.929   4.008  0.9290 -0.0094  0.9199
   68SAPC   C33 5776   3.772   3.372   2.859  0.3237  0.3974 -0.2881
   68SAPC   H3X 5777   3.822   3.455   2.805  1.5508 -0.3590 -0.3505
   68SAPC   H3Y 5778   3.837   3.285   2.833  3.1067  2.4684 -0.6820
   68SAPC   C34 5779   3.779   3.376   3.014 -0.4867  1.0370  0.3095
   68SAPC   H4X 5780   3.708   3.293   3.035 -0.0055 -1.3446 -5.5371
   68SAPC   H4Y 5781   3.739   3.476   3.043  0.1525  0.9769  1.4160
   68SAPC   C35 5782   3.920   3.350   3.082  0.2749  0.0128  0.3943
   68SAPC   H5X 5783   4.006   3.412   3.049  0.5188 -1.0369 -1.0087
   68SAPC   H5Y 5784   3.944   3.244   3.059 -4.0102 -1.4627  1.8679
   68SAPC   C36 5785   3.916   3.354   3.236 -0.1409 -0.5444  0.7543
   68SAPC   H6X 5786   4.012   3.323   3.282  0.9654 -0.6264 -1.4841
   68SAPC   H6Y 5787   3.840   3.284   3.277  0.5796 -0.5579  2.1009
   68SAPC   C37 5788   3.892   3.495   3.287  0.5087 -0.0004  0.1578
   68SAPC   H7X 5789   3.787   3.515   3.256 -0.4726 -2.3723  1.6008
   68SAPC   H7Y 5790   3.970   3.564   3.250  2.1874 -0.2201  2.9619
   68SAPC   C38 5791   3.892   3.507   3.439  0.7449  0.0009 -0.3787
   68SAPC   H8X 5792   3.831   3.426   3.483  0.0161 -0.1717 -1.6599
   68SAPC   H8Y 5793   3.838   3.602   3.460 -0.5604 -0.7443 -0.2711
   68SAPC   C39 5794   4.024   3.516   3.495  0.2126  0.3848 -0.0511
   68SAPC   H9X 5795   4.080   3.604   3.456 -1.1813  0.7624 -1.2920
   68SAPC   H9Y 5796   4.082   3.423   3.477 -0.2856  0.2238 -0.9229
   68SAPC  C310 5797   4.007   3.550   3.646 -0.3085  0.1771 -0.1516
   68SAPC  H10X 5798   3.954   3.461   3.686  1.4741 -1.8678 -1.9832
   68SAPC  H10Y 5799   3.953   3.646   3.648  1.0572  1.0017 -1.0213
   68SAPC  C311 5800   4.148   3.572   3.708 -0.8241  0.4994  0.2185
   68SAPC  H11X 5801   4.205   3.633   3.635 -0.4404  1.3522  1.2078
   68SAPC  H11Y 5802   4.209   3.478   3.708 -2.2656 -0.5105  2.0475
   68SAPC  C312 5803   4.161   3.603   3.856  0.6982  0.4859  0.5960
   68SAPC  H12X 5804   4.116   3.522   3.918 -0.7349 -0.4290 -1.5269
   68SAPC  H12Y 5805   4.102   3.696   3.877 -0.3158  0.1816 -0.7294
   68SAPC  C313 5806   4.303   3.631   3.908 -0.0014  0.5720  0.1107
   68SAPC  H13X 5807   4.343   3.700   3.830  0.0991 -2.2118 -2.5069
   68SAPC  H13Y 5808   4.353   3.532   3.900 -0.0038  0.6523 -1.3237
   68SAPC  C314 5809   4.308   3.684   4.052 -0.0004  0.4365  0.4396
   68SAPC  H14X 5810   4.412   3.717   4.078  1.8232 -2.1367 -2.8990
   68SAPC  H14Y 5811   4.288   3.608   4.131  1.0054 -1.1909 -0.8220
   68SAPC  C315 5812   4.220   3.811   4.074 -0.7467  0.1248 -0.2887
   68SAPC  H15X 5813   4.117   3.776   4.050 -1.1090  1.3891 -0.6633
   68SAPC  H15Y 5814   4.240   3.889   3.997  0.5243  0.0197 -0.0854
   68SAPC  C316 5815   4.239   3.887   4.202 -0.3595  0.0102 -0.3289
   68SAPC  H16X 5816   4.348   3.904   4.219 -0.2925  0.2474 -0.9475
   68SAPC  H16Y 5817   4.205   3.832   4.292 -0.1571  0.9514  0.3486
   68SAPC  C317 5818   4.163   4.022   4.214 -0.3301  0.1933  0.2334
   68SAPC  H17X 5819   4.193   4.075   4.121 -0.3221  0.1970  0.2382
   68SAPC  H17Y 5820   4.199   4.090   4.294  1.6816  1.1391 -1.3939
   68SAPC  C318 5821   4.014   4.009   4.217 -0.2720 -0.6844 -1.2404
   68SAPC  H18X 5822   3.979   3.983   4.319  4.7385  4.3624  2.4003
   68SAPC  H18Y 5823   3.988   3.936   4.138  0.0528 -1.5017 -0.6142
   68SAPC  H18Z 5824   3.953   4.098   4.188  0.1316  0.0449  0.0586
   69SAPC     N 5825   2.569   6.728   1.754  0.2817 -0.0340  0.3701
   69SAPC   C12 5826   2.578   6.791   1.890 -0.3354  0.3286 -0.0387
   69SAPC  H12A 5827   2.502   6.753   1.956 -1.1531  2.4686  0.3578
   69SAPC  H12B 5828   2.559   6.897   1.884 -2.2042  0.0309 -0.0034
   69SAPC   C13 5829   2.428   6.748   1.711 -0.3520 -0.0758  0.3068
   69SAPC  H13A 5830   2.399   6.677   1.634 -0.4535  0.6699 -0.3577
   69SAPC  H13B 5831   2.354   6.732   1.787  0.1689  0.3220  0.9028
   69SAPC  H13C 5832   2.401   6.850   1.686 -1.0168 -0.2450  0.3064
   69SAPC   C14 5833   2.671   6.783   1.659 -0.2579 -0.5018  0.5932
   69SAPC  H14A 5834   2.768   6.749   1.691  0.2853  0.2224 -0.2208
   69SAPC  H14B 5835   2.653   6.743   1.560  0.5630 -1.0807  0.6772
   69SAPC  H14C 5836   2.678   6.891   1.657  0.5391 -0.5315  1.3582
   69SAPC   C15 5837   2.592   6.577   1.769  0.2331  0.2030  0.0232
   69SAPC  H15A 5838   2.689   6.546   1.803  1.0410  1.5572 -0.9542
   69SAPC  H15B 5839   2.516   6.536   1.833  0.1584 -1.2902 -0.9829
   69SAPC  H15C 5840   2.586   6.533   1.670 -3.6609 -0.0316  0.2243
   69SAPC   C11 5841   2.713   6.779   1.963  0.6462 -0.6305 -0.0923
   69SAPC  H11A 5842   2.757   6.678   1.950  1.0605 -0.5427  0.5463
   69SAPC  H11B 5843   2.689   6.783   2.072  1.3626  0.7172  0.0414
   69SAPC     P 5844   2.784   7.026   1.982  0.4315 -0.3267  0.1425
   69SAPC   O13 5845   2.893   7.117   1.933 -0.1699 -0.0876  0.9246
   69SAPC   O14 5846   2.647   7.067   1.941 -0.3721 -0.3834 -0.3605
   69SAPC   O12 5847   2.813   6.876   1.926  0.2692  0.0030  0.1842
   69SAPC   O11 5848   2.784   7.019   2.137  0.6197 -0.3191 -0.1566
   69SAPC    C1 5849   2.899   6.977   2.201  0.0897  0.1451 -0.6104
   69SAPC    HA 5850   2.918   6.874   2.164 -1.7180  0.1593 -1.6754
   69SAPC    HB 5851   2.983   7.042   2.170  0.4963  0.0327  0.2211
   69SAPC    C2 5852   2.895   6.989   2.355  0.1181 -0.2575 -0.7834
   69SAPC    HS 5853   3.000   7.016   2.378  0.1268 -0.0172 -1.0894
   69SAPC   O21 5854   2.865   6.862   2.416  0.2412 -0.2766 -0.6153
   69SAPC   C21 5855   2.958   6.766   2.403 -0.1864 -0.3280 -0.2417
   69SAPC   O22 5856   3.049   6.759   2.322  0.8030  0.2158  0.4492
   69SAPC   C22 5857   2.923   6.657   2.499  0.4311 -0.8127 -0.3126
   69SAPC   H2R 5858   2.892   6.580   2.425 -1.7409  1.2708 -1.7291
   69SAPC   H2S 5859   3.016   6.639   2.556 -0.3686 -0.5373  1.1273
   69SAPC    C3 5860   2.799   7.099   2.417  0.4832  0.1591 -0.1834
   69SAPC    HX 5861   2.697   7.069   2.386  0.3258  0.9471 -0.4631
   69SAPC    HY 5862   2.810   7.190   2.353  0.9308 -1.1162 -2.0145
   69SAPC   O31 5863   2.818   7.128   2.564 -0.3779 -0.1041  0.7934
   69SAPC   C31 5864   2.707   7.153   2.620  0.2015 -0.4816  0.7094
   69SAPC   O32 5865   2.595   7.157   2.565 -0.0645 -0.0248 -0.1595
   69SAPC   C32 5866   2.732   7.170   2.764  0.4158  0.2971 -0.1145
   69SAPC   H2X 5867   2.836   7.208   2.774  0.7527 -0.7291  0.3591
   69SAPC   H2Y 5868   2.714   7.068   2.805 -0.5815  0.2262 -0.6882
   69SAPC   C23 5869   2.797   6.680   2.587 -0.2561  0.1326 -0.4121
   69SAPC   H3R 5870   2.776   6.588   2.646 -0.0135 -0.4949 -1.2773
   69SAPC   H3S 5871   2.707   6.711   2.530  0.6748  2.1108 -0.8721
   69SAPC   C24 5872   2.823   6.782   2.698  0.3090  0.1809  0.0008
   69SAPC   H4R 5873   2.858   6.879   2.656  0.0860  0.2311 -0.0720
   69SAPC   H4S 5874   2.916   6.746   2.745  1.5878  2.7620 -0.3467
   69SAPC   C25 5875   2.699   6.810   2.786 -0.6805 -0.1662  0.1278
   69SAPC   H5R 5876   2.612   6.856   2.738  0.7582  0.6688 -1.8250
   69SAPC   C26 5877   2.697   6.810   2.917 -0.3446 -0.0809  0.4730
   69SAPC   H6R 5878   2.601   6.814   2.970 -0.9636  0.5071 -0.6469
   69SAPC   C27 5879   2.811   6.765   2.999 -0.8317 -0.1381  0.2480
   69SAPC   H7R 5880   2.913   6.793   2.966  0.2373 -2.3197  1.5178
   69SAPC   H7S 5881   2.821   6.656   2.986 -1.0139  0.1943 -4.5290
   69SAPC   C28 5882   2.809   6.801   3.147  0.2774 -0.0420  0.1290
   69SAPC   H8R 5883   2.837   6.905   3.168  0.5398 -0.0289 -0.2744
   69SAPC   C29 5884   2.771   6.731   3.256  0.4099  0.3312  0.7224
   69SAPC   H9R 5885   2.807   6.775   3.351  0.3059  1.3840  0.2767
   69SAPC  C210 5886   2.701   6.598   3.268  0.3857  0.8999  0.6267
   69SAPC  H10R 5887   2.780   6.528   3.304 -0.8547 -0.7382  0.2707
   69SAPC  H10S 5888   2.685   6.573   3.161  0.2585  1.3603  0.5348
   69SAPC  C211 5889   2.574   6.592   3.356  0.4187  0.4493 -0.5601
   69SAPC  H11R 5890   2.597   6.557   3.458 -1.2682  0.9722  0.0395
   69SAPC  C212 5891   2.450   6.633   3.323 -0.2165  0.0700 -0.0028
   69SAPC  H12R 5892   2.374   6.643   3.401 -1.0268 -0.1306 -0.7471
   69SAPC  C213 5893   2.405   6.697   3.193  0.0318 -0.8024 -0.4628
   69SAPC  H13R 5894   2.307   6.657   3.160  0.2807  1.0432 -3.8717
   69SAPC  H13S 5895   2.464   6.669   3.103 -0.1093  0.1945 -0.8685
   69SAPC  C214 5896   2.406   6.845   3.207 -0.7944 -0.3595  0.1900
   69SAPC  H14R 5897   2.492   6.890   3.260  0.2414 -2.1804  0.1178
   69SAPC  C215 5898   2.301   6.922   3.175  0.3990 -0.6380 -0.4213
   69SAPC  H15R 5899   2.313   7.027   3.207  1.0612 -0.7848 -0.1706
   69SAPC  C216 5900   2.170   6.878   3.111  0.1482 -0.2176  1.0584
   69SAPC  H16R 5901   2.082   6.919   3.165 -1.1343 -1.7282  0.1916
   69SAPC  H16S 5902   2.149   6.769   3.121  1.6246 -0.4142  2.3211
   69SAPC  C217 5903   2.154   6.921   2.958  0.1220 -0.0854 -0.1233
   69SAPC  H17R 5904   2.195   7.022   2.935  1.3425 -0.3958  0.5854
   69SAPC  H17S 5905   2.045   6.922   2.937 -0.2150  0.4029  1.5299
   69SAPC  C218 5906   2.228   6.822   2.876  1.1066 -0.6136  0.3526
   69SAPC  H18R 5907   2.178   6.722   2.880  0.6147 -0.5743 -2.3409
   69SAPC  H18S 5908   2.334   6.814   2.907  1.2589  1.3002  0.3905
   69SAPC  C219 5909   2.222   6.867   2.727  0.3160 -0.7271  0.3775
   69SAPC  H19R 5910   2.285   6.958   2.733 -0.0513 -0.5447  1.9406
   69SAPC  H19S 5911   2.125   6.915   2.700 -0.0205 -1.2836  0.5851
   69SAPC  C220 5912   2.274   6.776   2.628 -0.6904 -0.2183  0.7455
   69SAPC  H20R 5913   2.283   6.815   2.524 -2.0933  0.1817  0.7404
   69SAPC  H20S 5914   2.214   6.682   2.625  1.7883 -1.8702 -1.0625
   69SAPC  H20T 5915   2.370   6.736   2.665  0.6708  0.7233 -1.5816
   69SAPC   C33 5916   2.634   7.260   2.838  0.3840  0.0759 -0.0403
   69SAPC   H3X 5917   2.528   7.246   2.806  0.7198 -0.6687 -0.8561
   69SAPC   H3Y 5918   2.649   7.369   2.825 -0.4689  0.2426  0.2951
   69SAPC   C34 5919   2.626   7.229   2.990 -0.2860 -0.8665  0.1753
   69SAPC   H4X 5920   2.733   7.228   3.020  0.2593 -0.7463 -1.6235
   69SAPC   H4Y 5921   2.588   7.126   3.007 -0.1184 -0.5497  2.9584
   69SAPC   C35 5922   2.539   7.318   3.083  0.1826 -0.6646  0.6309
   69SAPC   H5X 5923   2.436   7.293   3.051 -0.3438 -0.0238  1.7743
   69SAPC   H5Y 5924   2.561   7.421   3.050  0.8935 -1.1108 -0.3391
   69SAPC   C36 5925   2.562   7.288   3.229 -0.2730  0.0646 -0.2033
   69SAPC   H6X 5926   2.535   7.185   3.262 -0.6161  0.7132  1.7070
   69SAPC   H6Y 5927   2.497   7.350   3.294 -0.1660 -0.3496  0.3098
   69SAPC   C37 5928   2.708   7.313   3.278  0.2731  1.1469 -0.2662
   69SAPC   H7X 5929   2.742   7.411   3.239  1.4294  0.5520 -0.8049
   69SAPC   H7Y 5930   2.776   7.234   3.238  0.6157  0.4382  1.6131
   69SAPC   C38 5931   2.723   7.309   3.434  0.1562 -0.1173  0.3428
   69SAPC   H8X 5932   2.647   7.376   3.480 -0.4287  0.2697 -1.1095
   69SAPC   H8Y 5933   2.826   7.336   3.469 -0.1757  0.2410  1.0649
   69SAPC   C39 5934   2.704   7.171   3.504  0.7018  0.0602  0.0866
   69SAPC   H9X 5935   2.780   7.113   3.448  1.1258  2.7200 -2.3482
   69SAPC   H9Y 5936   2.606   7.120   3.496  0.8616 -0.1975 -0.2666
   69SAPC  C310 5937   2.747   7.174   3.653 -0.7534  0.1628  0.5024
   69SAPC  H10X 5938   2.689   7.242   3.719 -0.4301 -0.5695  1.5844
   69SAPC  H10Y 5939   2.855   7.196   3.665 -0.7808  0.0997  0.8942
   69SAPC  C311 5940   2.731   7.029   3.710  0.3102  0.3157 -0.1391
   69SAPC  H11X 5941   2.805   6.968   3.655  0.3292  1.2729 -1.1915
   69SAPC  H11Y 5942   2.636   6.983   3.675 -0.7541  1.8364  0.6455
   69SAPC  C312 5943   2.735   7.010   3.863 -0.6657 -0.1410  0.1859
   69SAPC  H12X 5944   2.652   7.055   3.921 -0.6695  0.4066 -0.2326
   69SAPC  H12Y 5945   2.824   7.071   3.891 -1.0904 -0.3096  2.0368
   69SAPC  C313 5946   2.743   6.863   3.909  0.4041  0.2740  0.1414
   69SAPC  H13X 5947   2.762   6.863   4.019 -1.9394  3.8977  0.7241
   69SAPC  H13Y 5948   2.833   6.822   3.860  0.0215 -0.9544  0.4146
   69SAPC  C314 5949   2.620   6.779   3.882 -0.3237  0.3994  0.8190
   69SAPC  H14X 5950   2.590   6.791   3.776 -0.6324  2.1467  1.0781
   69SAPC  H14Y 5951   2.538   6.820   3.945  1.2826  1.7858  2.0890
   69SAPC  C315 5952   2.632   6.629   3.900  0.2656  0.4407 -0.8696
   69SAPC  H15X 5953   2.527   6.594   3.909  0.5209 -0.5335 -1.5755
   69SAPC  H15Y 5954   2.684   6.601   3.994 -0.9087 -1.4773 -0.7515
   69SAPC  C316 5955   2.692   6.561   3.781  0.4969 -0.5105  0.1140
   69SAPC  H16X 5956   2.802   6.570   3.795  0.2808  0.0862  1.5509
   69SAPC  H16Y 5957   2.676   6.618   3.687  1.3652 -0.4823 -0.0246
   69SAPC  C317 5958   2.636   6.418   3.759 -0.2992 -0.3472 -0.3226
   69SAPC  H17X 5959   2.630   6.372   3.860 -2.0101  0.8720  0.1782
   69SAPC  H17Y 5960   2.713   6.360   3.704 -2.5158 -2.8491 -0.9560
   69SAPC  C318 5961   2.506   6.410   3.689  0.0865 -0.0207  0.2078
   69SAPC  H18X 5962   2.498   6.311   3.640  0.7736 -0.8603  1.7222
   69SAPC  H18Y 5963   2.503   6.487   3.609 -0.6596 -1.1395 -0.8755
   69SAPC  H18Z 5964   2.421   6.434   3.757 -1.0522 -0.7116 -0.9417
   70SAPC     N 5965   4.988   4.938   2.510 -0.3997 -0.7484  0.5723
   70SAPC   C12 5966   4.994   4.903   2.656 -0.6102 -0.4882  0.4534
   70SAPC  H12A 5967   4.915   4.959   2.704 -0.0852  0.8911 -0.2234
   70SAPC  H12B 5968   5.085   4.948   2.693 -1.0905  0.9470 -0.0305
   70SAPC   C13 5969   5.008   5.086   2.495  1.1670  0.2240 -0.1195
   70SAPC  H13A 5970   4.943   5.151   2.552  0.7498 -0.2285 -0.0685
   70SAPC  H13B 5971   5.104   5.110   2.537  1.0365 -1.0882  1.0166
   70SAPC  H13C 5972   5.000   5.116   2.392 -0.0370  4.2414  0.9796
   70SAPC   C14 5973   5.087   4.874   2.421  0.0247  0.4331 -0.2974
   70SAPC  H14A 5974   5.066   4.768   2.420  1.0778  0.2109 -1.2804
   70SAPC  H14B 5975   5.085   4.919   2.323 -1.3620  0.4924 -0.2498
   70SAPC  H14C 5976   5.186   4.874   2.465  0.2628 -0.9049 -0.7698
   70SAPC   C15 5977   4.850   4.904   2.453 -1.0280 -0.7810 -0.1302
   70SAPC  H15A 5978   4.831   4.811   2.504 -0.5647 -0.4831  0.5958
   70SAPC  H15B 5979   4.786   4.986   2.481  1.6526  0.8261  1.6090
   70SAPC  H15C 5980   4.843   4.896   2.345 -0.3896  1.9232 -0.4387
   70SAPC   C11 5981   4.992   4.752   2.696  1.1402 -0.5371  0.0558
   70SAPC  H11A 5982   5.034   4.741   2.798 -0.9767  3.2287  1.5167
   70SAPC  H11B 5983   5.051   4.685   2.630  1.3566  0.8704 -1.2531
   70SAPC     P 5984   4.804   4.573   2.687  0.4402 -0.0020  0.6706
   70SAPC   O13 5985   4.733   4.556   2.559  0.7165 -0.4330  0.3788
   70SAPC   O14 5986   4.915   4.486   2.706  0.7108  0.2725 -0.2379
   70SAPC   O12 5987   4.854   4.725   2.693  0.7076 -0.1360 -0.2813
   70SAPC   O11 5988   4.692   4.567   2.805 -0.2491  0.3174 -0.7393
   70SAPC    C1 5989   4.567   4.635   2.796  0.5576  0.3600 -0.2223
   70SAPC    HA 5990   4.583   4.743   2.778  1.1396  0.3042 -0.0603
   70SAPC    HB 5991   4.508   4.595   2.711  0.3363  0.4306 -0.1028
   70SAPC    C2 5992   4.487   4.596   2.918  0.7967 -0.0987  0.2213
   70SAPC    HS 5993   4.384   4.638   2.918  0.0882 -1.7335  0.1045
   70SAPC   O21 5994   4.557   4.634   3.042  0.1450  0.0160 -0.1320
   70SAPC   C21 5995   4.519   4.751   3.095 -0.3328 -0.1258  0.4267
   70SAPC   O22 5996   4.437   4.828   3.052 -0.2581 -0.1928 -0.4807
   70SAPC   C22 5997   4.591   4.771   3.233  0.6091  0.0262  0.6386
   70SAPC   H2R 5998   4.662   4.688   3.252 -0.1632 -0.0864  3.4272
   70SAPC   H2S 5999   4.649   4.866   3.232  2.9035 -1.1485  3.9273
   70SAPC    C3 6000   4.460   4.437   2.912  0.1566 -0.2215  0.8768
   70SAPC    HX 6001   4.565   4.400   2.915  0.1299 -0.4144 -0.2219
   70SAPC    HY 6002   4.410   4.427   2.813  2.9720  0.4406 -0.7259
   70SAPC   O31 6003   4.390   4.385   3.029  0.7610  0.1511  0.3513
   70SAPC   C31 6004   4.381   4.250   3.011 -0.7115 -0.0226  0.8765
   70SAPC   O32 6005   4.420   4.198   2.905  0.3634  0.0087 -0.1590
   70SAPC   C32 6006   4.341   4.184   3.139  0.0068  0.4349 -0.3517
   70SAPC   H2X 6007   4.232   4.201   3.154  0.1670 -0.1696  1.8755
   70SAPC   H2Y 6008   4.407   4.223   3.219 -0.3528  0.1473  0.0948
   70SAPC   C23 6009   4.482   4.769   3.348  0.0007 -0.4329 -0.4308
   70SAPC   H3R 6010   4.406   4.847   3.324 -2.3692 -2.2471  0.8120
   70SAPC   H3S 6011   4.538   4.785   3.442 -1.6822 -0.7068  0.6679
   70SAPC   C24 6012   4.437   4.622   3.376  0.1714  0.0729  0.5734
   70SAPC   H4R 6013   4.408   4.607   3.482  2.3271 -1.7966  0.9857
   70SAPC   H4S 6014   4.515   4.545   3.358 -0.1013 -0.1576  0.3673
   70SAPC   C25 6015   4.325   4.568   3.287 -0.5561 -0.2465 -0.5238
   70SAPC   H5R 6016   4.359   4.574   3.183  0.0444  1.3581 -0.2640
   70SAPC   C26 6017   4.206   4.517   3.324  0.3306 -0.4666 -0.2444
   70SAPC   H6R 6018   4.136   4.486   3.245 -2.0683  1.0982  1.1455
   70SAPC   C27 6019   4.130   4.511   3.461 -0.0231 -0.6270 -0.6114
   70SAPC   H7R 6020   4.104   4.611   3.504 -0.2030 -0.6043 -0.7726
   70SAPC   H7S 6021   4.203   4.468   3.533  1.1424  2.4191  0.1746
   70SAPC   C28 6022   4.008   4.420   3.464 -0.2938  0.8408 -0.1324
   70SAPC   H8R 6023   3.954   4.407   3.369  0.3015  0.6078 -0.4437
   70SAPC   C29 6024   3.965   4.346   3.572 -0.0640 -0.1064  0.7691
   70SAPC   H9R 6025   3.883   4.275   3.554 -0.7183  1.2255 -2.0571
   70SAPC  C210 6026   4.015   4.362   3.714  0.8912 -0.0152 -0.5810
   70SAPC  H10R 6027   4.125   4.376   3.711  0.7844  1.3237  0.5356
   70SAPC  H10S 6028   3.993   4.268   3.770 -0.2588 -0.6989 -2.1260
   70SAPC  C211 6029   3.954   4.478   3.793  0.1205  0.4197  0.0252
   70SAPC  H11R 6030   3.905   4.545   3.720  1.6001  1.2467 -0.2681
   70SAPC  C212 6031   3.913   4.480   3.921  0.2114 -0.1063  0.1085
   70SAPC  H12R 6032   3.881   4.577   3.963 -2.0368 -0.6497 -0.2343
   70SAPC  C213 6033   3.938   4.375   4.021 -0.0663 -0.3736 -0.1339
   70SAPC  H13R 6034   4.047   4.382   4.042 -0.0627  0.4041 -0.3663
   70SAPC  H13S 6035   3.921   4.275   3.977 -0.1684 -0.4613  0.1025
   70SAPC  C214 6036   3.856   4.389   4.143 -0.0899  0.3768  0.4212
   70SAPC  H14R 6037   3.750   4.388   4.116  0.5997 -0.8761 -2.7499
   70SAPC  C215 6038   3.905   4.383   4.270 -0.2112 -0.7196  0.1243
   70SAPC  H15R 6039   3.836   4.394   4.355 -1.4963  1.4697 -1.1124
   70SAPC  C216 6040   4.049   4.390   4.304 -0.1524  0.0397  0.5906
   70SAPC  H16R 6041   4.101   4.299   4.268 -0.7529 -0.0198 -0.1572
   70SAPC  H16S 6042   4.051   4.379   4.414 -3.5261 -1.2305  0.6361
   70SAPC  C217 6043   4.139   4.511   4.271 -0.1159 -0.0028 -0.3999
   70SAPC  H17R 6044   4.089   4.605   4.302 -1.8616 -0.9597 -0.2047
   70SAPC  H17S 6045   4.158   4.524   4.162  1.2074  0.5098 -0.1274
   70SAPC  C218 6046   4.277   4.484   4.338  0.2695  0.3483 -0.9056
   70SAPC  H18R 6047   4.354   4.536   4.278  0.3489  0.0755 -1.0442
   70SAPC  H18S 6048   4.292   4.378   4.309  4.3310  0.4025  0.4657
   70SAPC  C219 6049   4.278   4.513   4.485  0.4249  0.6456 -0.0118
   70SAPC  H19R 6050   4.365   4.461   4.531 -0.8642 -0.2722  1.5032
   70SAPC  H19S 6051   4.185   4.473   4.532  0.7548  1.1049  1.0611
   70SAPC  C220 6052   4.285   4.660   4.526  0.2774  0.5357  0.2433
   70SAPC  H20R 6053   4.191   4.708   4.492  0.7519  1.5763  0.3393
   70SAPC  H20S 6054   4.363   4.717   4.471  0.7424 -1.1506 -0.9057
   70SAPC  H20T 6055   4.294   4.665   4.637  0.3623 -0.8037  0.3104
   70SAPC   C33 6056   4.366   4.028   3.136  0.2947 -0.6861 -0.4499
   70SAPC   H3X 6057   4.475   4.007   3.135  0.3275 -0.7905 -3.0987
   70SAPC   H3Y 6058   4.317   3.966   3.057 -0.9677 -0.2716 -0.0136
   70SAPC   C34 6059   4.295   3.975   3.265 -0.1596  0.6635 -0.2573
   70SAPC   H4X 6060   4.288   3.865   3.255 -0.8189  0.2299  3.6194
   70SAPC   H4Y 6061   4.191   4.011   3.276 -0.8299 -1.4974  1.0623
   70SAPC   C35 6062   4.369   4.017   3.393  0.2342 -0.0312 -0.4127
   70SAPC   H5X 6063   4.386   4.126   3.386 -0.4526  0.0690 -0.6546
   70SAPC   H5Y 6064   4.474   3.981   3.392 -0.1129 -1.1393  0.6300
   70SAPC   C36 6065   4.301   3.977   3.532  0.1124 -0.4641  0.7871
   70SAPC   H6X 6066   4.301   3.866   3.519 -0.9298 -0.3435 -0.3306
   70SAPC   H6Y 6067   4.195   4.009   3.525 -0.0978 -1.0581  1.1566
   70SAPC   C37 6068   4.375   4.026   3.657  0.6088 -0.4100  0.5547
   70SAPC   H7X 6069   4.308   3.996   3.740 -3.5579  0.2537 -2.2689
   70SAPC   H7Y 6070   4.470   3.967   3.654  0.4623 -0.6143 -0.4515
   70SAPC   C38 6071   4.402   4.173   3.652 -0.1528 -0.5080 -0.3494
   70SAPC   H8X 6072   4.299   4.214   3.646 -0.1590 -0.5630 -0.6533
   70SAPC   H8Y 6073   4.459   4.212   3.564  1.4276 -0.4168  0.6797
   70SAPC   C39 6074   4.466   4.232   3.778  0.2110  0.1148  0.7515
   70SAPC   H9X 6075   4.478   4.341   3.759 -1.0182 -0.2248 -2.7251
   70SAPC   H9Y 6076   4.567   4.188   3.786 -0.6058 -2.1204 -0.3604
   70SAPC  C310 6077   4.377   4.222   3.903 -0.1174  0.3051  0.5050
   70SAPC  H10X 6078   4.375   4.117   3.940  3.3080  0.4747  1.5049
   70SAPC  H10Y 6079   4.275   4.252   3.871 -1.1102 -0.9737  2.3316
   70SAPC  C311 6080   4.420   4.311   4.016 -0.3498  0.1600 -0.3355
   70SAPC  H11X 6081   4.346   4.319   4.099 -1.0146  0.1456 -0.9201
   70SAPC  H11Y 6082   4.435   4.416   3.981  0.1762  0.3204  0.3557
   70SAPC  C312 6083   4.552   4.269   4.080 -0.6096  0.0922 -0.0115
   70SAPC  H12X 6084   4.614   4.354   4.116 -1.8765  1.5444 -1.1189
   70SAPC  H12Y 6085   4.615   4.225   4.000 -0.4174 -1.4546  0.9437
   70SAPC  C313 6086   4.540   4.176   4.199  0.5848 -0.1501  0.7246
   70SAPC  H13X 6087   4.525   4.074   4.160  0.2068 -0.6102  2.0135
   70SAPC  H13Y 6088   4.458   4.211   4.265  1.0725 -0.0676  1.2988
   70SAPC  C314 6089   4.675   4.157   4.276  0.7411  0.7737 -0.1325
   70SAPC  H14X 6090   4.706   4.258   4.312  0.1922  0.2495  1.9438
   70SAPC  H14Y 6091   4.749   4.114   4.206  0.3253  1.1547 -0.8232
   70SAPC  C315 6092   4.661   4.060   4.394  0.0756  0.2841 -0.7339
   70SAPC  H15X 6093   4.691   3.956   4.369  2.3044  0.6855  0.0040
   70SAPC  H15Y 6094   4.555   4.069   4.428  0.2859  3.3004 -0.6618
   70SAPC  C316 6095   4.769   4.101   4.500 -0.0337  0.0624  0.4045
   70SAPC  H16X 6096   4.741   4.204   4.532 -0.2637 -0.1425  0.8810
   70SAPC  H16Y 6097   4.866   4.111   4.447  0.1665  1.0009  0.9211
   70SAPC  C317 6098   4.783   4.002   4.608  0.0060  0.4458  0.1034
   70SAPC  H17X 6099   4.828   4.054   4.696 -1.7992 -2.3107  2.8848
   70SAPC  H17Y 6100   4.848   3.920   4.570 -0.0052 -0.1067  1.2313
   70SAPC  C318 6101   4.648   3.944   4.665  0.0266 -0.5965 -0.6893
   70SAPC  H18X 6102   4.669   3.881   4.755 -2.4051  2.5507  2.3695
   70SAPC  H18Y 6103   4.600   3.871   4.597  0.3584 -3.7963  2.2185
   70SAPC  H18Z 6104   4.576   4.019   4.703  1.5506  0.2199  0.7318
   71SAPC     N 6105   4.234   2.463   2.110  0.6388 -0.3769 -0.3677
   71SAPC   C12 6106   4.273   2.610   2.083  0.4380 -0.2582  0.2620
   71SAPC  H12A 6107   4.190   2.673   2.111  0.4169  0.0818 -0.5152
   71SAPC  H12B 6108   4.300   2.633   1.981  1.9211  1.6478  1.0120
   71SAPC   C13 6109   4.219   2.437   2.256  0.3237 -0.0662 -0.4359
   71SAPC  H13A 6110   4.310   2.449   2.311 -0.6736 -2.1799  1.8834
   71SAPC  H13B 6111   4.150   2.507   2.300  1.4083  0.1748  0.9262
   71SAPC  H13C 6112   4.193   2.336   2.285  0.3519 -0.5500 -1.9732
   71SAPC   C14 6113   4.106   2.421   2.050 -0.2174  0.1451 -0.0902
   71SAPC  H14A 6114   4.023   2.474   2.094 -0.5096 -0.4152  0.0393
   71SAPC  H14B 6115   4.124   2.442   1.946 -1.1363  3.2578  0.2731
   71SAPC  H14C 6116   4.092   2.316   2.074 -0.4157 -0.2244 -1.7177
   71SAPC   C15 6117   4.331   2.367   2.057 -0.0495  0.1946  0.3569
   71SAPC  H15A 6118   4.314   2.350   1.951  2.4688 -0.4027 -0.0088
   71SAPC  H15B 6119   4.425   2.417   2.073 -0.5962  0.8769  1.5572
   71SAPC  H15C 6120   4.317   2.276   2.114 -2.7859 -0.2613 -0.8509
   71SAPC   C11 6121   4.383   2.676   2.179  0.4191  0.3043  0.0756
   71SAPC  H11A 6122   4.335   2.688   2.278  0.5629 -0.4410  0.2368
   71SAPC  H11B 6123   4.401   2.778   2.138 -0.5525  0.2489 -0.5210
   71SAPC     P 6124   4.619   2.616   2.075 -0.2193  0.0040  0.1966
   71SAPC   O13 6125   4.637   2.492   1.999  0.1982  0.2158  0.0815
   71SAPC   O14 6126   4.611   2.744   1.990 -0.0471 -0.5003 -0.4218
   71SAPC   O12 6127   4.500   2.597   2.177 -0.4279  0.6156  0.0577
   71SAPC   O11 6128   4.734   2.629   2.175  0.5947 -0.5763 -0.2418
   71SAPC    C1 6129   4.792   2.736   2.252  0.1197 -0.1928 -0.0637
   71SAPC    HA 6130   4.903   2.737   2.259  0.0265  0.2771  1.6604
   71SAPC    HB 6131   4.764   2.837   2.216  1.0462  0.2681  0.5055
   71SAPC    C2 6132   4.719   2.731   2.388  0.6790 -0.4205  0.0461
   71SAPC    HS 6133   4.672   2.630   2.394 -1.4021  0.4406 -0.8232
   71SAPC   O21 6134   4.620   2.837   2.390  0.0015 -0.2909 -0.2720
   71SAPC   C21 6135   4.515   2.830   2.468 -1.0204 -0.0375  0.6408
   71SAPC   O22 6136   4.486   2.739   2.543  0.1705  0.4554 -0.1861
   71SAPC   C22 6137   4.418   2.941   2.429 -0.4971  0.8450  0.0355
   71SAPC   H2R 6138   4.467   3.040   2.436 -1.6012  1.8742 -3.9344
   71SAPC   H2S 6139   4.391   2.928   2.322  1.2756 -0.3405 -0.3275
   71SAPC    C3 6140   4.812   2.767   2.521 -0.3421  0.5925  0.6604
   71SAPC    HX 6141   4.835   2.876   2.523 -0.8263  0.7027  2.6905
   71SAPC    HY 6142   4.909   2.714   2.512 -1.8166 -1.9733 -1.4414
   71SAPC   O31 6143   4.748   2.744   2.646  0.1299 -0.1734  0.0200
   71SAPC   C31 6144   4.725   2.614   2.680 -0.1006 -0.4752 -0.0687
   71SAPC   O32 6145   4.747   2.523   2.600 -0.2607  0.6237  0.2433
   71SAPC   C32 6146   4.671   2.600   2.820 -0.1019 -0.2949  0.8354
   71SAPC   H2X 6147   4.563   2.624   2.817 -0.2383 -0.9653  0.1657
   71SAPC   H2Y 6148   4.708   2.685   2.882 -0.2638  2.1001 -2.1393
   71SAPC   C23 6149   4.290   2.944   2.507  0.5460  0.5199  0.1745
   71SAPC   H3R 6150   4.242   2.844   2.518  2.3236 -0.2448  1.5807
   71SAPC   H3S 6151   4.212   3.000   2.451  0.8744  0.8031 -0.0043
   71SAPC   C24 6152   4.306   2.997   2.646 -0.3784 -0.2327 -0.1816
   71SAPC   H4R 6153   4.379   2.926   2.690 -1.4249 -0.8784  0.5230
   71SAPC   H4S 6154   4.210   2.984   2.700 -0.6732  2.6664  0.2033
   71SAPC   C25 6155   4.356   3.139   2.670  0.8392 -0.0278 -0.2650
   71SAPC   H5R 6156   4.440   3.171   2.607  0.7713  0.3730 -0.1503
   71SAPC   C26 6157   4.303   3.229   2.755 -0.2352  0.5912 -0.1235
   71SAPC   H6R 6158   4.341   3.333   2.752 -0.1721  0.6270  1.2813
   71SAPC   C27 6159   4.182   3.207   2.837  1.1597 -0.4253  0.6624
   71SAPC   H7R 6160   4.108   3.172   2.761  1.9738  1.2014 -0.9610
   71SAPC   H7S 6161   4.138   3.306   2.861 -1.1800 -0.3844 -2.9097
   71SAPC   C28 6162   4.202   3.116   2.952  0.1842 -0.2344  0.0623
   71SAPC   H8R 6163   4.199   3.009   2.927 -0.7953 -0.9002  2.7120
   71SAPC   C29 6164   4.250   3.157   3.073 -0.5814 -0.0506 -0.0085
   71SAPC   H9R 6165   4.253   3.085   3.156 -1.2368  1.5089  1.4522
   71SAPC  C210 6166   4.288   3.300   3.103 -0.2054  0.1774 -0.5231
   71SAPC  H10R 6167   4.244   3.325   3.202 -2.5997  1.2367 -1.7852
   71SAPC  H10S 6168   4.234   3.372   3.038 -0.8782  0.9559  0.8562
   71SAPC  C211 6169   4.438   3.319   3.103  0.6375 -0.5413  0.0157
   71SAPC  H11R 6170   4.469   3.338   2.999 -1.8656 -1.4207 -0.9614
   71SAPC  C212 6171   4.519   3.302   3.207 -0.4084 -0.7062 -0.0453
   71SAPC  H12R 6172   4.627   3.316   3.193 -0.3022 -1.0013  0.4676
   71SAPC  C213 6173   4.480   3.268   3.351  0.0979  0.2805  0.6128
   71SAPC  H13R 6174   4.400   3.192   3.360  1.1890 -0.9724  0.0519
   71SAPC  H13S 6175   4.451   3.352   3.417  0.2305  0.6309  0.2310
   71SAPC  C214 6176   4.604   3.196   3.406  0.5066 -0.9046 -0.2939
   71SAPC  H14R 6177   4.625   3.100   3.357 -0.1641 -0.4454 -1.5128
   71SAPC  C215 6178   4.652   3.213   3.532  0.3711 -0.7672  0.2403
   71SAPC  H15R 6179   4.744   3.160   3.560  0.5770 -0.3530  0.3711
   71SAPC  C216 6180   4.602   3.314   3.628  1.1087  0.0627 -0.2832
   71SAPC  H16R 6181   4.508   3.273   3.670  0.7835  0.1235 -0.9485
   71SAPC  H16S 6182   4.578   3.413   3.584  0.0170 -0.5736 -1.1578
   71SAPC  C217 6183   4.705   3.332   3.736  0.8438  0.0838 -0.6247
   71SAPC  H17R 6184   4.676   3.419   3.799  1.3345 -0.0809 -0.1641
   71SAPC  H17S 6185   4.806   3.346   3.694  1.7816 -1.2003  1.0616
   71SAPC  C218 6186   4.708   3.204   3.832 -0.0163 -0.1895 -0.3392
   71SAPC  H18R 6187   4.760   3.116   3.788 -0.5654 -1.2410  1.0143
   71SAPC  H18S 6188   4.607   3.161   3.850  0.3607 -0.7002  0.6396
   71SAPC  C219 6189   4.775   3.235   3.968 -0.0870  0.4123 -0.6412
   71SAPC  H19R 6190   4.853   3.309   3.942  0.8716 -0.2454  0.2679
   71SAPC  H19S 6191   4.827   3.150   4.017 -1.7980  1.2203  2.8406
   71SAPC  C220 6192   4.677   3.298   4.069 -0.0597  0.5660 -0.3110
   71SAPC  H20R 6193   4.594   3.234   4.104  2.2718 -0.5231  3.9404
   71SAPC  H20S 6194   4.632   3.378   4.007  0.6905  0.0831 -1.5103
   71SAPC  H20T 6195   4.735   3.340   4.154 -1.1545  2.7702 -0.5792
   71SAPC   C33 6196   4.684   2.463   2.892 -0.1368 -0.4620  0.2408
   71SAPC   H3X 6197   4.794   2.456   2.901  0.5919  4.0492 -2.0363
   71SAPC   H3Y 6198   4.642   2.387   2.823 -1.1206  0.2713 -0.0051
   71SAPC   C34 6199   4.619   2.474   3.031  0.5182 -0.0696 -0.1054
   71SAPC   H4X 6200   4.516   2.510   3.010 -1.2973 -3.2254  2.4576
   71SAPC   H4Y 6201   4.671   2.548   3.096 -1.6432 -0.2870  1.9962
   71SAPC   C35 6202   4.616   2.345   3.101 -0.5446  0.5803 -0.5462
   71SAPC   H5X 6203   4.718   2.302   3.107 -0.8713 -0.1015  0.4621
   71SAPC   H5Y 6204   4.555   2.277   3.037  1.4741  0.1840 -2.1375
   71SAPC   C36 6205   4.552   2.352   3.242 -0.7157  0.7334 -0.5298
   71SAPC   H6X 6206   4.527   2.248   3.274  2.3056  0.1046  0.0966
   71SAPC   H6Y 6207   4.458   2.410   3.227 -1.2550 -0.4910 -2.2014
   71SAPC   C37 6208   4.655   2.397   3.347 -0.6739  0.0906  1.2836
   71SAPC   H7X 6209   4.679   2.506   3.345  5.1935 -0.8636  0.5611
   71SAPC   H7Y 6210   4.751   2.350   3.317 -0.6380  1.0096 -0.1240
   71SAPC   C38 6211   4.625   2.339   3.483 -0.2746 -0.1101  1.0490
   71SAPC   H8X 6212   4.627   2.228   3.482 -1.0469 -0.1845  2.9009
   71SAPC   H8Y 6213   4.525   2.379   3.514 -0.6637 -0.5301  0.3437
   71SAPC   C39 6214   4.718   2.390   3.586 -1.6038 -0.5758 -0.4555
   71SAPC   H9X 6215   4.708   2.500   3.581 -4.5495 -0.7875 -0.9521
   71SAPC   H9Y 6216   4.821   2.357   3.562 -1.8360 -0.6898 -1.3386
   71SAPC  C310 6217   4.685   2.336   3.728  0.8879 -0.7264  0.0314
   71SAPC  H10X 6218   4.678   2.226   3.718 -0.5287 -0.4816 -2.1354
   71SAPC  H10Y 6219   4.587   2.374   3.764  0.5423 -1.1613 -0.4438
   71SAPC  C311 6220   4.792   2.370   3.831  0.1097 -0.2192  0.2306
   71SAPC  H11X 6221   4.777   2.478   3.850  0.4343 -0.1321 -0.0108
   71SAPC  H11Y 6222   4.891   2.363   3.780  1.2453  2.4280  1.8207
   71SAPC  C312 6223   4.786   2.289   3.968 -0.1186  0.1656  0.1048
   71SAPC  H12X 6224   4.837   2.191   3.962 -0.7195 -0.2479  1.3913
   71SAPC  H12Y 6225   4.679   2.261   3.980 -0.2723  0.5541 -0.3225
   71SAPC  C313 6226   4.832   2.373   4.089 -0.4719  0.1345 -0.7035
   71SAPC  H13X 6227   4.765   2.461   4.100  0.3238  0.6324  0.3037
   71SAPC  H13Y 6228   4.935   2.413   4.078  0.2417 -1.5130 -0.2931
   71SAPC  C314 6229   4.820   2.287   4.217 -0.8471  0.3963  0.1468
   71SAPC  H14X 6230   4.719   2.240   4.220 -1.1326  0.2639 -4.3301
   71SAPC  H14Y 6231   4.851   2.342   4.308 -0.1660  0.7074 -0.2710
   71SAPC  C315 6232   4.910   2.164   4.220  0.9084 -1.1166  0.8907
   71SAPC  H15X 6233   5.013   2.203   4.217  0.2538  0.6638  0.3371
   71SAPC  H15Y 6234   4.895   2.103   4.128  1.8702 -0.0779  0.0213
   71SAPC  C316 6235   4.905   2.078   4.347  0.6951 -0.1755  0.8481
   71SAPC  H16X 6236   4.911   2.141   4.438  1.3407 -2.4652  2.4715
   71SAPC  H16Y 6237   4.998   2.017   4.347 -0.4428 -2.0230 -0.9234
   71SAPC  C317 6238   4.774   1.996   4.355  0.4819  0.7383  0.6752
   71SAPC  H17X 6239   4.791   1.916   4.281  0.0528 -1.4250  2.7793
   71SAPC  H17Y 6240   4.691   2.058   4.315  0.3434 -1.9206 -3.7155
   71SAPC  C318 6241   4.748   1.928   4.489  0.4472 -0.2125  0.8379
   71SAPC  H18X 6242   4.652   1.873   4.487 -0.2066  0.8798 -1.5011
   71SAPC  H18Y 6243   4.741   1.999   4.575 -0.1941 -0.9205  1.3764
   71SAPC  H18Z 6244   4.839   1.867   4.506  1.7712  1.5403  0.4604
   72SAPC     N 6245   4.056   1.896   1.934 -0.3167 -0.4217 -0.0927
   72SAPC   C12 6246   4.132   1.773   1.979 -0.2820 -0.1099  0.7564
   72SAPC  H12A 6247   4.237   1.798   1.971 -0.8215  1.7567 -1.8265
   72SAPC  H12B 6248   4.107   1.690   1.914 -1.3034  0.9570 -0.2761
   72SAPC   C13 6249   3.910   1.861   1.943  1.0986 -0.1953  0.1244
   72SAPC  H13A 6250   3.887   1.799   2.028  0.0285  1.6513  1.2502
   72SAPC  H13B 6251   3.845   1.947   1.952  0.9701 -0.5092  4.4583
   72SAPC  H13C 6252   3.890   1.815   1.848  0.7798  0.4447 -0.1190
   72SAPC   C14 6253   4.101   2.028   2.000 -0.1060  0.4746 -0.4248
   72SAPC  H14A 6254   4.061   2.054   2.097  0.5037  0.3456 -0.1314
   72SAPC  H14B 6255   4.209   2.030   2.003 -0.0947 -0.5613  0.4988
   72SAPC  H14C 6256   4.079   2.114   1.939 -1.4174  0.2635 -0.2777
   72SAPC   C15 6257   4.086   1.920   1.787 -0.0067 -0.1938 -0.4797
   72SAPC  H15A 6258   4.042   1.846   1.721  1.0847 -0.8649 -0.4849
   72SAPC  H15B 6259   4.047   2.016   1.757  2.1802  0.8740 -0.1396
   72SAPC  H15C 6260   4.191   1.931   1.764  0.3519  0.2935  1.2731
   72SAPC   C11 6261   4.095   1.719   2.118 -0.4280  0.1304  0.0369
   72SAPC  H11A 6262   4.108   1.804   2.189  1.6395  2.2365 -2.6439
   72SAPC  H11B 6263   4.173   1.643   2.142  0.8571  1.1040 -0.8952
   72SAPC     P 6264   3.966   1.496   2.105  0.3096 -0.3939  0.5406
   72SAPC   O13 6265   3.830   1.456   2.060 -0.4137 -0.6541 -0.3772
   72SAPC   O14 6266   4.072   1.462   2.003  0.2609  0.4256 -0.3725
   72SAPC   O12 6267   3.965   1.656   2.121  0.0229 -0.2399 -0.0653
   72SAPC   O11 6268   3.994   1.438   2.254 -0.1677 -0.3991  0.3340
   72SAPC    C1 6269   3.919   1.488   2.358 -0.4007 -0.9561 -0.2660
   72SAPC    HA 6270   3.812   1.507   2.334 -0.6582  0.3496  1.6857
   72SAPC    HB 6271   3.907   1.414   2.440 -1.9512 -0.1967  0.2424
   72SAPC    C2 6272   3.975   1.610   2.434 -0.8327  0.3220  0.2834
   72SAPC    HS 6273   3.982   1.691   2.357  1.3218  1.3984  1.5249
   72SAPC   O21 6274   4.097   1.586   2.505  0.3140 -0.1955 -1.0192
   72SAPC   C21 6275   4.183   1.683   2.525 -0.6347 -0.1329  0.2771
   72SAPC   O22 6276   4.173   1.793   2.474 -0.0776 -0.1178 -0.4512
   72SAPC   C22 6277   4.297   1.632   2.621 -0.6310  0.3315  0.0812
   72SAPC   H2R 6278   4.319   1.725   2.678  0.3427 -0.1497  0.5319
   72SAPC   H2S 6279   4.256   1.557   2.693 -0.9707  0.8818  0.4716
   72SAPC    C3 6280   3.876   1.663   2.539 -0.1819  0.3888 -0.1739
   72SAPC    HX 6281   3.774   1.648   2.500 -0.9637  0.5299  1.7128
   72SAPC    HY 6282   3.902   1.771   2.549  0.4298  0.1834  0.5537
   72SAPC   O31 6283   3.877   1.593   2.661  0.1018  0.0628 -0.2819
   72SAPC   C31 6284   3.956   1.624   2.750  0.1382 -0.7901 -0.1631
   72SAPC   O32 6285   4.020   1.731   2.762  0.3865  0.3558 -0.2488
   72SAPC   C32 6286   3.963   1.516   2.857  0.1206  1.0824  0.2269
   72SAPC   H2X 6287   4.059   1.462   2.844 -0.2436  0.4452  0.1285
   72SAPC   H2Y 6288   3.883   1.442   2.832  0.8279  0.9450 -1.7904
   72SAPC   C23 6289   4.433   1.597   2.569 -0.4542  0.8350  0.1696
   72SAPC   H3R 6290   4.483   1.677   2.511 -0.5703 -0.1639 -1.3793
   72SAPC   H3S 6291   4.419   1.512   2.499 -1.6333  0.5364  0.7356
   72SAPC   C24 6292   4.520   1.548   2.688 -0.8340 -0.0425 -0.4599
   72SAPC   H4R 6293   4.519   1.626   2.768 -1.3888 -0.7790  0.2781
   72SAPC   H4S 6294   4.626   1.546   2.654 -1.6580  2.9765 -3.7525
   72SAPC   C25 6295   4.485   1.408   2.742  0.0988  0.0910  0.1925
   72SAPC   H5R 6296   4.495   1.326   2.669  0.6254 -1.0347  1.4889
   72SAPC   C26 6297   4.453   1.382   2.869 -0.4480  0.0753  0.5771
   72SAPC   H6R 6298   4.419   1.280   2.893  1.3107 -0.4506  0.9517
   72SAPC   C27 6299   4.443   1.489   2.980 -0.0375  0.4069 -0.5065
   72SAPC   H7R 6300   4.438   1.594   2.945 -0.5549  0.5614  0.0277
   72SAPC   H7S 6301   4.537   1.483   3.040 -1.2658 -1.5917  1.3891
   72SAPC   C28 6302   4.324   1.466   3.064 -0.2387  0.3088 -0.4187
   72SAPC   H8R 6303   4.251   1.395   3.022 -1.5294  1.2432  0.1749
   72SAPC   C29 6304   4.305   1.515   3.190  0.0120  0.9221 -0.1315
   72SAPC   H9R 6305   4.217   1.491   3.251  1.2804  0.0943  1.4414
   72SAPC  C210 6306   4.403   1.619   3.248  1.1391  0.9502  0.2258
   72SAPC  H10R 6307   4.397   1.706   3.179  1.2760  0.7163 -0.0874
   72SAPC  H10S 6308   4.501   1.569   3.236  0.3402 -1.2057  1.9277
   72SAPC  C211 6309   4.382   1.660   3.387 -0.1740 -0.0991 -0.7380
   72SAPC  H11R 6310   4.443   1.596   3.452  0.8384  0.7261 -0.8465
   72SAPC  C212 6311   4.308   1.762   3.437 -0.2327  0.3405  0.1842
   72SAPC  H12R 6312   4.297   1.789   3.543 -0.4014  0.9919  0.0030
   72SAPC  C213 6313   4.212   1.847   3.349 -0.3559  0.6152  0.2022
   72SAPC  H13R 6314   4.131   1.880   3.417 -0.3399  1.3876 -0.1527
   72SAPC  H13S 6315   4.165   1.796   3.262 -0.0398  0.4061  0.1528
   72SAPC  C214 6316   4.293   1.963   3.303  0.1027  0.0074 -0.1032
   72SAPC  H14R 6317   4.328   2.030   3.382  2.2489  0.0397 -0.9966
   72SAPC  C215 6318   4.328   2.000   3.182 -0.0632  0.5756 -0.2004
   72SAPC  H15R 6319   4.395   2.084   3.158  2.7855 -2.1601 -2.7745
   72SAPC  C216 6320   4.265   1.943   3.054  0.0387  0.3645  0.8339
   72SAPC  H16R 6321   4.171   1.887   3.069  0.7644 -0.7051  1.5032
   72SAPC  H16S 6322   4.335   1.866   3.014  0.6875  0.6144  1.4677
   72SAPC  C217 6323   4.250   2.056   2.956  0.0270 -0.7002 -1.0133
   72SAPC  H17R 6324   4.343   2.116   2.951  0.6583 -0.9331  3.8652
   72SAPC  H17S 6325   4.175   2.128   2.994 -1.0479 -1.0222 -2.4050
   72SAPC  C218 6326   4.202   2.021   2.815 -0.3410  0.0599  0.5964
   72SAPC  H18R 6327   4.100   1.980   2.833 -1.4660  1.9530 -1.0735
   72SAPC  H18S 6328   4.257   1.935   2.771 -0.8300 -0.0784  0.2543
   72SAPC  C219 6329   4.189   2.139   2.718 -1.2103 -0.6550 -0.1876
   72SAPC  H19R 6330   4.140   2.230   2.760 -0.1820 -0.9406  1.7172
   72SAPC  H19S 6331   4.122   2.112   2.633 -0.8308 -0.4349 -0.5589
   72SAPC  C220 6332   4.321   2.170   2.650 -0.6165 -0.9989 -0.2102
   72SAPC  H20R 6333   4.302   2.250   2.575  0.9478 -1.1903 -0.8636
   72SAPC  H20S 6334   4.351   2.081   2.590  1.2798 -1.4179  1.2684
   72SAPC  H20T 6335   4.403   2.194   2.721 -0.3350 -0.7066 -0.6250
   72SAPC   C33 6336   3.944   1.578   2.999 -0.3671 -0.0826  0.2408
   72SAPC   H3X 6337   3.851   1.638   3.002  0.4806  1.2820  3.0772
   72SAPC   H3Y 6338   4.025   1.649   3.027  0.3732 -0.0294 -1.8640
   72SAPC   C34 6339   3.923   1.485   3.121 -0.1146  0.5305  0.8351
   72SAPC   H4X 6340   4.011   1.417   3.130  1.6309  2.3490 -1.2592
   72SAPC   H4Y 6341   3.831   1.428   3.096 -1.3759  2.0676  1.8095
   72SAPC   C35 6342   3.894   1.549   3.264  0.4233  0.8377  0.4399
   72SAPC   H5X 6343   3.844   1.648   3.256  3.9562  2.8293  0.8735
   72SAPC   H5Y 6344   3.990   1.568   3.317  0.7037  0.9577 -0.1046
   72SAPC   C36 6345   3.828   1.448   3.365 -0.2262 -0.4702 -0.7495
   72SAPC   H6X 6346   3.720   1.432   3.344 -0.0857 -1.7944 -0.5553
   72SAPC   H6Y 6347   3.842   1.511   3.456  1.1425  0.0540 -1.2973
   72SAPC   C37 6348   3.902   1.309   3.376 -0.2520  0.0842  0.5988
   72SAPC   H7X 6349   4.009   1.324   3.403 -0.4159  0.8977  0.8410
   72SAPC   H7Y 6350   3.875   1.254   3.284 -0.9429 -0.2240  0.9818
   72SAPC   C38 6351   3.843   1.213   3.488  0.2233 -0.0577  0.3203
   72SAPC   H8X 6352   3.899   1.118   3.493  2.8310  1.3617 -0.3296
   72SAPC   H8Y 6353   3.736   1.193   3.464 -0.2140  0.0456  2.0549
   72SAPC   C39 6354   3.838   1.270   3.628  0.3646 -0.3798 -0.6655
   72SAPC   H9X 6355   3.768   1.355   3.641  1.1398  0.0380  1.1446
   72SAPC   H9Y 6356   3.937   1.313   3.655  1.0099 -1.3386 -1.4679
   72SAPC  C310 6357   3.807   1.171   3.740  0.1530  0.3648  0.6271
   72SAPC  H10X 6358   3.849   1.070   3.716  0.0495 -0.2468  2.7618
   72SAPC  H10Y 6359   3.699   1.156   3.721 -0.0275  1.2225  0.9307
   72SAPC  C311 6360   3.816   1.214   3.882 -0.1550  0.1841  0.1760
   72SAPC  H11X 6361   3.764   1.143   3.951  2.6275 -0.2694  1.9497
   72SAPC  H11Y 6362   3.763   1.309   3.906  0.2957  0.3980  0.3375
   72SAPC  C312 6363   3.964   1.228   3.925 -0.5614 -1.1538  0.4920
   72SAPC  H12X 6364   4.008   1.316   3.874  1.9828 -2.0230  1.0229
   72SAPC  H12Y 6365   4.009   1.137   3.880  1.6596  0.3206 -0.4366
   72SAPC  C313 6366   3.994   1.229   4.073 -0.0871  0.1764  0.0815
   72SAPC  H13X 6367   4.100   1.257   4.091  0.5372 -1.3800 -0.9872
   72SAPC  H13Y 6368   3.984   1.128   4.117 -1.6761  0.3575  0.2193
   72SAPC  C314 6369   3.893   1.304   4.149 -0.4603 -0.3513 -0.1460
   72SAPC  H14X 6370   3.794   1.257   4.134 -0.9901  0.5822  0.3085
   72SAPC  H14Y 6371   3.887   1.409   4.111 -2.8759 -0.0088  1.0100
   72SAPC  C315 6372   3.909   1.317   4.298  0.7657 -0.7975 -0.1900
   72SAPC  H15X 6373   4.004   1.365   4.330  0.1307  0.5006 -0.1581
   72SAPC  H15Y 6374   3.890   1.218   4.344  0.0282  0.1127  1.5455
   72SAPC  C316 6375   3.800   1.407   4.349 -0.2150  0.0119  0.1291
   72SAPC  H16X 6376   3.708   1.348   4.368  0.3863 -0.6695  1.0657
   72SAPC  H16Y 6377   3.780   1.497   4.287  1.7516  0.8195  0.5910
   72SAPC  C317 6378   3.832   1.461   4.481  0.1371  0.0559  0.0387
   72SAPC  H17X 6379   3.749   1.528   4.513 -0.2562 -1.3826  2.2588
   72SAPC  H17Y 6380   3.926   1.521   4.480 -0.5201  1.1018 -0.2872
   72SAPC  C318 6381   3.856   1.358   4.594  0.1122 -0.3380  1.2799
   72SAPC  H18X 6382   3.907   1.264   4.562  0.2976  0.2448 -0.2318
   72SAPC  H18Y 6383   3.758   1.334   4.641 -0.7926  1.9063  0.6698
   72SAPC  H18Z 6384   3.916   1.411   4.671 -1.1993 -1.0029  2.7960
   73SLPC     N 6385   4.356   2.562   7.289 -0.7192  0.1386 -0.3929
   73SLPC   C13 6386   4.474   2.654   7.268 -1.1700 -0.5405 -0.1443
   73SLPC  H13A 6387   4.453   2.759   7.282 -0.4551 -0.4058 -0.0210
   73SLPC  H13B 6388   4.556   2.635   7.336 -1.7893  0.7924  1.0319
   73SLPC  H13C 6389   4.525   2.644   7.173 -0.4507 -0.9628  0.2708
   73SLPC   C14 6390   4.314   2.583   7.429  0.6098 -0.5746 -0.3327
   73SLPC  H14A 6391   4.301   2.688   7.452 -3.0944 -1.1257  0.7233
   73SLPC  H14B 6392   4.232   2.517   7.455  0.6533 -0.6776 -0.4534
   73SLPC  H14C 6393   4.394   2.567   7.499  1.4488 -0.7466 -1.3109
   73SLPC   C15 6394   4.403   2.414   7.275 -0.3930 -0.0465  1.2320
   73SLPC  H15A 6395   4.451   2.404   7.179 -0.8887  1.1040  0.8449
   73SLPC  H15B 6396   4.476   2.373   7.343 -0.1880  0.2626  1.1988
   73SLPC  H15C 6397   4.322   2.342   7.273  0.4100 -0.9607 -0.1374
   73SLPC   C12 6398   4.240   2.593   7.195 -0.5414 -0.1857  0.2714
   73SLPC  H12A 6399   4.209   2.696   7.206  1.5086  0.9542 -3.0994
   73SLPC  H12B 6400   4.162   2.520   7.209  1.7113 -2.5429  1.1776
   73SLPC   C11 6401   4.274   2.571   7.039  0.0816 -0.1746  0.1872
   73SLPC  H11A 6402   4.185   2.575   6.973  0.9913 -1.7026 -1.1977
   73SLPC  H11B 6403   4.299   2.464   7.021 -0.0412  0.2419 -2.9753
   73SLPC     P 6404   4.350   2.791   6.940  0.0090  0.3705  0.0852
   73SLPC   O13 6405   4.251   2.852   7.035 -0.2048 -0.0643 -0.3981
   73SLPC   O14 6406   4.467   2.873   6.897 -0.3173 -0.3391  0.3141
   73SLPC   O12 6407   4.385   2.648   6.987 -0.1804 -0.2096 -0.1574
   73SLPC   O11 6408   4.275   2.753   6.808 -0.5435 -0.6215 -0.8573
   73SLPC    C1 6409   4.320   2.651   6.719 -0.3995  0.1379  0.1836
   73SLPC    HA 6410   4.353   2.556   6.767 -0.4527 -1.0989 -2.0974
   73SLPC    HB 6411   4.252   2.622   6.636  0.5790  1.4316 -1.1133
   73SLPC    C2 6412   4.450   2.693   6.638  0.3298  0.9276  0.4486
   73SLPC    HS 6413   4.533   2.686   6.710  0.2408  0.3889  0.5008
   73SLPC   O21 6414   4.433   2.819   6.592  0.4725  0.2958 -0.6199
   73SLPC   C21 6415   4.541   2.898   6.579  0.3456 -0.0871 -0.4977
   73SLPC   O22 6416   4.649   2.864   6.616  0.1262  0.1407 -0.0378
   73SLPC   C22 6417   4.494   3.021   6.506  0.2930 -0.9666 -0.0973
   73SLPC   H2R 6418   4.388   3.008   6.476 -0.2950  0.5272  1.1945
   73SLPC   H2S 6419   4.493   3.102   6.583 -0.7471 -1.3287  0.2903
   73SLPC    C3 6420   4.483   2.587   6.525 -0.0514  0.5652 -0.5128
   73SLPC    HX 6421   4.403   2.578   6.448 -0.9317  1.1593  0.3088
   73SLPC    HY 6422   4.486   2.487   6.573 -0.1268 -0.4945 -2.5976
   73SLPC   O31 6423   4.602   2.623   6.444  0.3519 -0.0271 -0.2622
   73SLPC   C31 6424   4.717   2.576   6.487  0.2571  0.1735 -0.1299
   73SLPC   O32 6425   4.740   2.519   6.591 -0.7274  0.1316  0.0553
   73SLPC   C32 6426   4.831   2.610   6.386 -0.7539 -0.0749  0.1764
   73SLPC   H2X 6427   4.855   2.718   6.392  0.4746 -0.1932 -1.8098
   73SLPC   H2Y 6428   4.792   2.586   6.284 -0.2898 -0.0388 -0.0103
   73SLPC   C23 6429   4.579   3.084   6.402 -0.1190 -0.6103 -0.1283
   73SLPC   H3R 6430   4.668   3.129   6.450  0.0463  0.7699 -1.6260
   73SLPC   H3S 6431   4.533   3.176   6.361  0.1157 -0.0803  0.7741
   73SLPC   C24 6432   4.623   2.985   6.286  0.0813  0.6089 -0.3049
   73SLPC   H4R 6433   4.538   2.920   6.257  0.6370 -1.2389  1.9207
   73SLPC   H4S 6434   4.699   2.914   6.324  0.3612  0.3664 -1.3096
   73SLPC   C25 6435   4.662   3.079   6.171  0.1160  0.3926  0.4532
   73SLPC   H5R 6436   4.764   3.116   6.192 -0.0413  0.1114  1.8151
   73SLPC   H5S 6437   4.586   3.160   6.165  0.4646  0.7226  0.4611
   73SLPC   C26 6438   4.667   3.013   6.029 -0.9173 -0.2423 -0.7913
   73SLPC   H6R 6439   4.673   3.092   5.950  2.2961  0.9501  0.4841
   73SLPC   H6S 6440   4.571   2.963   6.005 -1.3326  0.3990 -0.4851
   73SLPC   C27 6441   4.790   2.922   5.996 -0.0622 -0.2218 -0.3348
   73SLPC   H7R 6442   4.785   2.833   6.062 -1.0872 -0.2264 -0.4111
   73SLPC   H7S 6443   4.885   2.978   6.012  0.3018 -0.9718  0.1935
   73SLPC   C28 6444   4.796   2.873   5.851  0.2694  0.4612  0.1508
   73SLPC   H8R 6445   4.782   2.949   5.772 -2.6683  0.8535  0.9276
   73SLPC   H8S 6446   4.715   2.797   5.839 -1.3130  1.7623  1.9784
   73SLPC   C29 6447   4.928   2.806   5.826 -0.4038 -0.2625 -0.7081
   73SLPC   H9R 6448   4.979   2.770   5.916 -0.3641  1.3319 -0.0642
   73SLPC  C210 6449   4.981   2.774   5.710  0.2978  0.3757  0.4251
   73SLPC  H10R 6450   5.078   2.722   5.714 -0.6296 -1.5020 -0.4475
   73SLPC  C211 6451   4.921   2.800   5.573 -0.2399  0.2516  0.1148
   73SLPC  H11R 6452   4.958   2.897   5.533 -0.2721  0.6060  0.9264
   73SLPC  H11S 6453   4.812   2.814   5.592 -0.5663 -3.6365  2.2204
   73SLPC  C212 6454   4.943   2.683   5.477  0.5168 -0.5804 -0.2549
   73SLPC  H12R 6455   4.951   2.586   5.527  0.1230 -2.8823 -4.2664
   73SLPC  C213 6456   4.952   2.685   5.341  0.2548 -0.2806 -0.3725
   73SLPC  H13R 6457   4.972   2.591   5.287  3.4325  0.6043 -0.9627
   73SLPC  C214 6458   4.937   2.807   5.250 -0.4207  0.3006  0.0362
   73SLPC  H14R 6459   5.037   2.849   5.227 -1.0384  2.5381  1.1182
   73SLPC  H14S 6460   4.879   2.882   5.307 -1.0266 -0.6893  0.7406
   73SLPC  C215 6461   4.859   2.761   5.116 -0.5564 -0.4170  0.5411
   73SLPC  H15R 6462   4.760   2.720   5.145 -0.8953  0.0884  0.1091
   73SLPC  H15S 6463   4.925   2.684   5.072  1.8029  1.5696  0.4221
   73SLPC  C216 6464   4.852   2.878   5.021  0.2354 -0.8200 -0.4308
   73SLPC  H16R 6465   4.953   2.922   5.012 -1.3068  3.3451 -0.0179
   73SLPC  H16S 6466   4.780   2.947   5.070 -0.7608 -1.7729 -0.5122
   73SLPC  C217 6467   4.804   2.827   4.884  0.1022 -0.1901 -0.5286
   73SLPC  H17R 6468   4.696   2.803   4.884  0.2365 -1.5269 -4.6565
   73SLPC  H17S 6469   4.850   2.726   4.870  0.3684 -0.2594  0.6921
   73SLPC  C218 6470   4.839   2.924   4.771  1.0089  0.0101  0.5503
   73SLPC  H18R 6471   4.813   2.884   4.671  1.0177 -0.4409  0.7243
   73SLPC  H18S 6472   4.946   2.951   4.760  1.8349 -2.9869  0.3167
   73SLPC  H18T 6473   4.783   3.021   4.769  1.9895  0.5702 -1.2489
   73SLPC   C33 6474   4.958   2.518   6.408  0.8964 -0.9217  0.2060
   73SLPC   H3X 6475   4.914   2.418   6.427 -1.2193 -0.2578 -0.9389
   73SLPC   H3Y 6476   5.001   2.550   6.506  2.0956 -2.0538  0.0842
   73SLPC   C34 6477   5.063   2.518   6.297 -0.4220  0.4632 -0.3774
   73SLPC   H4X 6478   5.132   2.451   6.353 -0.9868  1.3368  1.4403
   73SLPC   H4Y 6479   5.105   2.618   6.277 -2.1537  1.4557  0.7094
   73SLPC   C35 6480   5.016   2.475   6.153 -0.4245 -0.3565 -0.7558
   73SLPC   H5X 6481   4.978   2.569   6.106  0.4711  0.1536 -0.4768
   73SLPC   H5Y 6482   4.928   2.407   6.154 -2.5044  2.1663 -0.5004
   73SLPC   C36 6483   5.123   2.431   6.052 -0.1033 -0.3221 -0.3186
   73SLPC   H6X 6484   5.178   2.344   6.092  1.2631  0.5780 -0.1759
   73SLPC   H6Y 6485   5.189   2.519   6.065 -1.7841  0.8510  0.8128
   73SLPC   C37 6486   5.075   2.414   5.907  0.2531 -0.4083  0.5842
   73SLPC   H7X 6487   5.028   2.510   5.878 -0.2692 -1.2510 -1.5603
   73SLPC   H7Y 6488   4.990   2.343   5.914  0.6378 -0.7507  2.3515
   73SLPC   C38 6489   5.184   2.386   5.806  0.6756 -0.4205  0.0994
   73SLPC   H8X 6490   5.235   2.296   5.846 -1.1973 -1.0409  1.1937
   73SLPC   H8Y 6491   5.248   2.477   5.808 -1.6424  1.4354 -2.2290
   73SLPC   C39 6492   5.138   2.357   5.663 -0.2318  0.6542 -0.3150
   73SLPC   H9X 6493   5.054   2.427   5.647 -2.4144 -1.6962  0.2394
   73SLPC   H9Y 6494   5.085   2.260   5.665  0.0646  0.4940 -0.0018
   73SLPC  C310 6495   5.245   2.375   5.549 -0.1105  0.5728 -0.4620
   73SLPC  H10X 6496   5.320   2.295   5.569 -1.9953 -0.4563  3.5483
   73SLPC  H10Y 6497   5.302   2.467   5.573  0.4968  0.2977 -0.8167
   73SLPC  C311 6498   5.192   2.359   5.409 -0.5181 -0.2707 -0.3160
   73SLPC  H11X 6499   5.128   2.447   5.387  0.4514  1.1521  2.1261
   73SLPC  H11Y 6500   5.124   2.272   5.415  2.4165 -2.6468  1.3987
   73SLPC  C312 6501   5.299   2.349   5.301 -0.0493  0.2041 -0.0477
   73SLPC  H12X 6502   5.367   2.264   5.322 -0.5518 -0.0285  0.6832
   73SLPC  H12Y 6503   5.352   2.447   5.305 -0.3348  0.3376  2.4740
   73SLPC  C313 6504   5.241   2.325   5.160  0.1259  0.2695  0.6008
   73SLPC  H13X 6505   5.332   2.344   5.099 -0.3411  2.0524  0.4061
   73SLPC  H13Y 6506   5.163   2.397   5.128  0.3454 -0.4511 -1.7698
   73SLPC  C314 6507   5.185   2.183   5.141 -0.0401 -0.3954  0.0575
   73SLPC  H14X 6508   5.097   2.174   5.208  1.5858 -1.3680  2.1783
   73SLPC  H14Y 6509   5.249   2.101   5.180 -1.2572 -2.0182 -1.2409
   73SLPC  C315 6510   5.155   2.157   4.987 -0.5448  0.0905  0.5701
   73SLPC  H15X 6511   5.219   2.223   4.925 -0.1915 -0.8254 -0.0521
   73SLPC  H15Y 6512   5.053   2.195   4.964 -0.2206  1.5601  1.4158
   73SLPC  C316 6513   5.158   2.015   4.936 -0.0622  0.9188 -0.1662
   73SLPC  H16X 6514   5.101   1.968   5.019 -0.9860 -0.0537 -1.3221
   73SLPC  H16Y 6515   5.257   1.965   4.923 -0.5328 -0.2012  0.4084
   73SLPC  C317 6516   5.089   1.985   4.809 -0.2323  0.3462  0.0698
   73SLPC  H17X 6517   5.136   2.037   4.722  0.8434  0.8538  0.9400
   73SLPC  H17Y 6518   4.986   2.026   4.797 -0.0688  0.2327 -2.3227
   73SLPC  C318 6519   5.094   1.834   4.774  0.0784 -0.1369 -0.7541
   73SLPC  H18X 6520   5.057   1.787   4.868  2.8041  2.4361  1.8169
   73SLPC  H18Y 6521   5.199   1.800   4.764 -0.0954 -1.3463  1.0040
   73SLPC  H18Z 6522   5.041   1.816   4.677  0.8515  2.4702 -1.7243
   74SLPC     N 6523   3.086   1.885   6.895 -0.1744  0.1646  0.3389
   74SLPC   C13 6524   3.185   1.992   6.894 -0.1030  0.1930 -0.6129
   74SLPC  H13A 6525   3.130   2.085   6.893  0.0435  0.2806 -0.6525
   74SLPC  H13B 6526   3.248   1.995   6.983  0.9497  1.4726 -1.3533
   74SLPC  H13C 6527   3.260   1.991   6.817  2.1427  2.0825  1.3534
   74SLPC   C14 6528   2.986   1.897   7.009  0.4960  0.8724 -0.5178
   74SLPC  H14A 6529   2.897   1.837   7.003  1.0685  0.1312 -4.6112
   74SLPC  H14B 6530   3.031   1.861   7.100 -0.1164  1.0687 -0.1343
   74SLPC  H14C 6531   2.958   2.001   7.014  0.0693  0.7247  0.2601
   74SLPC   C15 6532   3.150   1.746   6.916 -0.1928 -0.1640  1.1225
   74SLPC  H15A 6533   3.081   1.663   6.913  0.2733 -0.5239 -0.3847
   74SLPC  H15B 6534   3.219   1.728   6.835  0.9010  2.5317  1.3586
   74SLPC  H15C 6535   3.202   1.744   7.010 -1.3401  2.8693  1.9689
   74SLPC   C12 6536   3.010   1.884   6.762 -0.9562 -0.1206 -0.0478
   74SLPC  H12A 6537   3.079   1.889   6.678 -0.7957 -2.9625 -0.1706
   74SLPC  H12B 6538   2.948   1.972   6.766  0.3704  0.9405 -1.3358
   74SLPC   C11 6539   2.926   1.760   6.731  0.2066  0.2568 -0.1682
   74SLPC  H11A 6540   2.981   1.663   6.734 -1.0767 -0.4732  1.6912
   74SLPC  H11B 6541   2.886   1.771   6.628 -0.5949  1.3538  0.2463
   74SLPC     P 6542   2.684   1.834   6.793 -0.3871 -0.0239 -0.4449
   74SLPC   O13 6543   2.613   1.769   6.677  0.5039  0.5430 -0.8923
   74SLPC   O14 6544   2.610   1.861   6.920 -0.1836 -0.0884  0.0359
   74SLPC   O12 6545   2.815   1.742   6.821 -0.3568  0.2432 -0.1845
   74SLPC   O11 6546   2.751   1.972   6.739  0.0248  1.0564 -0.3105
   74SLPC    C1 6547   2.664   2.073   6.681 -0.0653 -0.1187  0.1325
   74SLPC    HA 6548   2.557   2.053   6.699  0.2415  1.3416  4.8860
   74SLPC    HB 6549   2.676   2.169   6.735  0.7652 -0.5380  0.7160
   74SLPC    C2 6550   2.708   2.114   6.537  0.0345 -0.0514  0.2847
   74SLPC    HS 6551   2.629   2.179   6.493  0.2364 -0.9731 -1.5137
   74SLPC   O21 6552   2.726   2.005   6.437  0.5887 -0.5910 -0.3726
   74SLPC   C21 6553   2.613   1.937   6.389 -0.5352 -0.3734 -0.3459
   74SLPC   O22 6554   2.500   1.979   6.412  0.2689  0.4742 -0.0211
   74SLPC   C22 6555   2.644   1.818   6.308  0.5356 -0.4297  0.3355
   74SLPC   H2R 6556   2.727   1.770   6.364 -0.7422  0.5883  3.3288
   74SLPC   H2S 6557   2.558   1.747   6.314  0.7864 -0.6936  0.8952
   74SLPC    C3 6558   2.836   2.196   6.540 -0.2996 -0.4754  0.6740
   74SLPC    HX 6559   2.924   2.131   6.562 -1.2940 -1.6036  1.4734
   74SLPC    HY 6560   2.831   2.270   6.623 -0.7776  1.6018 -1.1500
   74SLPC   O31 6561   2.854   2.272   6.419 -0.0296  0.1810  0.4731
   74SLPC   C31 6562   2.960   2.232   6.343  0.2222 -0.1436 -0.6437
   74SLPC   O32 6563   3.043   2.153   6.378 -0.3199 -0.1565 -0.4075
   74SLPC   C32 6564   2.961   2.300   6.205 -0.2176  0.4999 -0.6771
   74SLPC   H2X 6565   3.051   2.365   6.210 -0.0104  0.3290 -1.9724
   74SLPC   H2Y 6566   2.875   2.371   6.199 -0.6136  0.2964  1.6210
   74SLPC   C23 6567   2.690   1.843   6.162  0.0550 -0.2948  0.0868
   74SLPC   H3R 6568   2.741   1.755   6.118  2.1871  1.0812 -0.3795
   74SLPC   H3S 6569   2.761   1.929   6.165  0.7519 -0.8547 -0.2141
   74SLPC   C24 6570   2.585   1.898   6.073  0.2192  0.2041  0.8390
   74SLPC   H4R 6571   2.519   1.975   6.118 -2.5461 -0.9577 -0.9638
   74SLPC   H4S 6572   2.520   1.812   6.046  1.2579  0.1496 -1.7040
   74SLPC   C25 6573   2.639   1.944   5.930  0.5036 -0.7978  0.2114
   74SLPC   H5R 6574   2.744   1.920   5.904  0.7176  0.0175  0.2993
   74SLPC   H5S 6575   2.633   2.055   5.929 -1.0459 -0.8652 -0.7428
   74SLPC   C26 6576   2.550   1.907   5.812  0.6839 -0.0652 -0.1087
   74SLPC   H6R 6577   2.455   1.958   5.838 -0.3845 -1.6338 -0.7718
   74SLPC   H6S 6578   2.531   1.797   5.814  1.8134 -0.3764 -2.7082
   74SLPC   C27 6579   2.610   1.942   5.678  0.0525  0.0898  0.7342
   74SLPC   H7R 6580   2.705   1.886   5.660  0.9437  1.5784  0.6831
   74SLPC   H7S 6581   2.644   2.047   5.671 -1.9872  0.8305  1.1283
   74SLPC   C28 6582   2.507   1.934   5.561  0.1510  0.3927  0.3417
   74SLPC   H8R 6583   2.543   2.004   5.482 -0.6477 -1.0865 -1.4158
   74SLPC   H8S 6584   2.409   1.961   5.606  0.2860  2.3131 -0.4055
   74SLPC   C29 6585   2.497   1.794   5.506 -0.0700 -0.8373  0.3957
   74SLPC   H9R 6586   2.508   1.717   5.584  3.1911 -0.4919  0.4353
   74SLPC  C210 6587   2.461   1.773   5.379 -0.2073 -0.3238  0.4135
   74SLPC  H10R 6588   2.463   1.666   5.350  2.2853 -0.4021  0.6828
   74SLPC  C211 6589   2.425   1.874   5.270  0.2811 -0.2584 -0.6848
   74SLPC  H11R 6590   2.412   1.972   5.321 -1.1937 -0.0874 -1.3320
   74SLPC  H11S 6591   2.329   1.846   5.221 -0.3578 -2.4303  1.5941
   74SLPC  C212 6592   2.523   1.894   5.162 -0.2975  0.0865 -0.1264
   74SLPC  H12R 6593   2.623   1.856   5.189 -0.3835 -1.8220 -2.1443
   74SLPC  C213 6594   2.508   1.941   5.035  0.0466 -0.7519 -0.3848
   74SLPC  H13R 6595   2.601   1.947   4.978  0.4534 -0.5114  0.2909
   74SLPC  C214 6596   2.379   1.995   4.970  0.0614  0.6226 -0.1784
   74SLPC  H14R 6597   2.411   2.094   4.932 -0.8345  0.8322 -0.4102
   74SLPC  H14S 6598   2.300   2.005   5.048 -1.0636 -0.1353 -1.1813
   74SLPC  C215 6599   2.311   1.920   4.847 -0.0391 -0.5587 -0.4477
   74SLPC  H15R 6600   2.202   1.944   4.843  0.0257  0.1352  1.3288
   74SLPC  H15S 6601   2.327   1.814   4.875  2.9088  0.5690  2.9471
   74SLPC  C216 6602   2.367   1.953   4.709 -0.3643  1.0100  0.1499
   74SLPC  H16R 6603   2.472   1.919   4.719 -0.5386 -0.2273 -1.7172
   74SLPC  H16S 6604   2.361   2.060   4.680  0.6541  0.4682 -2.3860
   74SLPC  C217 6605   2.274   1.882   4.601  0.0862 -0.3531 -0.4037
   74SLPC  H17R 6606   2.180   1.940   4.598  0.9676  1.3984  2.0396
   74SLPC  H17S 6607   2.256   1.776   4.627 -1.3873 -0.1377 -0.4588
   74SLPC  C218 6608   2.333   1.894   4.460 -0.2954  0.3566 -0.0005
   74SLPC  H18R 6609   2.370   1.997   4.444  0.7398  0.0270  0.2347
   74SLPC  H18S 6610   2.251   1.862   4.391 -0.6589  2.0978 -0.4211
   74SLPC  H18T 6611   2.419   1.824   4.451  1.8390  2.7409  0.7338
   74SLPC   C33 6612   2.972   2.204   6.083  0.6676 -0.3281 -0.1379
   74SLPC   H3X 6613   2.895   2.125   6.091  1.2712 -1.0220 -1.0333
   74SLPC   H3Y 6614   3.071   2.155   6.075  1.5702  1.4838 -0.8140
   74SLPC   C34 6615   2.960   2.271   5.950  0.0241  0.6144  0.4193
   74SLPC   H4X 6616   3.046   2.339   5.935 -0.0217  0.9120  1.4274
   74SLPC   H4Y 6617   2.867   2.331   5.943 -2.2687 -2.6821 -0.0150
   74SLPC   C35 6618   2.939   2.167   5.840  0.5913 -0.0528  0.9008
   74SLPC   H5X 6619   2.851   2.109   5.874 -1.0004  1.9652  0.4070
   74SLPC   H5Y 6620   3.026   2.099   5.833  0.5526  0.0196 -0.4497
   74SLPC   C36 6621   2.908   2.237   5.707 -0.4311 -0.7441  0.6744
   74SLPC   H6X 6622   2.989   2.308   5.678 -1.4170 -0.4549 -1.5790
   74SLPC   H6Y 6623   2.815   2.294   5.726 -0.9144 -1.8881  1.9084
   74SLPC   C37 6624   2.909   2.142   5.593 -0.7494 -0.0676 -0.4617
   74SLPC   H7X 6625   2.852   2.047   5.602  1.4740 -1.9405 -3.8270
   74SLPC   H7Y 6626   3.012   2.101   5.593 -1.0694 -1.0234  1.7254
   74SLPC   C38 6627   2.878   2.209   5.457  0.2287 -0.4986 -0.5579
   74SLPC   H8X 6628   2.933   2.305   5.447 -2.1958  0.7355 -3.8325
   74SLPC   H8Y 6629   2.773   2.246   5.455  1.1444  2.3600 -1.5874
   74SLPC   C39 6630   2.897   2.122   5.333  1.0723  0.7003  0.0575
   74SLPC   H9X 6631   2.810   2.053   5.327  0.7354  1.2038 -1.1737
   74SLPC   H9Y 6632   2.985   2.055   5.347  1.1880  0.4645 -1.6292
   74SLPC  C310 6633   2.897   2.205   5.207 -0.0308  0.1107 -0.6091
   74SLPC  H10X 6634   2.991   2.262   5.190  1.6643 -2.4694 -0.4441
   74SLPC  H10Y 6635   2.808   2.270   5.219  1.2813  2.2194 -1.5351
   74SLPC  C311 6636   2.881   2.124   5.076  0.2348 -0.1817  0.3134
   74SLPC  H11X 6637   2.779   2.083   5.060  0.3930 -0.9107  1.1352
   74SLPC  H11Y 6638   2.948   2.036   5.086 -1.4645 -1.6440 -0.7387
   74SLPC  C312 6639   2.916   2.207   4.953 -0.2381 -0.0992  0.3400
   74SLPC  H12X 6640   3.013   2.260   4.966  0.4168 -1.3852  0.9054
   74SLPC  H12Y 6641   2.854   2.299   4.955  1.3373  0.9999  0.6085
   74SLPC  C313 6642   2.908   2.134   4.813  0.1701  0.6757 -0.2846
   74SLPC  H13X 6643   2.805   2.093   4.813 -0.7078  2.7573 -0.0855
   74SLPC  H13Y 6644   2.984   2.053   4.805 -1.5294 -1.1576  1.0204
   74SLPC  C314 6645   2.932   2.237   4.696 -0.1354 -0.5999  0.5240
   74SLPC  H14X 6646   3.035   2.276   4.703 -0.6403  1.3140 -1.6750
   74SLPC  H14Y 6647   2.857   2.319   4.702  0.5444  0.0429  0.3384
   74SLPC  C315 6648   2.914   2.170   4.558  0.6923  0.2592 -1.0534
   74SLPC  H15X 6649   2.810   2.131   4.561  1.0850 -0.7595  0.6527
   74SLPC  H15Y 6650   2.982   2.082   4.555  0.1726 -0.3939  2.3324
   74SLPC  C316 6651   2.934   2.254   4.427  0.5891 -0.2098 -0.5964
   74SLPC  H16X 6652   3.031   2.307   4.440  1.2535 -1.6701  0.6509
   74SLPC  H16Y 6653   2.850   2.326   4.414  0.8484 -0.0436 -1.4375
   74SLPC  C317 6654   2.905   2.172   4.296  0.0849  0.2115  0.0944
   74SLPC  H17X 6655   2.845   2.233   4.226  0.7791 -0.7702 -1.4148
   74SLPC  H17Y 6656   2.849   2.078   4.318  0.5885 -0.2214 -0.4162
   74SLPC  C318 6657   3.033   2.116   4.229  0.5632 -0.8505  0.6064
   74SLPC  H18X 6658   3.091   2.059   4.305  2.1243 -0.7373 -0.4602
   74SLPC  H18Y 6659   3.090   2.202   4.190 -1.1790  0.5489  0.9956
   74SLPC  H18Z 6660   3.018   2.049   4.142  0.0941  1.2030 -0.9643
   75SLPC     N 6661   6.013   2.588   7.057  0.4387 -0.8374  0.3374
   75SLPC   C13 6662   6.099   2.476   7.006 -0.5345 -0.3739  0.5643
   75SLPC  H13A 6663   6.059   2.440   6.912  0.4784 -1.7202  0.6195
   75SLPC  H13B 6664   6.204   2.497   6.998 -0.5073 -0.6961  0.0202
   75SLPC  H13C 6665   6.095   2.395   7.077  2.5785 -1.1167  0.0267
   75SLPC   C14 6666   6.070   2.663   7.169 -0.1774  0.1109 -0.2483
   75SLPC  H14A 6667   6.064   2.598   7.255  0.9316  0.8638  0.4327
   75SLPC  H14B 6668   6.177   2.667   7.151 -0.1074  0.4844  0.2267
   75SLPC  H14C 6669   6.018   2.758   7.177  1.9656  1.2757  0.7931
   75SLPC   C15 6670   5.889   2.535   7.107  1.2691 -0.3127 -0.1193
   75SLPC  H15A 6671   5.833   2.467   7.043 -3.9239  1.6642  1.7520
   75SLPC  H15B 6672   5.901   2.481   7.200 -0.3504 -0.3018  0.1325
   75SLPC  H15C 6673   5.816   2.608   7.139  2.1337  0.2830  0.5093
   75SLPC   C12 6674   5.987   2.688   6.942  0.1205 -0.4350  1.1785
   75SLPC  H12A 6675   6.078   2.740   6.916  0.9074 -0.9404  2.7783
   75SLPC  H12B 6676   5.919   2.758   6.986  0.2080 -1.5087  3.1559
   75SLPC   C11 6677   5.927   2.637   6.805  0.0674  0.7402 -0.6648
   75SLPC  H11A 6678   5.906   2.722   6.737  0.4665  0.4632 -1.1423
   75SLPC  H11B 6679   5.824   2.594   6.814 -0.5422  1.7213 -2.3560
   75SLPC     P 6680   6.139   2.596   6.666 -0.0330  0.0344  0.2206
   75SLPC   O13 6681   6.207   2.700   6.743 -0.3785  0.1016  0.3024
   75SLPC   O14 6682   6.221   2.479   6.629  0.5668 -0.5692 -0.8054
   75SLPC   O12 6683   6.012   2.539   6.742 -0.2614 -0.4975  0.3557
   75SLPC   O11 6684   6.086   2.666   6.526  0.4134  0.0737 -0.4226
   75SLPC    C1 6685   5.956   2.620   6.480 -0.5570 -0.5198 -0.2373
   75SLPC    HA 6686   5.965   2.510   6.480  1.7386 -0.4955  3.0661
   75SLPC    HB 6687   5.873   2.644   6.550 -1.8481  0.4144 -2.0211
   75SLPC    C2 6688   5.917   2.683   6.343 -0.3085  0.5009 -0.2377
   75SLPC    HS 6689   5.809   2.662   6.328 -0.6677  0.5922  1.8778
   75SLPC   O21 6690   6.015   2.646   6.245  0.5049 -0.1136 -0.2214
   75SLPC   C21 6691   5.998   2.523   6.195  0.2380 -0.4958  0.3683
   75SLPC   O22 6692   5.903   2.449   6.218  0.1675 -1.3415 -0.3295
   75SLPC   C22 6693   6.104   2.507   6.078  0.3024 -0.6054 -0.6750
   75SLPC   H2R 6694   6.109   2.605   6.026 -0.6286  0.4788  1.1965
   75SLPC   H2S 6695   6.199   2.486   6.131  0.4551  2.0562  0.2195
   75SLPC    C3 6696   5.914   2.842   6.356 -0.5357  0.4106  0.1545
   75SLPC    HX 6697   6.014   2.865   6.400 -0.3038 -0.2109 -0.0385
   75SLPC    HY 6698   5.836   2.880   6.426 -1.0410  0.0729 -0.2203
   75SLPC   O31 6699   5.896   2.915   6.231 -0.3706 -0.4843  0.7907
   75SLPC   C31 6700   5.778   2.906   6.177 -0.1751  0.8180 -0.1455
   75SLPC   O32 6701   5.683   2.844   6.225 -0.0222 -0.1874 -0.0215
   75SLPC   C32 6702   5.789   2.977   6.042 -0.7714  0.1223 -0.1742
   75SLPC   H2X 6703   5.871   3.049   6.064 -0.3555 -0.3900  0.0001
   75SLPC   H2Y 6704   5.696   3.036   6.032 -0.8131  0.6125  2.2904
   75SLPC   C23 6705   6.057   2.404   5.982  0.6178  0.3441  0.4917
   75SLPC   H3R 6706   5.961   2.424   5.931 -0.3183 -0.3568  1.9201
   75SLPC   H3S 6707   6.024   2.310   6.032  1.5128 -0.9262 -1.2141
   75SLPC   C24 6708   6.166   2.373   5.881 -0.3667  0.3886 -0.0199
   75SLPC   H4R 6709   6.254   2.337   5.939 -0.0279  1.2644  0.0233
   75SLPC   H4S 6710   6.187   2.472   5.836 -1.0728  0.7251  0.3655
   75SLPC   C25 6711   6.125   2.278   5.771  0.1717 -0.4904  0.5767
   75SLPC   H5R 6712   6.025   2.311   5.734  0.4348 -0.6469 -0.3184
   75SLPC   H5S 6713   6.118   2.178   5.820  1.1790 -0.9245 -0.1116
   75SLPC   C26 6714   6.231   2.268   5.662  0.6566  0.3295  0.1841
   75SLPC   H6R 6715   6.329   2.237   5.705  1.3307  0.2874 -1.3229
   75SLPC   H6S 6716   6.242   2.368   5.615 -0.5131  0.5690  0.3964
   75SLPC   C27 6717   6.209   2.169   5.546 -0.8826 -0.0647  0.4983
   75SLPC   H7R 6718   6.110   2.171   5.495 -0.1650 -1.3904 -0.9954
   75SLPC   H7S 6719   6.220   2.062   5.576 -1.4995 -1.0784 -2.5175
   75SLPC   C28 6720   6.295   2.202   5.422 -0.0540 -0.2603 -0.3955
   75SLPC   H8R 6721   6.283   2.108   5.364  0.3193 -0.0240 -0.8576
   75SLPC   H8S 6722   6.402   2.203   5.451  0.6281 -4.0802 -2.0976
   75SLPC   C29 6723   6.240   2.318   5.344  0.5145 -0.2532  0.5398
   75SLPC   H9R 6724   6.215   2.412   5.396  0.9379  0.6946 -0.9069
   75SLPC  C210 6725   6.216   2.317   5.210  0.4697  0.0192  0.3304
   75SLPC  H10R 6726   6.190   2.414   5.164 -0.7713  1.0776  3.0380
   75SLPC  C211 6727   6.234   2.203   5.113 -0.7684 -0.3657 -0.0734
   75SLPC  H11R 6728   6.303   2.124   5.150  0.8010  1.7339  1.7102
   75SLPC  H11S 6729   6.277   2.247   5.020 -0.0420 -3.0560 -1.1245
   75SLPC  C212 6730   6.103   2.142   5.068 -0.3352 -0.3875  0.0101
   75SLPC  H12R 6731   6.070   2.057   5.131 -3.5390  0.1146 -0.7942
   75SLPC  C213 6732   6.014   2.181   4.971  0.1920 -0.1188 -0.3105
   75SLPC  H13R 6733   5.930   2.113   4.951  0.7089 -1.1221  0.8170
   75SLPC  C214 6734   6.036   2.295   4.874  0.5042 -0.8160 -0.2886
   75SLPC  H14R 6735   6.119   2.354   4.918  1.3294 -1.7669 -0.5381
   75SLPC  H14S 6736   5.947   2.362   4.870  0.6102 -0.5667  1.2243
   75SLPC  C215 6737   6.064   2.252   4.731  0.2147 -0.1477  0.3343
   75SLPC  H15R 6738   6.072   2.344   4.669 -1.1581 -0.7184 -0.7455
   75SLPC  H15S 6739   5.982   2.188   4.693  1.1900  0.0682 -2.3928
   75SLPC  C216 6740   6.191   2.162   4.731 -0.4744  0.5478 -0.8940
   75SLPC  H16R 6741   6.180   2.081   4.806 -0.4099  0.8740 -0.5225
   75SLPC  H16S 6742   6.274   2.225   4.769 -0.1851  1.7483 -3.3372
   75SLPC  C217 6743   6.210   2.108   4.591 -0.0143 -0.0323 -0.5733
   75SLPC  H17R 6744   6.127   2.049   4.546 -1.0444 -0.6552  1.9611
   75SLPC  H17S 6745   6.299   2.041   4.592 -0.5954 -0.8388  0.5893
   75SLPC  C218 6746   6.240   2.231   4.506 -1.0677 -0.4061  0.3492
   75SLPC  H18R 6747   6.321   2.209   4.433 -1.8054  0.1717 -0.6691
   75SLPC  H18S 6748   6.271   2.323   4.561 -0.6792 -1.7385  2.4718
   75SLPC  H18T 6749   6.145   2.252   4.452  0.5032  0.6126 -2.2138
   75SLPC   C33 6750   5.806   2.887   5.922 -0.4292 -0.7628 -0.3913
   75SLPC   H3X 6751   5.709   2.840   5.892  0.2080  0.3192 -4.8923
   75SLPC   H3Y 6752   5.886   2.811   5.937  0.4544  0.0306 -1.0125
   75SLPC   C34 6753   5.863   2.975   5.804 -0.1740  0.2634  0.2618
   75SLPC   H4X 6754   5.909   2.911   5.726 -1.2715  1.4758 -1.4654
   75SLPC   H4Y 6755   5.947   3.028   5.853 -0.3851  0.0978  0.8174
   75SLPC   C35 6756   5.765   3.079   5.745  0.3882 -0.5891 -0.5333
   75SLPC   H5X 6757   5.774   3.149   5.831  0.0000 -1.2318  0.0424
   75SLPC   H5Y 6758   5.660   3.045   5.755  0.4057 -0.5287 -0.0840
   75SLPC   C36 6759   5.798   3.134   5.602 -0.3327  0.5523 -0.2523
   75SLPC   H6X 6760   5.908   3.131   5.586 -0.5498  0.2345 -1.8718
   75SLPC   H6Y 6761   5.756   3.237   5.602 -0.3515  0.5973  2.2328
   75SLPC   C37 6762   5.738   3.056   5.481 -0.2111  0.9104 -0.6961
   75SLPC   H7X 6763   5.637   3.019   5.508  0.5702 -0.1031  0.9731
   75SLPC   H7Y 6764   5.801   2.965   5.470  2.2297  2.3254  0.8079
   75SLPC   C38 6765   5.746   3.133   5.349  0.4070 -0.1621  0.1689
   75SLPC   H8X 6766   5.852   3.162   5.337  0.7013 -0.9125  0.8699
   75SLPC   H8Y 6767   5.692   3.229   5.366  3.1106  1.3621  0.6283
   75SLPC   C39 6768   5.690   3.049   5.233  0.0331 -0.3496  0.1749
   75SLPC   H9X 6769   5.583   3.018   5.242 -0.3992  1.2693  0.8257
   75SLPC   H9Y 6770   5.746   2.953   5.232  1.1566  0.2494 -1.9001
   75SLPC  C310 6771   5.704   3.128   5.103 -0.0867 -0.1639  0.2810
   75SLPC  H10X 6772   5.813   3.140   5.082  0.5887 -1.4568  2.6743
   75SLPC  H10Y 6773   5.640   3.217   5.124 -1.6026 -1.2816  0.5587
   75SLPC  C311 6774   5.642   3.047   4.989 -0.2019 -0.4737  0.5109
   75SLPC  H11X 6775   5.533   3.059   5.003 -0.0757  0.8762  0.5107
   75SLPC  H11Y 6776   5.680   2.944   5.003  0.6064 -0.6486 -2.3382
   75SLPC  C312 6777   5.690   3.099   4.859  0.4724  0.7527  0.5784
   75SLPC  H12X 6778   5.707   3.013   4.790 -0.6734  0.8697  0.1198
   75SLPC  H12Y 6779   5.787   3.152   4.864  0.1486  1.2661  2.0817
   75SLPC  C313 6780   5.587   3.185   4.784 -0.4740 -0.0772  0.5119
   75SLPC  H13X 6781   5.589   3.287   4.830 -0.3194 -0.6535  1.8390
   75SLPC  H13Y 6782   5.487   3.140   4.800  0.3028 -2.3162 -0.6056
   75SLPC  C314 6783   5.611   3.181   4.631  0.8241 -0.0154  0.1137
   75SLPC  H14X 6784   5.542   3.253   4.582  1.4488  0.5267  0.0100
   75SLPC  H14Y 6785   5.585   3.080   4.591  0.8308 -0.8655  2.1323
   75SLPC  C315 6786   5.751   3.224   4.592 -0.2453  0.4482 -0.2318
   75SLPC  H15X 6787   5.835   3.188   4.654 -0.0035  2.4151  0.6494
   75SLPC  H15Y 6788   5.774   3.332   4.595 -0.1771  0.4595 -0.9120
   75SLPC  C316 6789   5.768   3.174   4.456 -0.2123  0.5903  0.0742
   75SLPC  H16X 6790   5.681   3.194   4.389 -1.4219 -0.7134  1.1936
   75SLPC  H16Y 6791   5.785   3.064   4.450  1.3925  0.8487 -0.6263
   75SLPC  C317 6792   5.898   3.237   4.395 -0.1764 -0.0355 -0.1629
   75SLPC  H17X 6793   5.991   3.219   4.453  1.8731 -0.1679 -3.2669
   75SLPC  H17Y 6794   5.878   3.346   4.394  0.1674  0.0307 -1.2813
   75SLPC  C318 6795   5.928   3.178   4.253  0.8171  0.0283 -0.6574
   75SLPC  H18X 6796   5.920   3.068   4.243 -1.1803 -0.1141  1.7119
   75SLPC  H18Y 6797   6.031   3.213   4.228  0.6651 -0.1181 -1.5064
   75SLPC  H18Z 6798   5.851   3.216   4.182 -0.0836 -1.9825 -0.8004
   76SLPC     N 6799   0.068   2.658   6.955 -0.2622 -0.3094  0.2932
   76SLPC   C13 6800  -0.009   2.761   7.038 -0.4237 -0.1030 -0.0125
   76SLPC  H13A 6801  -0.041   2.714   7.130  1.9605 -1.4567  0.2176
   76SLPC  H13B 6802   0.062   2.837   7.065  1.8336 -2.2694  0.4910
   76SLPC  H13C 6803  -0.092   2.804   6.985 -1.3251  0.4015  1.7319
   76SLPC   C14 6804  -0.032   2.569   6.891  0.3639 -0.6812 -0.1908
   76SLPC  H14A 6805  -0.092   2.623   6.819 -2.0546 -2.2627  0.5139
   76SLPC  H14B 6806   0.006   2.483   6.838  0.0651 -0.9064 -0.0381
   76SLPC  H14C 6807  -0.106   2.531   6.960 -0.2741  1.6073  0.4943
   76SLPC   C15 6808   0.158   2.584   7.044 -0.3112 -0.0630  0.2836
   76SLPC  H15A 6809   0.210   2.513   6.981 -2.1274 -1.2784  0.0805
   76SLPC  H15B 6810   0.233   2.650   7.086  0.6264 -0.8646 -0.0729
   76SLPC  H15C 6811   0.114   2.520   7.118 -0.1967 -0.3930  0.0713
   76SLPC   C12 6812   0.140   2.735   6.836 -0.0463  0.0287 -0.7128
   76SLPC  H12A 6813   0.219   2.785   6.889 -0.6864 -1.0140  1.3390
   76SLPC  H12B 6814   0.075   2.809   6.791  0.7989  1.3680  0.2038
   76SLPC   C11 6815   0.210   2.647   6.723 -0.5009 -0.9238  0.4564
   76SLPC  H11A 6816   0.239   2.727   6.652 -1.8074 -0.7161  0.1267
   76SLPC  H11B 6817   0.135   2.583   6.672 -0.9150  0.8168 -1.2392
   76SLPC     P 6818   0.458   2.631   6.816 -0.3264  0.2029 -0.0365
   76SLPC   O13 6819   0.424   2.756   6.883  0.3239 -0.1699  0.8193
   76SLPC   O14 6820   0.543   2.536   6.883 -0.2573 -0.0733  0.8211
   76SLPC   O12 6821   0.321   2.567   6.775 -0.3876 -0.5685  0.2455
   76SLPC   O11 6822   0.522   2.675   6.679  0.2306  0.5761  0.6180
   76SLPC    C1 6823   0.595   2.591   6.592 -0.4676 -0.0742  0.0022
   76SLPC    HA 6824   0.669   2.657   6.543 -0.3096 -1.0194 -1.0762
   76SLPC    HB 6825   0.650   2.516   6.652 -0.6940  1.3035  2.0405
   76SLPC    C2 6826   0.511   2.530   6.482  0.2953 -0.1502  0.7444
   76SLPC    HS 6827   0.580   2.489   6.404 -0.1748  2.1544 -0.9917
   76SLPC   O21 6828   0.419   2.615   6.411 -0.1865  0.2789  0.1272
   76SLPC   C21 6829   0.469   2.700   6.322  0.5249 -0.0463 -0.1094
   76SLPC   O22 6830   0.579   2.704   6.277 -0.3831  0.2758  0.2896
   76SLPC   C22 6831   0.352   2.782   6.263  0.8342  0.0348 -0.3028
   76SLPC   H2R 6832   0.291   2.713   6.200 -0.7115  3.4193 -2.8432
   76SLPC   H2S 6833   0.287   2.816   6.347  0.5761  1.1166 -0.9272
   76SLPC    C3 6834   0.432   2.400   6.525  0.5499  0.3118 -0.3361
   76SLPC    HX 6835   0.345   2.427   6.589  0.0012  0.3287 -1.0633
   76SLPC    HY 6836   0.506   2.341   6.582 -0.1578  0.0517  0.3225
   76SLPC   O31 6837   0.394   2.332   6.409  0.1483 -0.1815  0.4151
   76SLPC   C31 6838   0.271   2.343   6.367  0.1371 -0.2114 -0.8073
   76SLPC   O32 6839   0.175   2.386   6.427 -0.0883 -0.3444  0.0430
   76SLPC   C32 6840   0.242   2.280   6.232  0.5007 -0.6781 -0.5758
   76SLPC   H2X 6841   0.174   2.351   6.179 -4.0797 -3.7169  0.6576
   76SLPC   H2Y 6842   0.187   2.184   6.240  3.7704 -2.7961 -1.5858
   76SLPC   C23 6843   0.383   2.909   6.175  0.1723 -0.2713 -0.3507
   76SLPC   H3R 6844   0.472   2.966   6.209 -0.4491  0.1501  0.5977
   76SLPC   H3S 6845   0.305   2.986   6.158 -0.5617 -1.2369 -1.5499
   76SLPC   C24 6846   0.420   2.862   6.034  0.1502  0.6603 -0.0462
   76SLPC   H4R 6847   0.336   2.799   5.997  0.3305  0.3001  0.1510
   76SLPC   H4S 6848   0.512   2.800   6.037  0.7713  1.6025  1.0196
   76SLPC   C25 6849   0.433   2.986   5.946 -0.0844 -0.0858  0.9166
   76SLPC   H5R 6850   0.523   3.045   5.972 -0.8579  2.5906 -1.9218
   76SLPC   H5S 6851   0.349   3.059   5.941 -1.5091 -1.7344 -1.7866
   76SLPC   C26 6852   0.439   2.938   5.803  0.1221  0.2144 -0.5098
   76SLPC   H6R 6853   0.346   2.886   5.770  0.2116  1.2807 -2.5897
   76SLPC   H6S 6854   0.526   2.870   5.800  0.6243  0.6628  1.8929
   76SLPC   C27 6855   0.459   3.048   5.701 -0.7192 -0.0342  0.5183
   76SLPC   H7R 6856   0.562   3.084   5.721 -0.3838 -0.4680 -0.3926
   76SLPC   H7S 6857   0.403   3.140   5.731  0.0245  0.4030  0.5760
   76SLPC   C28 6858   0.463   3.001   5.556  0.3427 -0.1863  0.9450
   76SLPC   H8R 6859   0.514   2.902   5.550 -1.0340 -0.8460 -1.9688
   76SLPC   H8S 6860   0.524   3.066   5.489  0.3428 -2.9403 -1.9475
   76SLPC   C29 6861   0.318   2.993   5.508 -0.2965  0.0321  0.7944
   76SLPC   H9R 6862   0.251   2.938   5.576 -0.3041 -1.3072 -0.2568
   76SLPC  C210 6863   0.264   3.042   5.393 -0.1398  0.7400 -0.1352
   76SLPC  H10R 6864   0.159   3.021   5.368 -0.7133 -0.3277  2.7705
   76SLPC  C211 6865   0.331   3.126   5.285  0.3001 -0.4475  0.5672
   76SLPC  H11R 6866   0.425   3.173   5.323 -0.0719 -1.0558  2.3537
   76SLPC  H11S 6867   0.264   3.210   5.254 -1.5146 -0.8876  3.0173
   76SLPC  C212 6868   0.372   3.049   5.159  0.0298  0.1316  0.2091
   76SLPC  H12R 6869   0.443   2.971   5.186  0.3233  1.1695  2.7623
   76SLPC  C213 6870   0.331   3.063   5.031 -1.3259  0.5738  0.2251
   76SLPC  H13R 6871   0.381   3.005   4.953 -2.0423  3.8024 -2.8886
   76SLPC  C214 6872   0.220   3.144   4.972 -0.1188 -0.4577 -0.3851
   76SLPC  H14R 6873   0.168   3.216   5.037  1.1027 -0.4062  0.5836
   76SLPC  H14S 6874   0.138   3.077   4.937  0.2717 -0.5386 -1.1715
   76SLPC  C215 6875   0.269   3.225   4.845 -0.3622  0.1777 -0.1802
   76SLPC  H15R 6876   0.307   3.152   4.770  1.2551  0.7514  0.0452
   76SLPC  H15S 6877   0.344   3.298   4.883  0.8206 -1.5850  1.0301
   76SLPC  C216 6878   0.152   3.292   4.773  0.2512  0.3851  0.6824
   76SLPC  H16R 6879   0.096   3.370   4.829 -2.5016 -0.6981 -0.4067
   76SLPC  H16S 6880   0.073   3.226   4.734 -0.9993  1.6015  1.0724
   76SLPC  C217 6881   0.205   3.376   4.649 -0.8557 -0.2000  0.3306
   76SLPC  H17R 6882   0.119   3.379   4.579 -1.7172 -0.0532  1.3666
   76SLPC  H17S 6883   0.290   3.318   4.607 -1.3755 -0.5734 -0.2150
   76SLPC  C218 6884   0.252   3.514   4.690  0.0999 -0.5449  0.3519
   76SLPC  H18R 6885   0.302   3.568   4.608 -0.0800  1.0807  1.2795
   76SLPC  H18S 6886   0.316   3.508   4.781 -1.0852  0.9442  1.3336
   76SLPC  H18T 6887   0.164   3.580   4.703 -0.3551 -0.9372 -0.6669
   76SLPC   C33 6888   0.372   2.256   6.144 -0.6445 -0.7989  0.1117
   76SLPC   H3X 6889   0.354   2.191   6.056 -3.2046  1.0729 -0.8778
   76SLPC   H3Y 6890   0.441   2.204   6.214  0.8287  2.0798  1.0024
   76SLPC   C34 6891   0.441   2.384   6.088 -0.6160 -0.0855 -0.2343
   76SLPC   H4X 6892   0.544   2.365   6.051 -0.5539  0.5615 -0.4080
   76SLPC   H4Y 6893   0.455   2.462   6.167 -1.9365  0.4528 -0.5055
   76SLPC   C35 6894   0.356   2.459   5.984  1.3029  0.5413  0.3451
   76SLPC   H5X 6895   0.403   2.555   5.956 -0.2277  1.0603 -0.5830
   76SLPC   H5Y 6896   0.258   2.492   6.025  1.5004  2.2773 -0.4884
   76SLPC   C36 6897   0.351   2.380   5.844 -0.2659 -0.7199 -0.8019
   76SLPC   H6X 6898   0.295   2.288   5.870  0.9327 -1.6342 -1.3767
   76SLPC   H6Y 6899   0.457   2.356   5.819  0.1265 -0.7604  0.7433
   76SLPC   C37 6900   0.282   2.444   5.721 -0.3091 -0.2340  0.9688
   76SLPC   H7X 6901   0.172   2.453   5.738 -1.4769 -2.5929 -3.6969
   76SLPC   H7Y 6902   0.296   2.365   5.645 -0.6887  1.3444 -0.8013
   76SLPC   C38 6903   0.338   2.574   5.669 -0.1335 -0.1699  0.1516
   76SLPC   H8X 6904   0.422   2.603   5.737  1.0222 -2.0700 -0.3797
   76SLPC   H8Y 6905   0.261   2.653   5.678  0.4842  0.4509  0.1306
   76SLPC   C39 6906   0.388   2.558   5.522 -0.3454 -0.1010  0.0944
   76SLPC   H9X 6907   0.415   2.451   5.506  0.1395  0.2913 -2.0933
   76SLPC   H9Y 6908   0.482   2.617   5.514 -0.4909  0.4544  2.1037
   76SLPC  C310 6909   0.289   2.611   5.410 -0.1199  0.6918 -0.2797
   76SLPC  H10X 6910   0.267   2.716   5.440  4.1862  1.5456  0.6235
   76SLPC  H10Y 6911   0.199   2.551   5.431  0.8202 -0.1273  1.6917
   76SLPC  C311 6912   0.350   2.599   5.266  0.9466 -0.1337 -0.0863
   76SLPC  H11X 6913   0.375   2.492   5.250 -0.7596 -0.2013 -3.0918
   76SLPC  H11Y 6914   0.439   2.665   5.254 -1.0233  2.7383  0.1164
   76SLPC  C312 6915   0.262   2.654   5.158 -0.0181  0.5201  0.4061
   76SLPC  H12X 6916   0.234   2.759   5.183 -1.2216 -0.2671  2.6804
   76SLPC  H12Y 6917   0.168   2.594   5.155  0.5030 -0.2697 -0.6070
   76SLPC  C313 6918   0.328   2.648   5.019 -0.2457  0.2071 -0.5413
   76SLPC  H13X 6919   0.352   2.540   5.005 -1.3858 -0.2433  0.7536
   76SLPC  H13Y 6920   0.422   2.706   5.016  0.1183 -0.2815  0.8521
   76SLPC  C314 6921   0.226   2.693   4.915 -0.0633 -0.2637 -0.4495
   76SLPC  H14X 6922   0.195   2.798   4.935 -2.4605 -0.7889 -1.1786
   76SLPC  H14Y 6923   0.138   2.627   4.927  0.6471 -1.1575 -0.0437
   76SLPC  C315 6924   0.269   2.682   4.763  0.9408  0.2682  0.5069
   76SLPC  H15X 6925   0.298   2.576   4.747 -0.0148  0.0366  0.2519
   76SLPC  H15Y 6926   0.360   2.739   4.735  2.2443 -1.4713  1.0942
   76SLPC  C316 6927   0.158   2.703   4.651  0.1902 -0.1494  0.3921
   76SLPC  H16X 6928   0.085   2.620   4.657 -0.9684  0.7765 -0.2134
   76SLPC  H16Y 6929   0.196   2.687   4.548 -2.4811  0.5003 -0.7943
   76SLPC  C317 6930   0.089   2.842   4.661 -0.6255 -0.1376 -0.0523
   76SLPC  H17X 6931   0.168   2.920   4.651 -1.3730  0.6502  0.1290
   76SLPC  H17Y 6932   0.042   2.850   4.761  0.0786 -0.0622  0.2794
   76SLPC  C318 6933  -0.013   2.862   4.552 -0.6635  0.1012  0.3705
   76SLPC  H18X 6934  -0.113   2.821   4.576 -1.1699 -0.8885 -2.9291
   76SLPC  H18Y 6935   0.018   2.816   4.456 -1.0802 -1.7685  1.0891
   76SLPC  H18Z 6936  -0.032   2.971   4.540  0.2125  0.1122 -1.2417
   77SLPC     N 6937   0.725   1.363   6.783  0.4732  0.1311 -0.2563
   77SLPC   C13 6938   0.752   1.367   6.638  0.0429 -0.0727  0.2367
   77SLPC  H13A 6939   0.761   1.470   6.609 -0.2074  0.4027  1.7692
   77SLPC  H13B 6940   0.842   1.319   6.602  0.1307 -0.1902  0.6115
   77SLPC  H13C 6941   0.675   1.311   6.588  0.3232 -1.7773  1.6140
   77SLPC   C14 6942   0.805   1.468   6.847 -0.2742  0.0917  0.3400
   77SLPC  H14A 6943   0.758   1.561   6.819 -2.3330 -0.6102  1.2578
   77SLPC  H14B 6944   0.795   1.459   6.954  2.7783  0.4233  0.7304
   77SLPC  H14C 6945   0.911   1.460   6.830 -0.1233  1.3064  0.6299
   77SLPC   C15 6946   0.775   1.230   6.837  0.3161 -0.2272 -0.1424
   77SLPC  H15A 6947   0.762   1.221   6.943 -1.0641 -0.9950 -0.3492
   77SLPC  H15B 6948   0.726   1.146   6.789 -0.5425 -0.0870  0.4896
   77SLPC  H15C 6949   0.882   1.226   6.817  0.3259  2.2880 -0.8834
   77SLPC   C12 6950   0.576   1.393   6.814 -0.5962 -0.0375  0.2763
   77SLPC  H12A 6951   0.574   1.423   6.918  1.0542 -0.3065  0.4158
   77SLPC  H12B 6952   0.515   1.304   6.807  0.5525 -0.9273  1.1268
   77SLPC   C11 6953   0.507   1.507   6.743  0.5730  0.3648 -1.0287
   77SLPC  H11A 6954   0.403   1.502   6.783  0.7807  2.3736 -0.0779
   77SLPC  H11B 6955   0.504   1.483   6.635  2.9753 -0.6803 -0.9239
   77SLPC     P 6956   0.548   1.702   6.914 -0.0906  0.3332  0.2171
   77SLPC   O13 6957   0.413   1.679   6.965  0.1268  0.1696  0.0120
   77SLPC   O14 6958   0.662   1.668   6.995 -0.0987 -0.3408  0.0593
   77SLPC   O12 6959   0.569   1.638   6.770 -0.3171 -0.0770  0.8386
   77SLPC   O11 6960   0.557   1.854   6.885  0.6625 -0.3928  0.5182
   77SLPC    C1 6961   0.448   1.938   6.847 -0.2242 -0.0497 -0.2568
   77SLPC    HA 6962   0.349   1.890   6.864 -0.3761  0.0194 -0.9039
   77SLPC    HB 6963   0.443   2.036   6.899  0.8683  1.0260 -2.0789
   77SLPC    C2 6964   0.460   1.982   6.696  0.1039  0.5944  0.5517
   77SLPC    HS 6965   0.384   2.059   6.672  0.1834  0.5255  0.0751
   77SLPC   O21 6966   0.451   1.880   6.594 -0.4710 -0.2843  0.0543
   77SLPC   C21 6967   0.341   1.821   6.563  0.5259  0.2224 -0.1125
   77SLPC   O22 6968   0.233   1.823   6.630  0.2707  0.1369  0.4918
   77SLPC   C22 6969   0.370   1.760   6.427  0.6488  0.7214 -0.8286
   77SLPC   H2R 6970   0.477   1.743   6.402  0.2145 -0.3189 -2.1187
   77SLPC   H2S 6971   0.332   1.655   6.427 -0.1422  0.9983  0.3372
   77SLPC    C3 6972   0.599   2.053   6.682 -0.0767  0.4314 -0.3786
   77SLPC    HX 6973   0.683   1.994   6.724  0.6340  1.2931 -0.5571
   77SLPC    HY 6974   0.588   2.143   6.746  1.1272 -0.1996  0.7574
   77SLPC   O31 6975   0.628   2.104   6.547 -0.4156 -0.0293 -0.5020
   77SLPC   C31 6976   0.719   2.035   6.489 -0.6182  0.1353  0.5038
   77SLPC   O32 6977   0.790   1.951   6.536 -0.4631 -0.2124 -0.4072
   77SLPC   C32 6978   0.726   2.070   6.334  0.1400  0.1508 -0.1762
   77SLPC   H2X 6979   0.819   2.131   6.330 -0.1683  0.6536  0.1507
   77SLPC   H2Y 6980   0.634   2.128   6.310  0.4171  0.2185 -1.0915
   77SLPC   C23 6981   0.300   1.831   6.313  0.1264 -0.6766  0.1273
   77SLPC   H3R 6982   0.319   1.941   6.310 -0.2073 -0.5973 -3.2716
   77SLPC   H3S 6983   0.193   1.805   6.329 -0.0028 -0.5563 -0.5026
   77SLPC   C24 6984   0.334   1.771   6.172  0.7572  0.0524 -0.2025
   77SLPC   H4R 6985   0.270   1.679   6.171 -0.5253  0.9036 -1.7452
   77SLPC   H4S 6986   0.439   1.737   6.159  0.7383 -1.0651  2.0300
   77SLPC   C25 6987   0.280   1.868   6.057  0.0831  0.3492  0.0065
   77SLPC   H5R 6988   0.286   1.819   5.957  0.3224  3.5752 -1.7296
   77SLPC   H5S 6989   0.350   1.954   6.063  0.3020  0.0749  1.7950
   77SLPC   C26 6990   0.130   1.887   6.072 -0.6413  0.1364 -0.3153
   77SLPC   H6R 6991   0.089   1.920   6.169 -1.0395  1.7859 -1.0155
   77SLPC   H6S 6992   0.075   1.793   6.050  0.8747 -0.4267 -2.0286
   77SLPC   C27 6993   0.084   2.000   5.970  0.5893  0.1876  0.1692
   77SLPC   H7R 6994   0.114   2.101   6.005  0.3840  0.4389 -0.3669
   77SLPC   H7S 6995  -0.027   1.991   5.975  0.5896  0.8300  2.6123
   77SLPC   C28 6996   0.116   1.991   5.816 -0.1206  0.5022  0.4109
   77SLPC   H8R 6997   0.224   2.002   5.796 -0.0002  0.0355  0.7880
   77SLPC   H8S 6998   0.068   2.079   5.767 -0.6959  0.2892  0.5826
   77SLPC   C29 6999   0.062   1.869   5.747  0.4524 -1.1296  0.3738
   77SLPC   H9R 7000   0.043   1.785   5.817  0.5110  1.1501  3.3263
   77SLPC  C210 7001   0.042   1.843   5.619  0.4347 -0.0547 -0.0659
   77SLPC  H10R 7002   0.001   1.744   5.595  1.9672 -1.1204  1.4378
   77SLPC  C211 7003   0.079   1.933   5.500 -0.3779 -0.5220 -0.4994
   77SLPC  H11R 7004   0.061   1.863   5.416  1.3718 -2.2967  0.5122
   77SLPC  H11S 7005   0.188   1.956   5.500 -0.3615 -0.2576  2.2540
   77SLPC  C212 7006   0.008   2.062   5.481 -0.6856  0.5126 -0.3045
   77SLPC  H12R 7007   0.030   2.145   5.550 -2.2840  2.2652 -1.7867
   77SLPC  C213 7008  -0.089   2.094   5.390  0.2875 -0.5965  0.2900
   77SLPC  H13R 7009  -0.121   2.198   5.404  2.7914  0.1352  1.1358
   77SLPC  C214 7010  -0.173   1.998   5.306 -0.3965  1.2274 -0.0937
   77SLPC  H14R 7011  -0.277   1.999   5.345 -1.5427  1.4919 -2.9456
   77SLPC  H14S 7012  -0.132   1.894   5.314 -0.4712  1.1967 -0.1103
   77SLPC  C215 7013  -0.193   2.034   5.160 -0.0956 -0.1244 -0.3949
   77SLPC  H15R 7014  -0.089   2.047   5.124  0.3099 -1.8421  0.0209
   77SLPC  H15S 7015  -0.250   2.129   5.160  0.2486  0.0868  0.2393
   77SLPC  C216 7016  -0.250   1.923   5.070  0.1080  0.0151 -0.2678
   77SLPC  H16R 7017  -0.351   1.893   5.104 -0.4696  0.7200 -1.2898
   77SLPC  H16S 7018  -0.181   1.836   5.071  0.1448 -0.0523  3.1312
   77SLPC  C217 7019  -0.293   1.974   4.927  0.5157  0.4252 -0.3380
   77SLPC  H17R 7020  -0.209   2.022   4.872  0.7061 -1.3082 -1.6735
   77SLPC  H17S 7021  -0.366   2.057   4.934 -1.7220 -1.4624 -0.1869
   77SLPC  C218 7022  -0.360   1.864   4.847  0.9532  0.0428  0.5654
   77SLPC  H18R 7023  -0.432   1.910   4.776  0.1885 -0.4862  0.9830
   77SLPC  H18S 7024  -0.412   1.788   4.908 -1.5900 -1.2582 -2.8735
   77SLPC  H18T 7025  -0.281   1.797   4.805  1.7374 -0.2143  2.3510
   77SLPC   C33 7026   0.740   1.948   6.237  0.3561  0.3902  0.0003
   77SLPC   H3X 7027   0.665   1.868   6.252  0.8231 -1.3563 -5.0618
   77SLPC   H3Y 7028   0.837   1.898   6.257 -0.5181 -1.4581 -0.2153
   77SLPC   C34 7029   0.731   1.997   6.095 -0.5677 -0.0497  0.5222
   77SLPC   H4X 7030   0.823   2.045   6.056 -0.9755 -1.1654 -2.0161
   77SLPC   H4Y 7031   0.673   2.092   6.094  0.6854  0.7798 -2.0948
   77SLPC   C35 7032   0.675   1.895   5.999  0.0656  0.2841 -0.2226
   77SLPC   H5X 7033   0.564   1.900   6.010  0.0580  0.8026 -0.4797
   77SLPC   H5Y 7034   0.715   1.794   6.021  0.9817  0.6113 -0.3327
   77SLPC   C36 7035   0.705   1.914   5.848 -0.2300 -0.7425  1.0025
   77SLPC   H6X 7036   0.687   1.821   5.789 -2.6366  0.4048 -0.1887
   77SLPC   H6Y 7037   0.810   1.950   5.835 -1.0280  1.6121  0.5594
   77SLPC   C37 7038   0.600   2.008   5.786  0.1817 -0.1255 -0.1465
   77SLPC   H7X 7039   0.600   2.118   5.800  0.0270 -0.1153 -0.2154
   77SLPC   H7Y 7040   0.504   1.970   5.826 -0.1098  0.4824 -0.2551
   77SLPC   C38 7041   0.595   1.998   5.634 -0.2070 -0.3605 -0.3125
   77SLPC   H8X 7042   0.548   1.900   5.612  0.8511 -0.5110 -2.1224
   77SLPC   H8Y 7043   0.702   2.004   5.605 -0.0497 -0.7483  0.1874
   77SLPC   C39 7044   0.500   2.104   5.575  0.3183 -0.1081  0.0944
   77SLPC   H9X 7045   0.514   2.213   5.588 -2.1621  0.3905 -0.7841
   77SLPC   H9Y 7046   0.401   2.082   5.621  1.3085 -1.3793  1.7745
   77SLPC  C310 7047   0.467   2.076   5.432 -0.1465  0.0902 -0.6968
   77SLPC  H10X 7048   0.424   1.973   5.434 -4.8611  1.8334  1.6044
   77SLPC  H10Y 7049   0.556   2.078   5.365  1.8855  2.3305  1.8590
   77SLPC  C311 7050   0.350   2.156   5.372  0.2475 -0.0516  0.2370
   77SLPC  H11X 7051   0.381   2.262   5.381  0.4117 -0.0309 -0.4584
   77SLPC  H11Y 7052   0.253   2.143   5.423 -0.1407 -1.4739 -0.7875
   77SLPC  C312 7053   0.322   2.122   5.224 -0.1858  0.4718  0.3209
   77SLPC  H12X 7054   0.295   2.015   5.217 -2.7450  1.1163 -1.0271
   77SLPC  H12Y 7055   0.415   2.128   5.164 -0.7037  0.7663 -0.4816
   77SLPC  C313 7056   0.222   2.213   5.154  0.1832  0.7412  0.2092
   77SLPC  H13X 7057   0.248   2.316   5.189  1.3672  0.5773 -0.1692
   77SLPC  H13Y 7058   0.125   2.188   5.203 -0.7584 -1.6117 -2.5767
   77SLPC  C314 7059   0.216   2.199   5.002  0.3253  0.0151 -0.5692
   77SLPC  H14X 7060   0.297   2.268   4.970  0.1736  1.5130  2.0484
   77SLPC  H14Y 7061   0.116   2.235   4.970 -0.3355 -1.9350 -0.8369
   77SLPC  C315 7062   0.234   2.054   4.949  0.1656 -0.9434  0.1460
   77SLPC  H15X 7063   0.166   1.991   5.010  1.3074 -1.0709  1.3343
   77SLPC  H15Y 7064   0.335   2.012   4.971  0.8001  0.5187  0.1824
   77SLPC  C316 7065   0.197   2.042   4.799 -0.1371 -0.4483 -0.1195
   77SLPC  H16X 7066   0.108   2.104   4.777  0.3726 -0.3548 -2.0805
   77SLPC  H16Y 7067   0.165   1.940   4.768 -2.7482 -0.1558  1.2870
   77SLPC  C317 7068   0.306   2.106   4.709  0.5732 -0.3448 -0.3998
   77SLPC  H17X 7069   0.403   2.053   4.723  1.4528  1.0948 -0.7542
   77SLPC  H17Y 7070   0.323   2.211   4.743  1.7811 -0.8290  0.5988
   77SLPC  C318 7071   0.267   2.119   4.560  0.7082 -0.4304  0.2786
   77SLPC  H18X 7072   0.266   2.025   4.500  0.6994 -0.0462 -0.3290
   77SLPC  H18Y 7073   0.341   2.190   4.518 -1.3994  2.2397  0.7726
   77SLPC  H18Z 7074   0.165   2.164   4.558  1.4773  1.6205  2.8055
   78SLPC     N 7075   2.403   5.964   6.727  0.0716 -0.1159 -0.1837
   78SLPC   C13 7076   2.479   5.839   6.738 -0.3930 -0.5661  0.2839
   78SLPC  H13A 7077   2.449   5.774   6.657 -1.4153  0.9248 -0.5971
   78SLPC  H13B 7078   2.584   5.860   6.721 -1.1496  2.0059 -1.9837
   78SLPC  H13C 7079   2.475   5.797   6.837  0.5064  1.2131  1.1340
   78SLPC   C14 7080   2.448   6.061   6.839 -0.0377 -0.0062  0.0391
   78SLPC  H14A 7081   2.439   6.010   6.934  0.1299 -2.8245 -1.3578
   78SLPC  H14B 7082   2.542   6.109   6.816 -0.2489  0.3662 -0.0628
   78SLPC  H14C 7083   2.382   6.146   6.852 -3.2164 -2.5143  2.0021
   78SLPC   C15 7084   2.260   5.933   6.753 -0.0002  0.3327  0.7661
   78SLPC  H15A 7085   2.224   5.874   6.670  1.1790  0.2783  0.2660
   78SLPC  H15B 7086   2.251   5.868   6.839 -0.0571  0.0953  0.5826
   78SLPC  H15C 7087   2.200   6.022   6.755  0.9465  1.0295 -0.4733
   78SLPC   C12 7088   2.411   6.033   6.595  0.1607  0.4079  0.5726
   78SLPC  H12A 7089   2.336   6.110   6.586 -1.2972 -1.1404 -1.3318
   78SLPC  H12B 7090   2.393   5.961   6.517 -2.1247  1.0121  0.4687
   78SLPC   C11 7091   2.533   6.110   6.563  0.4957  0.2429  0.6773
   78SLPC  H11A 7092   2.618   6.042   6.588 -0.0899 -1.2411 -1.1133
   78SLPC  H11B 7093   2.533   6.199   6.629 -3.2264  0.9861 -0.1260
   78SLPC     P 7094   2.666   6.186   6.355 -0.3483 -0.0264  0.1822
   78SLPC   O13 7095   2.719   6.299   6.439  0.2034  0.2365  0.1781
   78SLPC   O14 7096   2.761   6.071   6.330  0.6101  0.5771 -0.1417
   78SLPC   O12 7097   2.534   6.137   6.428  0.4529 -0.1964  0.5298
   78SLPC   O11 7098   2.615   6.244   6.219  0.0597  0.7829  0.1416
   78SLPC    C1 7099   2.688   6.344   6.150  0.1065  0.5033 -0.2130
   78SLPC    HA 7100   2.622   6.433   6.137 -0.4924  0.4419  2.0761
   78SLPC    HB 7101   2.782   6.382   6.196  0.1997 -1.4612  1.3430
   78SLPC    C2 7102   2.751   6.297   6.012  0.4502  0.2513 -0.4521
   78SLPC    HS 7103   2.817   6.380   5.979  1.2242 -0.6339 -1.1574
   78SLPC   O21 7104   2.638   6.280   5.924 -0.1549 -0.4244 -0.6224
   78SLPC   C21 7105   2.579   6.397   5.899  0.4495 -0.1702 -0.1018
   78SLPC   O22 7106   2.625   6.504   5.931 -0.2164 -0.7198  0.1906
   78SLPC   C22 7107   2.441   6.362   5.845  0.5079  0.5259  0.4992
   78SLPC   H2R 7108   2.431   6.252   5.836  0.9031  0.5498 -0.3773
   78SLPC   H2S 7109   2.364   6.394   5.917 -1.5242 -3.1576  0.2245
   78SLPC    C3 7110   2.840   6.170   6.020 -0.3497 -0.2016  0.1810
   78SLPC    HX 7111   2.775   6.089   6.061 -0.3274  0.3170  1.2703
   78SLPC    HY 7112   2.919   6.194   6.094  0.2164  3.8711 -1.4893
   78SLPC   O31 7113   2.906   6.146   5.894  0.2511  0.0240 -0.1172
   78SLPC   C31 7114   2.884   6.026   5.839  0.1681 -0.6337 -0.4431
   78SLPC   O32 7115   2.809   5.938   5.879 -1.1295 -0.1529 -0.7583
   78SLPC   C32 7116   2.959   6.020   5.706  0.2656  0.6443 -1.5467
   78SLPC   H2X 7117   2.945   5.912   5.680  1.3687  0.3062 -0.7840
   78SLPC   H2Y 7118   3.067   6.038   5.724  0.1354  2.6254 -2.4984
   78SLPC   C23 7119   2.412   6.423   5.701 -0.2002  0.3192 -0.4805
   78SLPC   H3R 7120   2.430   6.533   5.699  1.6165  0.0710 -0.0471
   78SLPC   H3S 7121   2.309   6.399   5.670 -1.0792 -0.0156  2.4010
   78SLPC   C24 7122   2.489   6.350   5.592 -0.5751 -0.3374 -0.3762
   78SLPC   H4R 7123   2.467   6.244   5.566 -1.3855 -0.3316  0.2297
   78SLPC   H4S 7124   2.594   6.361   5.627 -0.6080  1.3414 -0.7351
   78SLPC   C25 7125   2.515   6.413   5.447  0.2685 -0.1351 -0.1204
   78SLPC   H5R 7126   2.560   6.514   5.458  0.2265 -0.2214  0.9451
   78SLPC   H5S 7127   2.412   6.435   5.412  0.1450  0.1443  0.4056
   78SLPC   C26 7128   2.591   6.329   5.348 -0.3269 -0.2382  0.2054
   78SLPC   H6R 7129   2.515   6.257   5.312 -0.3562 -1.1823  2.0673
   78SLPC   H6S 7130   2.671   6.279   5.407 -0.8016  0.5420  1.5539
   78SLPC   C27 7131   2.660   6.388   5.223  0.3147  0.1040 -0.5782
   78SLPC   H7R 7132   2.738   6.319   5.184 -2.2273 -2.3839 -1.5458
   78SLPC   H7S 7133   2.714   6.479   5.257 -1.1528  0.1602  1.8242
   78SLPC   C28 7134   2.555   6.435   5.114  0.0944 -1.1612  0.8561
   78SLPC   H8R 7135   2.474   6.497   5.160  1.6740  1.8782 -0.1503
   78SLPC   H8S 7136   2.513   6.343   5.068  0.8239 -2.7607  3.2072
   78SLPC   C29 7137   2.625   6.525   5.025 -0.1250 -0.2811 -0.0413
   78SLPC   H9R 7138   2.673   6.615   5.068  0.0495 -0.8340  0.9628
   78SLPC  C210 7139   2.668   6.492   4.904  0.4335  0.0591 -0.1273
   78SLPC  H10R 7140   2.707   6.574   4.842  0.3971  0.7990  0.8051
   78SLPC  C211 7141   2.632   6.365   4.823 -0.4323 -0.0117 -0.9072
   78SLPC  H11R 7142   2.543   6.384   4.760 -2.0266 -3.8971 -0.0949
   78SLPC  H11S 7143   2.592   6.290   4.894  0.5923  0.4417  0.1886
   78SLPC  C212 7144   2.736   6.310   4.725 -0.2169 -0.5714  0.4126
   78SLPC  H12R 7145   2.767   6.210   4.759  0.0505 -0.2868  1.0287
   78SLPC  C213 7146   2.787   6.361   4.611  0.1032 -0.0175 -0.1442
   78SLPC  H13R 7147   2.869   6.309   4.560  1.5132  0.6445  1.3631
   78SLPC  C214 7148   2.767   6.494   4.549  0.2348  0.1088  0.3373
   78SLPC  H14R 7149   2.867   6.543   4.543  0.3226 -0.2122 -3.9418
   78SLPC  H14S 7150   2.700   6.555   4.614  0.6356  0.4255  0.4557
   78SLPC  C215 7151   2.706   6.485   4.406 -0.1013 -0.4155  0.3073
   78SLPC  H15R 7152   2.754   6.398   4.356  0.3922 -0.4035  0.7484
   78SLPC  H15S 7153   2.733   6.577   4.350  1.8228 -1.2080 -0.1562
   78SLPC  C216 7154   2.554   6.466   4.414  0.3784 -0.6494 -0.0640
   78SLPC  H16R 7155   2.510   6.520   4.501 -0.7787 -0.3340 -0.8191
   78SLPC  H16S 7156   2.537   6.358   4.430 -1.3154 -0.7317 -1.9511
   78SLPC  C217 7157   2.476   6.523   4.293 -0.8851 -0.4418  0.1404
   78SLPC  H17R 7158   2.538   6.604   4.251 -0.0875 -0.3980  1.3510
   78SLPC  H17S 7159   2.382   6.575   4.322 -0.6476  0.2472 -0.3102
   78SLPC  C218 7160   2.442   6.407   4.201  0.1921  0.0461 -0.9848
   78SLPC  H18R 7161   2.525   6.335   4.182  0.4322 -0.8353  2.6194
   78SLPC  H18S 7162   2.407   6.444   4.103 -0.4267 -0.8920 -1.1322
   78SLPC  H18T 7163   2.361   6.351   4.253 -0.1644  1.1710 -0.2978
   78SLPC   C33 7164   2.908   6.117   5.599  1.0856  0.0682  0.1065
   78SLPC   H3X 7165   2.955   6.208   5.642  1.7658 -1.3032  2.4750
   78SLPC   H3Y 7166   2.798   6.131   5.604  1.4585  3.6185  0.7900
   78SLPC   C34 7167   2.948   6.086   5.458 -0.8747 -0.0923 -0.0750
   78SLPC   H4X 7168   2.905   6.164   5.392 -0.8588  1.5575  1.7867
   78SLPC   H4Y 7169   2.916   5.986   5.421  1.5728 -0.9265 -0.1173
   78SLPC   C35 7170   3.099   6.080   5.448 -0.0069  0.4783 -0.5296
   78SLPC   H5X 7171   3.143   5.989   5.495 -4.2186 -0.8849  1.2125
   78SLPC   H5Y 7172   3.149   6.159   5.508 -0.7953  1.1453 -0.7438
   78SLPC   C36 7173   3.119   6.093   5.297 -0.4807 -0.2414 -0.1681
   78SLPC   H6X 7174   3.096   6.198   5.270  0.8690  0.3230  0.7838
   78SLPC   H6Y 7175   3.038   6.033   5.251 -0.1979 -0.7379 -0.0269
   78SLPC   C37 7176   3.258   6.043   5.254  0.0055 -0.1963 -0.1579
   78SLPC   H7X 7177   3.257   5.933   5.243 -3.7742 -0.3263  0.0904
   78SLPC   H7Y 7178   3.338   6.052   5.331 -1.8407  1.5480  1.7116
   78SLPC   C38 7179   3.302   6.117   5.122 -0.9130 -0.7822 -0.2947
   78SLPC   H8X 7180   3.412   6.104   5.114 -0.7236 -0.9508  1.8693
   78SLPC   H8Y 7181   3.278   6.223   5.145 -0.4212 -0.5882 -0.6698
   78SLPC   C39 7182   3.225   6.074   5.003  0.1149  0.2797 -0.0322
   78SLPC   H9X 7183   3.118   6.096   5.025  1.0465  4.3159  1.2406
   78SLPC   H9Y 7184   3.253   5.967   4.992 -1.8822 -0.4058  1.0409
   78SLPC  C310 7185   3.264   6.153   4.875  0.4039 -0.3701  0.2206
   78SLPC  H10X 7186   3.372   6.133   4.862  0.6262  1.2065 -0.6235
   78SLPC  H10Y 7187   3.245   6.261   4.896 -1.9943 -1.0406  1.9330
   78SLPC  C311 7188   3.200   6.098   4.745 -0.3830  0.5755  0.2092
   78SLPC  H11X 7189   3.090   6.097   4.759 -0.2673  0.7139  1.1669
   78SLPC  H11Y 7190   3.223   5.991   4.725 -1.7195  0.1708  0.7174
   78SLPC  C312 7191   3.252   6.177   4.621 -0.2600  0.6493 -0.0179
   78SLPC  H12X 7192   3.243   6.282   4.657 -2.6794  0.6106 -0.3679
   78SLPC  H12Y 7193   3.194   6.154   4.530  4.2700 -0.1663 -3.0525
   78SLPC  C313 7194   3.393   6.139   4.578 -1.5503 -0.6648  0.4492
   78SLPC  H13X 7195   3.410   6.029   4.566  0.3579 -0.2566 -1.1441
   78SLPC  H13Y 7196   3.461   6.169   4.660 -0.9097  1.6251 -0.8343
   78SLPC  C314 7197   3.431   6.226   4.459  0.3752 -0.1734  0.8249
   78SLPC  H14X 7198   3.410   6.335   4.471 -0.6140 -0.3051  0.4063
   78SLPC  H14Y 7199   3.377   6.186   4.370  1.0519 -3.4928  1.7908
   78SLPC  C315 7200   3.579   6.217   4.404  0.1035 -0.0711 -0.0745
   78SLPC  H15X 7201   3.590   6.280   4.314 -1.9021  2.2675  1.2038
   78SLPC  H15Y 7202   3.595   6.112   4.372 -0.6296 -0.1301 -0.2731
   78SLPC  C316 7203   3.687   6.253   4.505  0.0907  0.0766 -0.3224
   78SLPC  H16X 7204   3.679   6.164   4.571  0.1408 -0.6348 -1.2711
   78SLPC  H16Y 7205   3.647   6.345   4.553  1.2778  1.1506 -1.3360
   78SLPC  C317 7206   3.834   6.272   4.474 -0.7062 -0.4276 -0.3607
   78SLPC  H17X 7207   3.841   6.364   4.412  0.3065 -1.3536 -1.6617
   78SLPC  H17Y 7208   3.859   6.183   4.413  0.8368  0.7307 -1.5142
   78SLPC  C318 7209   3.924   6.273   4.602 -0.6365 -0.0177 -0.4925
   78SLPC  H18X 7210   3.933   6.171   4.644  1.7719 -0.1177 -1.1346
   78SLPC  H18Y 7211   3.882   6.337   4.682  3.5356 -1.8012  3.5576
   78SLPC  H18Z 7212   4.029   6.303   4.586 -0.0117 -2.0980 -0.6192
   79SLPC     N 7213   1.740   1.859   6.750  0.5167  0.1410 -0.1146
   79SLPC   C13 7214   1.720   1.996   6.816 -0.2793 -0.3134  0.5452
   79SLPC  H13A 7215   1.704   2.075   6.744 -1.7168 -0.1608  0.9963
   79SLPC  H13B 7216   1.633   1.990   6.880  0.4274  1.6377  1.7902
   79SLPC  H13C 7217   1.808   2.019   6.874  1.3600 -1.0569 -1.5012
   79SLPC   C14 7218   1.838   1.775   6.830  0.0813  0.3223  0.4099
   79SLPC  H14A 7219   1.934   1.824   6.831  1.3529 -1.1828 -5.7352
   79SLPC  H14B 7220   1.799   1.749   6.927 -1.3531 -0.4675 -0.3405
   79SLPC  H14C 7221   1.861   1.680   6.785 -0.9331  0.7548 -1.0952
   79SLPC   C15 7222   1.799   1.877   6.615  0.4910  0.7801 -0.2321
   79SLPC  H15A 7223   1.907   1.882   6.616  0.4508  4.0894 -0.5827
   79SLPC  H15B 7224   1.779   1.789   6.555  3.6967 -1.7381  2.0780
   79SLPC  H15C 7225   1.764   1.966   6.565  0.2415  0.3511 -0.8358
   79SLPC   C12 7226   1.601   1.788   6.732 -0.6824  0.2855  0.1116
   79SLPC  H12A 7227   1.556   1.783   6.830  0.9405  0.3654  0.9019
   79SLPC  H12B 7228   1.619   1.684   6.708  0.6623  0.1965  1.3364
   79SLPC   C11 7229   1.502   1.852   6.632  0.8291 -0.7278  0.1047
   79SLPC  H11A 7230   1.418   1.781   6.614  1.1326 -0.7464 -1.3815
   79SLPC  H11B 7231   1.560   1.871   6.539 -1.0533 -1.7442 -1.3540
   79SLPC     P 7232   1.368   2.084   6.604 -0.2101 -0.2520  0.0913
   79SLPC   O13 7233   1.234   2.093   6.661  0.0089  0.1736 -0.3608
   79SLPC   O14 7234   1.434   2.220   6.596  0.1080  0.4708  0.3957
   79SLPC   O12 7235   1.448   1.975   6.683  0.1732 -0.1292 -0.0991
   79SLPC   O11 7236   1.358   2.027   6.453  0.5905  0.2849  0.2429
   79SLPC    C1 7237   1.456   2.060   6.355  0.1452 -0.2550  0.7758
   79SLPC    HA 7238   1.552   2.090   6.402  0.0140  0.0594  0.8465
   79SLPC    HB 7239   1.481   1.963   6.307  0.2473  0.5110 -0.7954
   79SLPC    C2 7240   1.406   2.155   6.253 -0.2255  0.0577 -0.3877
   79SLPC    HS 7241   1.348   2.227   6.314  0.2160 -1.0302  1.4174
   79SLPC   O21 7242   1.342   2.089   6.144  0.4559  0.1633 -0.6767
   79SLPC   C21 7243   1.211   2.064   6.171 -0.3671  0.0324 -0.7303
   79SLPC   O22 7244   1.141   2.126   6.249  0.0031  0.5377 -0.2652
   79SLPC   C22 7245   1.162   1.942   6.097  0.4988  0.4630 -0.0478
   79SLPC   H2R 7246   1.238   1.870   6.059 -0.1331  0.6516 -1.7565
   79SLPC   H2S 7247   1.087   1.885   6.156 -1.0017  0.8961 -1.4340
   79SLPC    C3 7248   1.524   2.242   6.210 -0.5684 -0.1071  0.1533
   79SLPC    HX 7249   1.588   2.176   6.148 -0.3394 -0.1464  0.4314
   79SLPC    HY 7250   1.591   2.267   6.296  2.0589 -1.6693 -1.3105
   79SLPC   O31 7251   1.489   2.350   6.117 -0.2903  0.1008  0.7444
   79SLPC   C31 7252   1.450   2.464   6.182  0.0204  0.0352  0.4264
   79SLPC   O32 7253   1.464   2.489   6.298 -0.1905  0.0617 -0.1682
   79SLPC   C32 7254   1.381   2.557   6.081 -0.1965  0.1724 -0.3456
   79SLPC   H2X 7255   1.437   2.559   5.985 -0.3996  0.4357 -0.4605
   79SLPC   H2Y 7256   1.382   2.658   6.127 -1.7237 -0.2697  0.7311
   79SLPC   C23 7257   1.083   1.997   5.969  0.0757  0.0814  0.3589
   79SLPC   H3R 7258   1.013   2.080   5.993 -1.0729 -1.0115  0.9210
   79SLPC   H3S 7259   1.019   1.921   5.918 -0.7887  0.7248  0.4555
   79SLPC   C24 7260   1.164   2.050   5.851 -0.0719 -0.1806  0.2486
   79SLPC   H4R 7261   1.246   1.977   5.834  1.8521  1.9221  0.1231
   79SLPC   H4S 7262   1.218   2.141   5.885 -2.5493  0.6623  2.3121
   79SLPC   C25 7263   1.093   2.083   5.719 -0.3294 -0.1450  0.0347
   79SLPC   H5R 7264   1.051   2.185   5.733  0.1764 -0.0390  0.8372
   79SLPC   H5S 7265   1.012   2.008   5.706  0.4964 -1.0967  0.2810
   79SLPC   C26 7266   1.176   2.092   5.590 -0.3117  0.1439  0.0023
   79SLPC   H6R 7267   1.231   1.996   5.579  2.0500  0.9928  3.0267
   79SLPC   H6S 7268   1.259   2.165   5.605 -0.4224  0.1596  0.5695
   79SLPC   C27 7269   1.083   2.115   5.468  0.1197  0.2444  0.1369
   79SLPC   H7R 7270   1.032   2.213   5.482 -0.6013 -0.1455  0.3178
   79SLPC   H7S 7271   1.007   2.034   5.477  1.6545 -1.1842  0.7300
   79SLPC   C28 7272   1.162   2.124   5.340  0.7167  0.2807 -0.2740
   79SLPC   H8R 7273   1.195   2.019   5.325  0.2947 -0.2014  1.8641
   79SLPC   H8S 7274   1.246   2.195   5.355  1.3624 -0.4293 -0.4508
   79SLPC   C29 7275   1.058   2.171   5.238 -0.5209 -0.2231  0.4159
   79SLPC   H9R 7276   0.959   2.195   5.278 -0.6638  0.9211 -0.5642
   79SLPC  C210 7277   1.073   2.205   5.112 -0.4238  0.2671  0.1127
   79SLPC  H10R 7278   0.981   2.227   5.058  0.3081  1.2490 -0.7789
   79SLPC  C211 7279   1.200   2.181   5.030 -0.0974 -0.1961 -0.1718
   79SLPC  H11R 7280   1.159   2.116   4.949 -0.6196 -0.3631  0.2213
   79SLPC  H11S 7281   1.276   2.127   5.089  0.0659  2.4797  2.3060
   79SLPC  C212 7282   1.249   2.316   4.985  0.1211 -0.6425  0.0721
   79SLPC  H12R 7283   1.297   2.387   5.054  2.2667 -1.4379 -0.5349
   79SLPC  C213 7284   1.245   2.365   4.860 -0.3425  0.2415 -0.1730
   79SLPC  H13R 7285   1.282   2.467   4.845 -3.0055  1.1452 -1.1439
   79SLPC  C214 7286   1.166   2.300   4.751 -0.3841 -0.0405 -0.5736
   79SLPC  H14R 7287   1.086   2.363   4.707  0.8556  1.8479 -0.2529
   79SLPC  H14S 7288   1.116   2.205   4.781  1.2169 -0.9313 -0.6185
   79SLPC  C215 7289   1.251   2.278   4.624  0.2108  1.0416 -0.6978
   79SLPC  H15R 7290   1.305   2.183   4.640 -0.1918  1.2719  2.8534
   79SLPC  H15S 7291   1.328   2.356   4.604  1.1484  0.3148 -0.0079
   79SLPC  C216 7292   1.170   2.271   4.489 -0.1433  1.4095  0.1134
   79SLPC  H16R 7293   1.092   2.196   4.512  1.9740  0.3909  5.4751
   79SLPC  H16S 7294   1.240   2.229   4.413  0.8260  1.0224  1.1791
   79SLPC  C217 7295   1.090   2.395   4.444 -0.6642  0.4134  0.1639
   79SLPC  H17R 7296   1.012   2.414   4.520 -0.3738 -1.2375  0.9252
   79SLPC  H17S 7297   1.029   2.384   4.352  1.0080 -0.6726 -0.8668
   79SLPC  C218 7298   1.169   2.522   4.440 -0.0276  0.3174  0.2402
   79SLPC  H18R 7299   1.118   2.618   4.419  1.3470  0.7678 -1.3519
   79SLPC  H18S 7300   1.248   2.513   4.362 -0.7572  1.4827 -0.6599
   79SLPC  H18T 7301   1.216   2.551   4.537  4.1290  1.1627 -1.7716
   79SLPC   C33 7302   1.235   2.507   6.051  0.4103 -0.1310 -0.0206
   79SLPC   H3X 7303   1.173   2.517   6.142 -0.8574  0.3716 -0.9051
   79SLPC   H3Y 7304   1.246   2.402   6.018 -0.4280  0.4650 -2.4771
   79SLPC   C34 7305   1.179   2.583   5.927 -0.1245  1.2199  0.6416
   79SLPC   H4X 7306   1.214   2.688   5.928 -0.0767  1.2116  0.0880
   79SLPC   H4Y 7307   1.068   2.575   5.938 -0.0843  0.4420  0.5325
   79SLPC   C35 7308   1.214   2.511   5.789  0.1420 -0.1071  0.8080
   79SLPC   H5X 7309   1.155   2.417   5.792 -1.4089  0.7339 -0.8700
   79SLPC   H5Y 7310   1.324   2.499   5.795  0.1361  0.1423  1.7066
   79SLPC   C36 7311   1.166   2.582   5.665 -0.2971 -0.3336 -0.6294
   79SLPC   H6X 7312   1.208   2.684   5.653  0.4859 -0.7834 -1.9396
   79SLPC   H6Y 7313   1.058   2.610   5.673 -0.2692 -0.3873 -0.0155
   79SLPC   C37 7314   1.184   2.504   5.530 -0.2823  0.5051 -0.5622
   79SLPC   H7X 7315   1.100   2.432   5.522 -2.2379  2.6855 -0.9461
   79SLPC   H7Y 7316   1.280   2.449   5.525 -0.8208 -0.3499 -2.0893
   79SLPC   C38 7317   1.172   2.603   5.407  0.3603  0.2935 -0.8212
   79SLPC   H8X 7318   1.270   2.655   5.395 -0.7327  2.7572  0.3092
   79SLPC   H8Y 7319   1.100   2.679   5.444 -0.4478 -1.1032  0.5974
   79SLPC   C39 7320   1.125   2.541   5.279 -0.1359  0.6642  0.0291
   79SLPC   H9X 7321   1.039   2.472   5.290  0.6478 -0.7556 -2.1969
   79SLPC   H9Y 7322   1.202   2.473   5.238 -1.2032 -1.4312  1.2949
   79SLPC  C310 7323   1.095   2.651   5.175  0.0591 -0.1159  0.1600
   79SLPC  H10X 7324   1.190   2.698   5.143  1.0342 -0.4596  2.3226
   79SLPC  H10Y 7325   1.039   2.730   5.231  2.4047 -0.2330  2.9045
   79SLPC  C311 7326   1.013   2.605   5.055  0.4086  0.7183  0.7999
   79SLPC  H11X 7327   0.903   2.602   5.074  0.3236 -0.7327  0.2443
   79SLPC  H11Y 7328   1.038   2.501   5.026 -2.4951  0.3615 -0.8855
   79SLPC  C312 7329   1.038   2.683   4.919  0.3780 -0.4092 -1.1292
   79SLPC  H12X 7330   1.145   2.655   4.905  0.2015 -1.8477  0.0949
   79SLPC  H12Y 7331   1.026   2.790   4.947 -1.8605 -0.8700 -0.0835
   79SLPC  C313 7332   0.945   2.657   4.798 -0.4204  1.0822  0.1349
   79SLPC  H13X 7333   0.842   2.676   4.834 -1.8203  0.7945 -3.3277
   79SLPC  H13Y 7334   0.965   2.558   4.752  0.2451  1.0087  0.5695
   79SLPC  C314 7335   0.977   2.751   4.684 -0.4651  0.1692  0.2328
   79SLPC  H14X 7336   1.085   2.741   4.657  0.0906 -0.7226  2.5712
   79SLPC  H14Y 7337   0.972   2.852   4.729 -1.0142 -0.1346  0.8661
   79SLPC  C315 7338   0.874   2.749   4.561 -0.0884 -0.6064  0.5800
   79SLPC  H15X 7339   0.772   2.740   4.605 -1.1999 -0.6312 -1.8835
   79SLPC  H15Y 7340   0.882   2.648   4.515 -1.3494 -1.4475  2.0936
   79SLPC  C316 7341   0.887   2.856   4.453  0.4831  0.0115  0.7047
   79SLPC  H16X 7342   0.992   2.851   4.419  1.1704 -3.7538  2.8237
   79SLPC  H16Y 7343   0.868   2.960   4.487  1.8297  0.8606 -1.0190
   79SLPC  C317 7344   0.793   2.825   4.334 -0.2846 -0.2169  0.5982
   79SLPC  H17X 7345   0.688   2.815   4.369 -1.3837  0.6726 -2.2070
   79SLPC  H17Y 7346   0.829   2.730   4.289  1.1382 -0.3056  1.8193
   79SLPC  C318 7347   0.798   2.929   4.219 -0.1472 -0.3461 -0.4842
   79SLPC  H18X 7348   0.766   3.028   4.258 -0.4871 -1.5202  2.4738
   79SLPC  H18Y 7349   0.725   2.909   4.138  1.3782  0.4987 -2.1407
   79SLPC  H18Z 7350   0.898   2.915   4.172 -0.7297 -1.5249 -1.4231
   80SLPC     N 7351   0.010   4.876   6.881 -0.3926  0.8055  0.0928
   80SLPC   C13 7352  -0.001   4.842   6.739  0.0073 -0.3477 -0.4335
   80SLPC  H13A 7353  -0.092   4.871   6.689 -1.7774 -0.0977  2.7403
   80SLPC  H13B 7354   0.084   4.875   6.680 -0.1637 -1.0139 -1.0641
   80SLPC  H13C 7355   0.006   4.735   6.731  0.0075 -0.4177  0.4910
   80SLPC   C14 7356   0.127   4.799   6.934 -0.4532  0.4309  0.3293
   80SLPC  H14A 7357   0.228   4.829   6.909  0.8860 -5.1303 -2.4669
   80SLPC  H14B 7358   0.122   4.798   7.042 -1.0618  0.0896  0.3005
   80SLPC  H14C 7359   0.125   4.696   6.902 -0.0924  0.7503 -0.7638
   80SLPC   C15 7360  -0.115   4.820   6.948 -0.8156 -0.1143  0.0902
   80SLPC  H15A 7361  -0.195   4.845   6.881 -0.1139  2.6583  0.1423
   80SLPC  H15B 7362  -0.109   4.713   6.945  2.5531 -0.0462  0.4951
   80SLPC  H15C 7363  -0.135   4.840   7.052  0.0430 -1.3678  0.5218
   80SLPC   C12 7364   0.019   5.024   6.904  0.5511  0.2343  0.1459
   80SLPC  H12A 7365   0.043   5.048   7.006 -0.1444  0.1784  0.3260
   80SLPC  H12B 7366  -0.073   5.071   6.871  1.0638  0.1140 -1.6011
   80SLPC   C11 7367   0.133   5.101   6.829 -0.0852 -0.3192  0.5270
   80SLPC  H11A 7368   0.228   5.043   6.829 -0.2039 -0.6195 -1.8340
   80SLPC  H11B 7369   0.153   5.197   6.881  1.3104  0.8467 -2.0115
   80SLPC     P 7370   0.036   5.251   6.641  0.0704 -0.2400 -0.2971
   80SLPC   O13 7371  -0.101   5.274   6.696  0.1298  0.0174  0.0731
   80SLPC   O14 7372   0.133   5.359   6.642 -0.1103 -0.0203 -0.4963
   80SLPC   O12 7373   0.092   5.116   6.697  0.2223 -0.4270  0.1379
   80SLPC   O11 7374   0.018   5.216   6.492  0.4484 -0.3270 -0.0293
   80SLPC    C1 7375  -0.052   5.103   6.442  0.3819 -0.2847 -0.3240
   80SLPC    HA 7376  -0.024   5.015   6.503  0.7278 -1.3592 -1.9751
   80SLPC    HB 7377  -0.160   5.128   6.441  0.0201 -1.7645 -1.7815
   80SLPC    C2 7378  -0.009   5.081   6.298 -0.4139  1.1590  0.0325
   80SLPC    HS 7379   0.095   5.046   6.313 -1.6724 -3.8989 -1.1665
   80SLPC   O21 7380  -0.024   5.211   6.237 -0.0523  0.4097  0.4745
   80SLPC   C21 7381   0.042   5.214   6.117  0.8179  0.4007  0.1233
   80SLPC   O22 7382   0.107   5.123   6.068 -0.0070  0.1615 -0.7359
   80SLPC   C22 7383   0.029   5.357   6.051 -0.0113  0.2163  0.0862
   80SLPC   H2R 7384   0.018   5.428   6.136 -0.6861 -0.4202  0.5451
   80SLPC   H2S 7385   0.121   5.370   5.990  0.1861 -3.1888 -0.5383
   80SLPC    C3 7386  -0.092   4.964   6.225  0.4169  0.3554 -0.8014
   80SLPC    HX 7387  -0.139   4.903   6.305 -2.5173  1.3546 -1.6607
   80SLPC    HY 7388  -0.018   4.900   6.173  1.6372  0.1029  1.1204
   80SLPC   O31 7389  -0.189   5.007   6.137  0.1879 -0.7403  0.4232
   80SLPC   C31 7390  -0.308   5.047   6.188 -0.2972  0.3159  0.4942
   80SLPC   O32 7391  -0.350   5.020   6.298  0.2016 -0.1232  0.3147
   80SLPC   C32 7392  -0.387   5.127   6.088  0.9638 -0.9703  0.6774
   80SLPC   H2X 7393  -0.441   5.061   6.017  2.2120  0.0820 -1.3324
   80SLPC   H2Y 7394  -0.316   5.192   6.033 -1.5279  0.0147 -1.5754
   80SLPC   C23 7395  -0.101   5.377   5.956 -0.5413  0.4191 -0.4105
   80SLPC   H3R 7396  -0.107   5.485   5.928 -1.0437  0.9301  1.5450
   80SLPC   H3S 7397  -0.189   5.361   6.022  0.2183  0.5477  0.6566
   80SLPC   C24 7398  -0.099   5.283   5.842 -0.2100  0.6320 -0.3204
   80SLPC   H4R 7399  -0.085   5.180   5.880  1.6070  1.0305  0.1575
   80SLPC   H4S 7400  -0.012   5.305   5.777  1.0784  1.9899  1.7429
   80SLPC   C25 7401  -0.223   5.281   5.755  0.5895  0.2134 -0.4181
   80SLPC   H5R 7402  -0.239   5.378   5.704 -0.8359  0.8210  1.0728
   80SLPC   H5S 7403  -0.316   5.256   5.810  1.1207 -0.9160  0.0079
   80SLPC   C26 7404  -0.198   5.171   5.647 -0.3593 -0.0761  0.6969
   80SLPC   H6R 7405  -0.163   5.075   5.692  2.2920 -0.2151 -1.3980
   80SLPC   H6S 7406  -0.104   5.204   5.597 -0.0971 -2.0415 -0.2158
   80SLPC   C27 7407  -0.321   5.154   5.549  0.3776  0.6438  0.0256
   80SLPC   H7R 7408  -0.410   5.184   5.608 -1.4811 -1.5314 -1.4864
   80SLPC   H7S 7409  -0.337   5.044   5.542 -1.6401  0.7608  1.7053
   80SLPC   C28 7410  -0.301   5.217   5.414  0.7835 -0.7231  0.8884
   80SLPC   H8R 7411  -0.213   5.179   5.358  1.1627  2.6882 -1.1437
   80SLPC   H8S 7412  -0.287   5.327   5.410  1.6650 -0.8552 -0.0244
   80SLPC   C29 7413  -0.424   5.182   5.329 -0.8331 -0.6734 -0.2329
   80SLPC   H9R 7414  -0.509   5.249   5.353  2.2724  3.0659  1.4968
   80SLPC  C210 7415  -0.436   5.099   5.226  0.9268  0.0001  0.1398
   80SLPC  H10R 7416  -0.537   5.093   5.182  0.5625 -0.3690  0.9935
   80SLPC  C211 7417  -0.329   4.998   5.178 -0.3553 -0.5355  0.3241
   80SLPC  H11R 7418  -0.377   4.900   5.158 -0.9593 -0.1167 -0.3221
   80SLPC  H11S 7419  -0.255   4.982   5.259  0.9606 -1.9549 -1.0956
   80SLPC  C212 7420  -0.258   5.060   5.059  0.0191 -0.5587  0.0195
   80SLPC  H12R 7421  -0.206   5.156   5.074 -1.4930  0.6533 -2.0837
   80SLPC  C213 7422  -0.266   5.017   4.934 -0.9525  0.0173 -0.4989
   80SLPC  H13R 7423  -0.204   5.069   4.860  0.6314  1.2326  1.5457
   80SLPC  C214 7424  -0.339   4.893   4.887  0.5366  0.4872  0.2688
   80SLPC  H14R 7425  -0.341   4.805   4.956 -3.2567 -0.7119 -1.0887
   80SLPC  H14S 7426  -0.286   4.852   4.798 -0.4948  0.0634 -0.1777
   80SLPC  C215 7427  -0.490   4.930   4.853  0.1966  0.3974  0.0496
   80SLPC  H15R 7428  -0.533   4.981   4.942 -1.2947  1.1195 -1.0382
   80SLPC  H15S 7429  -0.549   4.837   4.839  2.6820 -1.1720 -0.5596
   80SLPC  C216 7430  -0.511   5.019   4.733  0.7639 -0.7951 -0.2198
   80SLPC  H16R 7431  -0.467   5.119   4.750 -2.1294  0.4771  0.2820
   80SLPC  H16S 7432  -0.621   5.035   4.735  1.0063  1.1908  2.4880
   80SLPC  C217 7433  -0.462   4.974   4.596  0.3031  0.3429  0.3875
   80SLPC  H17R 7434  -0.522   4.885   4.566  1.3436 -0.5570  0.9095
   80SLPC  H17S 7435  -0.359   4.933   4.593 -0.3388 -1.3197 -1.5596
   80SLPC  C218 7436  -0.491   5.077   4.485 -0.1682 -0.3424 -0.1148
   80SLPC  H18R 7437  -0.595   5.064   4.449 -0.3596 -0.6038  0.5040
   80SLPC  H18S 7438  -0.427   5.052   4.398  0.1192 -0.2575  0.0698
   80SLPC  H18T 7439  -0.477   5.184   4.511 -0.2772 -0.2193 -0.5614
   80SLPC   C33 7440  -0.486   5.218   6.160  0.0455 -0.6873  0.0063
   80SLPC   H3X 7441  -0.439   5.284   6.235  2.0968 -0.0537 -1.7621
   80SLPC   H3Y 7442  -0.568   5.155   6.202  0.1490 -1.4586 -0.9010
   80SLPC   C34 7443  -0.555   5.315   6.060 -1.0567 -0.1632  0.9665
   80SLPC   H4X 7444  -0.472   5.356   5.999 -0.5288  0.3142  1.9704
   80SLPC   H4Y 7445  -0.608   5.394   6.118 -0.7975  0.4432  0.3880
   80SLPC   C35 7446  -0.658   5.242   5.971  0.5097 -1.2113 -0.5492
   80SLPC   H5X 7447  -0.730   5.195   6.040 -0.6502  0.0322 -0.8657
   80SLPC   H5Y 7448  -0.606   5.168   5.906  0.4691 -1.2493 -0.5382
   80SLPC   C36 7449  -0.720   5.358   5.886  0.6126  0.4198  0.3439
   80SLPC   H6X 7450  -0.782   5.433   5.940  3.2775  1.6886  1.8425
   80SLPC   H6Y 7451  -0.791   5.299   5.824  0.3066 -1.6901  2.5310
   80SLPC   C37 7452  -0.632   5.411   5.771 -0.7142  0.0411  0.2137
   80SLPC   H7X 7453  -0.579   5.336   5.709 -0.8311  1.6716 -2.0213
   80SLPC   H7Y 7454  -0.552   5.480   5.806  0.5799 -1.8642  1.1702
   80SLPC   C38 7455  -0.710   5.495   5.664  0.4901 -0.2685  0.3121
   80SLPC   H8X 7456  -0.769   5.581   5.702  0.1079  1.0957 -3.0541
   80SLPC   H8Y 7457  -0.783   5.430   5.611 -1.3220  1.8001  0.0987
   80SLPC   C39 7458  -0.619   5.558   5.553  0.9402  0.2771  0.8019
   80SLPC   H9X 7459  -0.576   5.475   5.493 -1.9894 -1.0777  0.4181
   80SLPC   H9Y 7460  -0.543   5.626   5.596  0.2136  0.7981  1.2916
   80SLPC  C310 7461  -0.723   5.612   5.452  0.8089  0.1289  0.5667
   80SLPC  H10X 7462  -0.778   5.698   5.496 -1.7577  0.1017 -2.2639
   80SLPC  H10Y 7463  -0.792   5.530   5.425  1.4271  0.4985 -2.4215
   80SLPC  C311 7464  -0.666   5.658   5.315  0.4130  0.2836 -0.3751
   80SLPC  H11X 7465  -0.603   5.573   5.282  0.4735 -0.0618  0.6318
   80SLPC  H11Y 7466  -0.606   5.752   5.323 -1.8009  1.7120  0.4041
   80SLPC  C312 7467  -0.764   5.691   5.204 -0.2774 -0.0151 -0.0745
   80SLPC  H12X 7468  -0.839   5.763   5.244 -0.9046 -0.7653  0.1087
   80SLPC  H12Y 7469  -0.820   5.602   5.167 -0.2191  0.2046 -0.7098
   80SLPC  C313 7470  -0.691   5.766   5.087  0.9632 -0.8605 -0.1198
   80SLPC  H13X 7471  -0.659   5.868   5.118 -1.4316 -0.3170  0.8588
   80SLPC  H13Y 7472  -0.769   5.777   5.008  0.0988 -1.4014  0.6354
   80SLPC  C314 7473  -0.572   5.691   5.025  0.0759  0.0798 -0.3176
   80SLPC  H14X 7474  -0.590   5.581   5.027 -0.7907  0.2283  0.4606
   80SLPC  H14Y 7475  -0.497   5.702   5.107 -2.4055 -1.4479  2.3360
   80SLPC  C315 7476  -0.544   5.738   4.891 -0.5430  0.4214 -0.5262
   80SLPC  H15X 7477  -0.541   5.847   4.873  2.1782  0.1725 -2.2149
   80SLPC  H15Y 7478  -0.625   5.702   4.824  0.1106  2.5414 -2.5904
   80SLPC  C316 7479  -0.410   5.697   4.825  0.4716  0.1641 -0.6861
   80SLPC  H16X 7480  -0.409   5.587   4.814 -0.4072  0.1676 -0.8549
   80SLPC  H16Y 7481  -0.334   5.728   4.899 -0.8590  3.4630 -0.5324
   80SLPC  C317 7482  -0.385   5.749   4.684 -0.1002  0.1779  0.9156
   80SLPC  H17X 7483  -0.382   5.860   4.681  1.2351  0.1384 -1.4042
   80SLPC  H17Y 7484  -0.461   5.711   4.612  0.2840  1.1031  0.0028
   80SLPC  C318 7485  -0.248   5.691   4.632  0.5596  0.0967  0.6614
   80SLPC  H18X 7486  -0.251   5.672   4.523 -0.0372  0.4814  0.6012
   80SLPC  H18Y 7487  -0.237   5.586   4.665 -1.7710 -1.0479 -1.8514
   80SLPC  H18Z 7488  -0.166   5.761   4.658  0.2281 -0.0534  2.1925
   81SLPC     N 7489   4.176   4.147   1.704 -0.4018 -0.3947  0.0900
   81SLPC   C13 7490   4.305   4.219   1.679 -0.5489 -0.4358  0.3681
   81SLPC  H13A 7491   4.346   4.273   1.763  0.1589  0.7535 -0.7147
   81SLPC  H13B 7492   4.389   4.153   1.664 -0.5517 -0.3310 -0.1160
   81SLPC  H13C 7493   4.296   4.287   1.596 -0.8466 -0.1051  0.6662
   81SLPC   C14 7494   4.179   4.108   1.852  0.2654  0.0043  0.0320
   81SLPC  H14A 7495   4.131   4.180   1.917  1.6104 -0.6376  1.8310
   81SLPC  H14B 7496   4.125   4.016   1.872  1.0692 -0.5664 -0.3844
   81SLPC  H14C 7497   4.284   4.111   1.877  0.1687  2.1063  0.4030
   81SLPC   C15 7498   4.165   4.030   1.620 -0.2219 -0.2211 -0.7900
   81SLPC  H15A 7499   4.248   3.964   1.635 -1.3661 -1.5828 -0.1997
   81SLPC  H15B 7500   4.069   3.983   1.635  0.2828 -0.4947  2.0706
   81SLPC  H15C 7501   4.180   4.063   1.518  1.1572  0.7796 -0.2967
   81SLPC   C12 7502   4.060   4.234   1.671  0.1381  0.2690  0.0643
   81SLPC  H12A 7503   3.966   4.180   1.673  0.9967 -1.2693  1.8572
   81SLPC  H12B 7504   4.076   4.277   1.573 -1.7116  0.0659 -0.3739
   81SLPC   C11 7505   4.030   4.356   1.767 -0.5614  0.2525  0.8651
   81SLPC  H11A 7506   3.965   4.426   1.711 -1.5851 -1.0544  0.3883
   81SLPC  H11B 7507   4.126   4.409   1.786 -1.6854  2.7263 -0.0155
   81SLPC     P 7508   3.810   4.267   1.876  0.2686 -0.0217 -0.0822
   81SLPC   O13 7509   3.765   4.238   1.739 -0.2187  0.3846 -0.1477
   81SLPC   O14 7510   3.787   4.159   1.978 -0.1171 -0.1577 -0.2351
   81SLPC   O12 7511   3.965   4.305   1.878  0.8430  0.1863  0.3102
   81SLPC   O11 7512   3.733   4.400   1.918 -0.1185 -0.0793  0.3344
   81SLPC    C1 7513   3.799   4.522   1.948 -0.3392 -0.1377  0.2296
   81SLPC    HA 7514   3.888   4.541   1.884 -1.1205 -1.2103 -1.2578
   81SLPC    HB 7515   3.716   4.592   1.925 -1.4660 -1.7262 -0.7554
   81SLPC    C2 7516   3.833   4.539   2.096 -0.3905 -0.4562 -0.8848
   81SLPC    HS 7517   3.920   4.471   2.104 -0.6589 -0.7178 -0.1201
   81SLPC   O21 7518   3.718   4.498   2.182 -0.2253  0.3331  0.3730
   81SLPC   C21 7519   3.756   4.439   2.291 -0.1931  0.1687 -0.1581
   81SLPC   O22 7520   3.866   4.388   2.311  0.2654  0.1680 -0.5614
   81SLPC   C22 7521   3.633   4.422   2.379  0.4930 -0.3642 -0.3781
   81SLPC   H2R 7522   3.569   4.512   2.368  2.8783  1.3060 -1.4307
   81SLPC   H2S 7523   3.579   4.328   2.354  0.4388 -0.8392  1.3426
   81SLPC    C3 7524   3.880   4.684   2.125 -0.0538  0.3676 -0.0628
   81SLPC    HX 7525   3.816   4.753   2.067  1.3271  2.1490  0.4368
   81SLPC    HY 7526   3.980   4.714   2.086 -0.2003  2.0897  0.8079
   81SLPC   O31 7527   3.871   4.712   2.261 -0.3604 -0.2573  0.2703
   81SLPC   C31 7528   3.989   4.691   2.327  0.2335  0.3966  0.4330
   81SLPC   O32 7529   4.080   4.632   2.279 -0.5793 -0.2523 -0.1076
   81SLPC   C32 7530   3.991   4.734   2.472  0.3738  0.0126  0.3257
   81SLPC   H2X 7531   3.920   4.669   2.526 -0.3294  0.2347 -0.3166
   81SLPC   H2Y 7532   3.966   4.842   2.479 -1.7462 -0.4566  0.6107
   81SLPC   C23 7533   3.672   4.421   2.527 -0.3105 -0.2279 -0.4470
   81SLPC   H3R 7534   3.719   4.516   2.560  0.8027 -1.1246  0.6414
   81SLPC   H3S 7535   3.755   4.350   2.546 -0.5993 -0.2110  0.9482
   81SLPC   C24 7536   3.555   4.395   2.623 -0.7666  0.2368  0.1769
   81SLPC   H4R 7537   3.481   4.477   2.614  1.4208  2.2995 -0.1022
   81SLPC   H4S 7538   3.595   4.403   2.727 -0.1540 -1.7922  0.1482
   81SLPC   C25 7539   3.492   4.248   2.614  0.4354 -0.0404  1.2642
   81SLPC   H5R 7540   3.570   4.175   2.583  0.6431 -0.1821  2.1032
   81SLPC   H5S 7541   3.421   4.245   2.528 -1.1504  1.0925  2.4822
   81SLPC   C26 7542   3.438   4.213   2.752 -0.3555  0.5806  0.6663
   81SLPC   H6R 7543   3.520   4.222   2.826 -1.0745  0.0600  1.5372
   81SLPC   H6S 7544   3.400   4.109   2.754  1.5606 -0.1925 -0.2752
   81SLPC   C27 7545   3.327   4.302   2.805  0.0364  0.4931 -0.1892
   81SLPC   H7R 7546   3.250   4.286   2.727  0.1958 -2.4205  0.1194
   81SLPC   H7S 7547   3.363   4.407   2.809  3.0352 -0.4453  1.3069
   81SLPC   C28 7548   3.283   4.250   2.946  0.0087 -0.0108  0.1752
   81SLPC   H8R 7549   3.230   4.338   2.988 -2.1738 -0.7064 -0.9595
   81SLPC   H8S 7550   3.372   4.243   3.012  0.5847 -0.6812 -0.6471
   81SLPC   C29 7551   3.200   4.128   2.937  0.7772  0.2695 -0.2550
   81SLPC   H9R 7552   3.139   4.116   2.846  1.5523  1.8178 -1.0156
   81SLPC  C210 7553   3.194   4.036   3.037  0.1983  0.1798  0.7358
   81SLPC  H10R 7554   3.130   3.948   3.018  0.1419 -0.2477  2.6705
   81SLPC  C211 7555   3.248   4.041   3.177  0.3092  0.3976  0.5527
   81SLPC  H11R 7556   3.358   4.052   3.167  0.2560 -0.6514 -1.8682
   81SLPC  H11S 7557   3.237   3.939   3.219  1.2947  0.1769  0.2968
   81SLPC  C212 7558   3.188   4.147   3.266  0.4626 -0.7176 -0.5193
   81SLPC  H12R 7559   3.121   4.222   3.220  0.4162 -0.1127  0.5157
   81SLPC  C213 7560   3.209   4.167   3.397 -0.5908 -0.5216 -0.1419
   81SLPC  H13R 7561   3.152   4.247   3.447 -1.1200 -1.8197  1.3858
   81SLPC  C214 7562   3.286   4.087   3.493  0.1990  0.2262 -0.1613
   81SLPC  H14R 7563   3.368   4.154   3.527  0.8018  0.1981 -1.4757
   81SLPC  H14S 7564   3.339   3.998   3.453  1.1734  1.3430 -1.4367
   81SLPC  C215 7565   3.203   4.046   3.618  0.4012  0.7444 -0.2989
   81SLPC  H15R 7566   3.250   3.962   3.673 -1.5830 -1.5929 -1.9939
   81SLPC  H15S 7567   3.105   4.008   3.584  2.0347 -2.1913 -2.1713
   81SLPC  C216 7568   3.188   4.171   3.713 -0.2920  0.6487  0.4200
   81SLPC  H16R 7569   3.128   4.144   3.802  0.1759  1.1168  0.8852
   81SLPC  H16S 7570   3.131   4.249   3.658  0.8873  1.7270  0.6935
   81SLPC  C217 7571   3.316   4.243   3.770  0.2974  0.1989  0.6162
   81SLPC  H17R 7572   3.277   4.317   3.843 -1.2554 -1.0363  1.1170
   81SLPC  H17S 7573   3.361   4.302   3.688 -1.3479  3.1137  1.6564
   81SLPC  C218 7574   3.415   4.154   3.841 -0.8682 -0.2365 -0.0320
   81SLPC  H18R 7575   3.370   4.130   3.940 -0.3164  0.3223  0.3618
   81SLPC  H18S 7576   3.505   4.215   3.863 -1.1986  0.1849  0.1585
   81SLPC  H18T 7577   3.436   4.061   3.783 -0.5216 -0.2542  0.1156
   81SLPC   C33 7578   4.133   4.706   2.537 -0.1477 -0.2032  0.3249
   81SLPC   H3X 7579   4.216   4.752   2.479  0.2034 -0.3021  0.7326
   81SLPC   H3Y 7580   4.151   4.596   2.533 -1.2832 -0.3571 -1.2004
   81SLPC   C34 7581   4.142   4.769   2.675 -1.0954  0.2502  0.0054
   81SLPC   H4X 7582   4.154   4.877   2.656 -1.0786  0.0706 -1.1094
   81SLPC   H4Y 7583   4.239   4.757   2.727  0.8920  1.0333 -3.1901
   81SLPC   C35 7584   4.016   4.779   2.765 -0.2977 -0.1599 -0.0353
   81SLPC   H5X 7585   3.950   4.690   2.761 -1.1905  0.5198 -0.6877
   81SLPC   H5Y 7586   3.945   4.860   2.738 -3.1502 -0.9379  4.1016
   81SLPC   C36 7587   4.059   4.804   2.912  0.3447  0.3822 -0.4883
   81SLPC   H6X 7588   4.111   4.902   2.913 -2.3145  1.9128 -0.4692
   81SLPC   H6Y 7589   4.127   4.727   2.955 -2.0440 -0.6550  1.7281
   81SLPC   C37 7590   3.937   4.832   3.000  0.4048 -0.5875  0.3287
   81SLPC   H7X 7591   3.852   4.765   2.975  1.7510 -2.1770 -0.1440
   81SLPC   H7Y 7592   3.907   4.939   2.989  1.0149 -0.5808 -1.7474
   81SLPC   C38 7593   3.975   4.803   3.150 -0.1042 -1.1248  0.8168
   81SLPC   H8X 7594   4.077   4.843   3.167  0.4046 -0.1417 -3.3137
   81SLPC   H8Y 7595   3.981   4.693   3.162 -0.0587 -1.0102  1.9406
   81SLPC   C39 7596   3.881   4.862   3.255  0.6232 -0.3903 -0.1460
   81SLPC   H9X 7597   3.785   4.805   3.259  1.7720 -2.3415  0.8921
   81SLPC   H9Y 7598   3.862   4.966   3.219  2.1156 -0.2882 -0.6858
   81SLPC  C310 7599   3.931   4.861   3.403  0.1159 -0.4639  0.4950
   81SLPC  H10X 7600   3.953   4.758   3.437 -0.0714 -0.5397  0.3891
   81SLPC  H10Y 7601   3.854   4.904   3.472 -0.9835 -0.3789 -0.7391
   81SLPC  C311 7602   4.055   4.948   3.433  0.3030 -0.3440  0.0139
   81SLPC  H11X 7603   4.061   5.035   3.364  1.5742 -0.0929  0.4148
   81SLPC  H11Y 7604   4.137   4.880   3.401  2.4133  2.7946 -1.8702
   81SLPC  C312 7605   4.082   4.977   3.589  0.0123 -0.6722  0.4203
   81SLPC  H12X 7606   4.009   5.030   3.653  0.0656 -2.2642  1.8857
   81SLPC  H12Y 7607   4.175   5.038   3.582 -0.9520  0.6710 -1.8523
   81SLPC  C313 7608   4.117   4.845   3.654  0.3787  0.1830 -0.0778
   81SLPC  H13X 7609   4.199   4.803   3.591  0.8486  3.4248 -1.8315
   81SLPC  H13Y 7610   4.031   4.775   3.649  0.0612  0.5716 -0.0149
   81SLPC  C314 7611   4.185   4.858   3.787 -0.2916 -0.0114 -0.0099
   81SLPC  H14X 7612   4.116   4.903   3.861 -0.3541 -1.7450  1.0467
   81SLPC  H14Y 7613   4.274   4.924   3.773 -0.9044  0.2830 -3.1942
   81SLPC  C315 7614   4.211   4.721   3.852  0.0488  0.4657 -0.2607
   81SLPC  H15X 7615   4.123   4.656   3.832  0.4711  0.0205 -0.6995
   81SLPC  H15Y 7616   4.220   4.738   3.961  0.4542  0.7821 -0.3400
   81SLPC  C316 7617   4.333   4.667   3.790 -0.0566 -0.2383 -0.3394
   81SLPC  H16X 7618   4.342   4.694   3.683  2.5588  0.3125 -0.0385
   81SLPC  H16Y 7619   4.335   4.556   3.793 -2.7886 -0.3282  1.5639
   81SLPC  C317 7620   4.460   4.712   3.848 -0.0511 -0.0127  0.2595
   81SLPC  H17X 7621   4.461   4.679   3.954  0.4863 -1.1442 -0.0826
   81SLPC  H17Y 7622   4.460   4.823   3.847  0.5616 -0.0130 -0.1842
   81SLPC  C318 7623   4.587   4.662   3.769 -0.3818  0.6215 -0.3539
   81SLPC  H18X 7624   4.681   4.676   3.826  0.8722 -0.1666 -2.1229
   81SLPC  H18Y 7625   4.607   4.711   3.672 -0.1436  1.1406 -0.0455
   81SLPC  H18Z 7626   4.581   4.551   3.760 -0.6327  0.7387 -1.8089
   82SLPC     N 7627   0.138   3.702   2.224 -0.2341  0.5070 -0.5188
   82SLPC   C13 7628   0.249   3.627   2.297 -0.1280  0.9717 -0.1916
   82SLPC  H13A 7629   0.322   3.693   2.339 -0.0532  0.2684  0.8207
   82SLPC  H13B 7630   0.205   3.571   2.378  0.4261 -2.1629 -1.8842
   82SLPC  H13C 7631   0.304   3.555   2.238  1.3533  0.2784  1.9231
   82SLPC   C14 7632   0.036   3.600   2.181  0.3532  0.1838 -0.3531
   82SLPC  H14A 7633  -0.052   3.641   2.134 -0.3969 -0.1938  0.6781
   82SLPC  H14B 7634   0.087   3.534   2.113  0.9635 -1.0484  1.2304
   82SLPC  H14C 7635  -0.003   3.539   2.261  1.3185 -0.6742 -0.5255
   82SLPC   C15 7636   0.193   3.772   2.105  0.3066 -0.8240  0.4031
   82SLPC  H15A 7637   0.231   3.705   2.029 -0.2443  0.2896 -0.9047
   82SLPC  H15B 7638   0.121   3.838   2.058  1.7810  0.7223  0.2355
   82SLPC  H15C 7639   0.270   3.846   2.121  0.4151 -0.2322 -2.3183
   82SLPC   C12 7640   0.077   3.803   2.316  0.5698  0.5979 -0.0970
   82SLPC  H12A 7641   0.041   3.752   2.404  0.0720 -1.5272 -1.4522
   82SLPC  H12B 7642  -0.010   3.837   2.263  0.4736 -1.7704 -1.6044
   82SLPC   C11 7643   0.160   3.926   2.346 -0.7845  0.0034 -0.6721
   82SLPC  H11A 7644   0.270   3.917   2.351 -0.5578  2.2429 -0.6922
   82SLPC  H11B 7645   0.128   3.961   2.447 -2.6904 -1.9629 -0.5102
   82SLPC     P 7646   0.206   4.155   2.228 -0.0210  0.1325  0.0192
   82SLPC   O13 7647   0.300   4.135   2.121  0.1640 -1.2271 -0.4864
   82SLPC   O14 7648   0.119   4.273   2.221  0.1101  0.9354 -1.0729
   82SLPC   O12 7649   0.128   4.018   2.246 -0.0190  0.0055  0.3884
   82SLPC   O11 7650   0.296   4.151   2.358 -0.2640  0.0077  0.2845
   82SLPC    C1 7651   0.268   4.219   2.479 -0.2484 -0.0292 -0.4425
   82SLPC    HA 7652   0.291   4.327   2.464 -0.9538 -0.1031 -2.4154
   82SLPC    HB 7653   0.160   4.214   2.505  0.3652 -1.4550  2.1982
   82SLPC    C2 7654   0.348   4.166   2.603 -0.2256 -0.1494  0.1705
   82SLPC    HS 7655   0.459   4.167   2.593 -0.0823 -3.3719  0.5277
   82SLPC   O21 7656   0.300   4.032   2.634  0.1652 -0.2477  0.1499
   82SLPC   C21 7657   0.384   3.936   2.614 -0.3686  0.6924 -1.0167
   82SLPC   O22 7658   0.502   3.940   2.576  0.1133  0.7368 -0.2936
   82SLPC   C22 7659   0.304   3.810   2.648  0.1737  0.3335 -0.2282
   82SLPC   H2R 7660   0.212   3.832   2.706  0.1322 -3.5318  1.4500
   82SLPC   H2S 7661   0.265   3.767   2.553 -0.0836  3.6038 -1.7538
   82SLPC    C3 7662   0.324   4.265   2.714 -0.4953  0.2875 -0.2315
   82SLPC    HX 7663   0.214   4.263   2.734 -0.2210 -1.5161  1.3363
   82SLPC    HY 7664   0.337   4.370   2.677 -2.7941  0.0972 -1.8720
   82SLPC   O31 7665   0.395   4.240   2.839  0.1678  0.0106  0.3374
   82SLPC   C31 7666   0.522   4.257   2.826 -0.4787 -0.7030 -1.0734
   82SLPC   O32 7667   0.572   4.313   2.732  0.0672 -0.5114  0.1977
   82SLPC   C32 7668   0.597   4.193   2.942 -0.6479 -0.0237  0.3208
   82SLPC   H2X 7669   0.673   4.265   2.980 -0.4057  0.0879 -0.3504
   82SLPC   H2Y 7670   0.654   4.104   2.907 -1.6511 -1.3410  1.9158
   82SLPC   C23 7671   0.395   3.710   2.727  0.6491 -0.1997  0.7365
   82SLPC   H3R 7672   0.479   3.689   2.657  1.1829 -1.8484  1.8308
   82SLPC   H3S 7673   0.336   3.616   2.738  0.4460 -0.0565  0.8799
   82SLPC   C24 7674   0.443   3.756   2.866  0.3128  0.2907 -0.2856
   82SLPC   H4R 7675   0.508   3.845   2.851  1.3924 -0.5397 -0.7543
   82SLPC   H4S 7676   0.501   3.677   2.918 -1.4330 -0.7170  0.2042
   82SLPC   C25 7677   0.333   3.798   2.968  0.9221 -0.2867  0.1339
   82SLPC   H5R 7678   0.236   3.754   2.938 -0.8221  2.8227  0.8145
   82SLPC   H5S 7679   0.323   3.908   2.984 -2.5605 -0.7067  1.6372
   82SLPC   C26 7680   0.345   3.721   3.108 -0.4381 -0.3220  0.5982
   82SLPC   H6R 7681   0.431   3.759   3.168 -0.9177 -1.0777  1.7960
   82SLPC   H6S 7682   0.385   3.620   3.084 -3.8359 -1.2569 -1.9035
   82SLPC   C27 7683   0.224   3.712   3.195 -0.1139  0.3365 -0.2843
   82SLPC   H7R 7684   0.133   3.686   3.136  0.5158 -0.4576 -0.9356
   82SLPC   H7S 7685   0.219   3.817   3.231 -0.1425  0.7990 -1.5726
   82SLPC   C28 7686   0.236   3.618   3.318  0.6030 -0.3595  0.7024
   82SLPC   H8R 7687   0.231   3.510   3.292  1.6622 -0.7455  2.0359
   82SLPC   H8S 7688   0.138   3.642   3.364  0.1356 -1.0008  0.0761
   82SLPC   C29 7689   0.355   3.646   3.408  0.0621 -0.8138 -0.4828
   82SLPC   H9R 7690   0.454   3.649   3.361 -0.0224 -0.5669 -0.6452
   82SLPC  C210 7691   0.350   3.628   3.542  0.0253 -0.2136 -0.8696
   82SLPC  H10R 7692   0.441   3.649   3.601 -0.6316  0.9794 -0.2442
   82SLPC  C211 7693   0.230   3.603   3.627  0.1445  0.4039  0.4066
   82SLPC  H11R 7694   0.248   3.508   3.681 -1.2006 -0.4844 -0.6444
   82SLPC  H11S 7695   0.141   3.584   3.564 -1.2246  0.8553  2.1527
   82SLPC  C212 7696   0.214   3.725   3.709  0.0137 -0.3684 -0.4232
   82SLPC  H12R 7697   0.219   3.821   3.655  0.2886  0.3904  0.9263
   82SLPC  C213 7698   0.188   3.721   3.838  0.3071  0.2550  1.2162
   82SLPC  H13R 7699   0.190   3.814   3.896  0.7038  0.7179  0.4765
   82SLPC  C214 7700   0.178   3.596   3.920 -0.1941 -0.0793 -0.2492
   82SLPC  H14R 7701   0.253   3.522   3.885  1.5982  0.6438  1.8893
   82SLPC  H14S 7702   0.083   3.541   3.901 -0.7027  0.7926 -0.2749
   82SLPC  C215 7703   0.192   3.610   4.073 -0.2788 -0.5292 -0.0951
   82SLPC  H15R 7704   0.189   3.513   4.128 -1.5806 -0.0034  0.8038
   82SLPC  H15S 7705   0.101   3.662   4.108  0.4474  1.7389 -1.3871
   82SLPC  C216 7706   0.333   3.674   4.100 -0.0721 -0.7522  0.1961
   82SLPC  H16R 7707   0.335   3.777   4.058  2.3168 -0.8032  0.0674
   82SLPC  H16S 7708   0.414   3.617   4.051 -0.4506  0.8424 -2.4878
   82SLPC  C217 7709   0.378   3.689   4.249  0.0454 -0.1736  0.3924
   82SLPC  H17R 7710   0.488   3.698   4.236  0.1131 -1.6280 -0.2650
   82SLPC  H17S 7711   0.356   3.600   4.311 -2.9431 -0.0373 -0.3295
   82SLPC  C218 7712   0.324   3.817   4.317  0.0391 -0.9164  0.3218
   82SLPC  H18R 7713   0.375   3.812   4.416 -1.2575 -2.2257  0.9440
   82SLPC  H18S 7714   0.214   3.815   4.327 -0.3340  0.5434 -2.3981
   82SLPC  H18T 7715   0.362   3.912   4.274  1.3429 -2.4549 -2.1340
   82SLPC   C33 7716   0.511   4.156   3.061  0.2193  0.6891  0.2341
   82SLPC   H3X 7717   0.454   4.063   3.038  2.0299  0.1290 -2.4807
   82SLPC   H3Y 7718   0.424   4.219   3.089 -0.1102  1.1087 -1.6309
   82SLPC   C34 7719   0.586   4.102   3.186 -0.2948 -0.0642 -0.1534
   82SLPC   H4X 7720   0.644   4.189   3.224  1.8538 -1.8020  0.7890
   82SLPC   H4Y 7721   0.644   4.009   3.167 -1.8669 -0.9403 -0.8446
   82SLPC   C35 7722   0.484   4.079   3.302  0.0939 -0.1458  0.0045
   82SLPC   H5X 7723   0.430   3.984   3.281  0.0955 -0.4810  1.4536
   82SLPC   H5Y 7724   0.405   4.157   3.307 -1.0525 -1.3239  1.1983
   82SLPC   C36 7725   0.555   4.075   3.436  0.5517 -0.6061  0.4095
   82SLPC   H6X 7726   0.628   4.158   3.430  0.7486 -0.8142 -0.1287
   82SLPC   H6Y 7727   0.606   3.976   3.444 -0.0225 -0.8071  1.8809
   82SLPC   C37 7728   0.463   4.107   3.553  0.0621  0.4500  0.0439
   82SLPC   H7X 7729   0.389   4.025   3.553  1.4060 -0.8011  0.2395
   82SLPC   H7Y 7730   0.405   4.200   3.532  0.2965  0.4281 -0.7640
   82SLPC   C38 7731   0.537   4.110   3.691  0.3485  0.1710 -0.1843
   82SLPC   H8X 7732   0.588   4.208   3.696  0.4065  0.1211  0.2471
   82SLPC   H8Y 7733   0.619   4.034   3.687 -0.1779 -0.3578 -1.6206
   82SLPC   C39 7734   0.432   4.104   3.803  0.3338  0.2212  0.1211
   82SLPC   H9X 7735   0.375   4.009   3.796 -0.4580  0.7329 -0.5874
   82SLPC   H9Y 7736   0.356   4.185   3.796 -1.1684 -1.2471 -2.1109
   82SLPC  C310 7737   0.502   4.125   3.940  0.1618 -0.6097 -0.0985
   82SLPC  H10X 7738   0.543   4.228   3.949  0.0290 -0.5113 -0.5888
   82SLPC  H10Y 7739   0.587   4.054   3.947  0.3665 -0.5739 -1.8170
   82SLPC  C311 7740   0.405   4.104   4.061 -0.8652  0.0606  0.8446
   82SLPC  H11X 7741   0.367   3.999   4.058  1.1751 -0.8191  3.0002
   82SLPC  H11Y 7742   0.325   4.181   4.055 -1.6741 -0.8715 -2.4886
   82SLPC  C312 7743   0.493   4.127   4.186 -0.3501  0.2311 -0.1343
   82SLPC  H12X 7744   0.567   4.208   4.173  1.1990 -1.3987 -2.1910
   82SLPC  H12Y 7745   0.550   4.037   4.219 -0.4687  0.2212  0.0457
   82SLPC  C313 7746   0.415   4.188   4.305  0.0041  1.1428  0.4801
   82SLPC  H13X 7747   0.331   4.117   4.323 -0.3389  1.7064  1.1147
   82SLPC  H13Y 7748   0.365   4.286   4.289  0.3641  1.0263 -1.6252
   82SLPC  C314 7749   0.495   4.185   4.433 -0.2927  0.0627  0.4735
   82SLPC  H14X 7750   0.593   4.235   4.422  0.2381 -1.1824 -0.5994
   82SLPC  H14Y 7751   0.519   4.084   4.471 -2.1034 -0.7101 -0.3136
   82SLPC  C315 7752   0.405   4.243   4.545  0.1165  0.2839  0.4229
   82SLPC  H15X 7753   0.316   4.179   4.560 -1.5821  2.6579  1.0334
   82SLPC  H15Y 7754   0.351   4.338   4.523 -0.4915 -0.5059 -1.8263
   82SLPC  C316 7755   0.481   4.253   4.678  0.0450 -0.3110 -0.0019
   82SLPC  H16X 7756   0.561   4.326   4.656  0.2409 -0.2422  0.8782
   82SLPC  H16Y 7757   0.522   4.152   4.700  0.1546 -0.5147 -1.0775
   82SLPC  C317 7758   0.380   4.298   4.788 -0.2236 -0.4459 -0.6727
   82SLPC  H17X 7759   0.316   4.208   4.802 -0.0461 -0.7840 -1.9219
   82SLPC  H17Y 7760   0.325   4.383   4.743 -1.0843 -0.5831  0.0836
   82SLPC  C318 7761   0.446   4.342   4.922  0.4192 -0.3884  0.2155
   82SLPC  H18X 7762   0.390   4.306   5.011  1.5628 -2.8236  0.0374
   82SLPC  H18Y 7763   0.468   4.450   4.936 -0.3089 -0.3238  0.9201
   82SLPC  H18Z 7764   0.545   4.293   4.927  0.8885  0.6859  2.6106
   83SLPC     N 7765   2.664   4.558   1.703  0.0728  0.5015  0.6667
   83SLPC   C13 7766   2.650   4.695   1.637  0.1155 -0.8817 -1.0591
   83SLPC  H13A 7767   2.696   4.768   1.703 -2.4666 -1.3979  1.5320
   83SLPC  H13B 7768   2.695   4.697   1.539  3.8519 -1.4081  0.4544
   83SLPC  H13C 7769   2.546   4.725   1.640  0.5979  0.8273  0.9112
   83SLPC   C14 7770   2.812   4.515   1.691  0.1614 -0.2623  0.0102
   83SLPC  H14A 7771   2.849   4.504   1.590  0.6282  0.0753  0.1423
   83SLPC  H14B 7772   2.867   4.592   1.743 -0.1999 -0.2064  0.3139
   83SLPC  H14C 7773   2.811   4.420   1.742  0.3963  0.1786  0.8484
   83SLPC   C15 7774   2.572   4.468   1.629 -0.2482  0.6219  0.2971
   83SLPC  H15A 7775   2.597   4.366   1.655  0.2681  1.4456  3.5312
   83SLPC  H15B 7776   2.469   4.483   1.658 -0.2637 -0.7101  1.0149
   83SLPC  H15C 7777   2.582   4.486   1.523 -1.0161 -0.7918 -0.0380
   83SLPC   C12 7778   2.631   4.559   1.851 -0.2521  0.7391  0.3457
   83SLPC  H12A 7779   2.656   4.460   1.887  1.6344  1.3685  0.8556
   83SLPC  H12B 7780   2.527   4.583   1.870  0.4472  2.0431  2.8584
   83SLPC   C11 7781   2.705   4.645   1.946  0.6758 -0.0001 -0.2384
   83SLPC  H11A 7782   2.813   4.621   1.949  0.6580 -0.0031  1.0061
   83SLPC  H11B 7783   2.681   4.617   2.051  2.0976  0.2635  0.1845
   83SLPC     P 7784   2.549   4.842   1.960  0.1883 -0.2961  0.3645
   83SLPC   O13 7785   2.528   4.962   1.878 -0.2062 -0.3936 -0.2774
   83SLPC   O14 7786   2.441   4.747   1.954 -0.7130  0.5452  0.1549
   83SLPC   O12 7787   2.690   4.782   1.921 -0.1439  0.0749 -0.0155
   83SLPC   O11 7788   2.567   4.881   2.114 -0.2902 -0.3917 -0.6736
   83SLPC    C1 7789   2.698   4.903   2.169  0.5721  0.2638 -0.3068
   83SLPC    HA 7790   2.784   4.901   2.098  1.0639  0.8546  0.2664
   83SLPC    HB 7791   2.698   4.998   2.227  1.3324 -1.3511  2.5427
   83SLPC    C2 7792   2.726   4.792   2.270 -0.0548 -0.2757 -0.3850
   83SLPC    HS 7793   2.663   4.703   2.249 -1.7703  1.0368 -1.0999
   83SLPC   O21 7794   2.692   4.850   2.402  0.0993  0.3786 -0.0459
   83SLPC   C21 7795   2.645   4.773   2.489 -0.5037 -0.1079 -0.7188
   83SLPC   O22 7796   2.625   4.654   2.479 -0.0395 -0.4586  0.2992
   83SLPC   C22 7797   2.597   4.850   2.619 -0.1560  0.7676  0.6405
   83SLPC   H2R 7798   2.670   4.934   2.625  1.1730 -0.1333 -1.7061
   83SLPC   H2S 7799   2.494   4.885   2.595 -0.3812  0.6011  1.3317
   83SLPC    C3 7800   2.876   4.751   2.270 -0.0336 -0.4474 -0.5340
   83SLPC    HX 7801   2.936   4.844   2.266  1.5469 -1.4642 -2.0869
   83SLPC    HY 7802   2.898   4.693   2.178  2.4106  0.0513 -0.3411
   83SLPC   O31 7803   2.910   4.673   2.381 -0.2794  0.0172 -0.3113
   83SLPC   C31 7804   3.010   4.693   2.463 -0.3100 -0.2574  0.1454
   83SLPC   O32 7805   3.095   4.772   2.449 -0.5700 -0.1563 -0.3960
   83SLPC   C32 7806   2.990   4.613   2.591 -0.9651  1.2308 -0.2637
   83SLPC   H2X 7807   3.043   4.515   2.580 -0.1186  1.6926 -0.3914
   83SLPC   H2Y 7808   2.882   4.590   2.606 -0.5486 -3.0466 -2.1500
   83SLPC   C23 7809   2.587   4.771   2.749  0.4584 -0.1769  0.3943
   83SLPC   H3R 7810   2.676   4.705   2.759  1.4991  0.6151 -2.5973
   83SLPC   H3S 7811   2.494   4.711   2.743 -0.7850  1.7887 -1.3960
   83SLPC   C24 7812   2.573   4.860   2.876 -0.7567 -0.4130 -0.7829
   83SLPC   H4R 7813   2.467   4.892   2.884 -0.3394  0.8243 -0.0203
   83SLPC   H4S 7814   2.629   4.953   2.850 -2.0745  1.5922  2.8409
   83SLPC   C25 7815   2.620   4.791   3.001 -0.3824  0.6378 -0.7049
   83SLPC   H5R 7816   2.726   4.762   2.988 -0.3938  0.3266 -0.1432
   83SLPC   H5S 7817   2.568   4.693   3.000 -2.2337  1.5027  1.8814
   83SLPC   C26 7818   2.595   4.855   3.139 -0.2977  0.2700  0.2265
   83SLPC   H6R 7819   2.597   4.775   3.216  1.8743 -0.2968 -0.3682
   83SLPC   H6S 7820   2.495   4.903   3.145 -0.4963 -0.2777  1.8176
   83SLPC   C27 7821   2.683   4.975   3.167 -0.5839 -0.6125  0.1826
   83SLPC   H7R 7822   2.657   5.054   3.094 -0.3097 -1.3302 -0.7137
   83SLPC   H7S 7823   2.789   4.943   3.156 -1.0587 -2.0519 -0.5086
   83SLPC   C28 7824   2.666   5.041   3.314 -0.5029 -0.0707 -0.2891
   83SLPC   H8R 7825   2.661   4.958   3.388 -0.8775  0.4951  0.3274
   83SLPC   H8S 7826   2.565   5.087   3.318 -0.8870 -0.9146  0.1005
   83SLPC   C29 7827   2.780   5.128   3.344  0.6147  0.5049 -0.0035
   83SLPC   H9R 7828   2.805   5.204   3.268 -1.5191  1.4597  0.1945
   83SLPC  C210 7829   2.869   5.116   3.448 -0.3000  0.4988 -0.1495
   83SLPC  H10R 7830   2.948   5.193   3.453  0.8871 -0.6956  0.3427
   83SLPC  C211 7831   2.857   5.023   3.572  0.0924 -0.9768  0.3887
   83SLPC  H11R 7832   2.838   4.924   3.524 -1.9046  0.8712 -2.9662
   83SLPC  H11S 7833   2.765   5.052   3.626 -0.9713 -1.4896 -1.0904
   83SLPC  C212 7834   2.970   5.007   3.663 -0.2855 -0.3112  0.3306
   83SLPC  H12R 7835   3.070   5.038   3.629 -0.2659  1.2932  1.6980
   83SLPC  C213 7836   2.949   4.962   3.789 -0.2159 -0.2035  0.0082
   83SLPC  H13R 7837   3.040   4.944   3.847 -1.1966 -1.2773  1.2619
   83SLPC  C214 7838   2.815   4.925   3.856 -0.6885 -1.0894 -0.2086
   83SLPC  H14R 7839   2.824   4.820   3.891  1.6168 -1.3535 -1.3767
   83SLPC  H14S 7840   2.724   4.915   3.793 -0.8375 -0.3633 -0.1171
   83SLPC  C215 7841   2.789   5.015   3.987  0.9267  0.3029  0.3063
   83SLPC  H15R 7842   2.783   5.116   3.942  2.8854  0.3214 -0.0018
   83SLPC  H15S 7843   2.872   5.008   4.061 -0.3878 -0.6516  1.7631
   83SLPC  C216 7844   2.654   4.968   4.059 -0.5421 -0.2035 -0.1534
   83SLPC  H16R 7845   2.565   4.976   3.994 -1.0470  2.6562  0.7164
   83SLPC  H16S 7846   2.636   5.041   4.141  0.2132 -0.8707  0.6255
   83SLPC  C217 7847   2.666   4.830   4.120 -0.0414 -0.5316  0.4397
   83SLPC  H17R 7848   2.740   4.840   4.202 -1.6827  1.8211  1.7366
   83SLPC  H17S 7849   2.725   4.755   4.062  0.4041  0.1283  0.0315
   83SLPC  C218 7850   2.529   4.782   4.174 -0.0454  0.2163  0.4488
   83SLPC  H18R 7851   2.463   4.867   4.203 -1.6544 -0.6671 -0.5244
   83SLPC  H18S 7852   2.535   4.703   4.252  1.0860  0.1082  0.2668
   83SLPC  H18T 7853   2.466   4.745   4.091 -1.7057  0.0087  1.7479
   83SLPC   C33 7854   3.039   4.688   2.718 -0.3746  0.0807 -0.1106
   83SLPC   H3X 7855   2.986   4.786   2.724  1.6756  1.2327  0.1079
   83SLPC   H3Y 7856   3.141   4.721   2.690 -0.0043 -0.5046  0.5289
   83SLPC   C34 7857   3.045   4.609   2.844 -0.3125  0.2270 -0.2113
   83SLPC   H4X 7858   3.131   4.539   2.842 -0.0459  0.4687  1.1953
   83SLPC   H4Y 7859   2.950   4.552   2.849  0.2251 -0.6315  0.4941
   83SLPC   C35 7860   3.061   4.687   2.977  0.4888  0.0757  0.4956
   83SLPC   H5X 7861   2.987   4.768   2.990 -0.5550 -0.9190  0.9436
   83SLPC   H5Y 7862   3.164   4.728   2.979  0.1084  1.0161  1.0009
   83SLPC   C36 7863   3.044   4.601   3.103  0.4442 -0.2497 -0.9589
   83SLPC   H6X 7864   3.099   4.505   3.101  0.9673  0.0304 -0.3977
   83SLPC   H6Y 7865   2.936   4.582   3.125  1.1820  0.1872  4.6668
   83SLPC   C37 7866   3.099   4.671   3.229  0.1344 -0.5788  0.2081
   83SLPC   H7X 7867   3.038   4.762   3.249  0.5376  0.4899 -2.8208
   83SLPC   H7Y 7868   3.199   4.711   3.200  0.2946 -0.0706  1.3965
   83SLPC   C38 7869   3.130   4.587   3.357  0.6625 -0.3201 -0.1127
   83SLPC   H8X 7870   3.218   4.526   3.326  0.3141 -0.5589 -0.6481
   83SLPC   H8Y 7871   3.037   4.529   3.378  0.3250 -0.2397 -1.3229
   83SLPC   C39 7872   3.162   4.685   3.475  0.1521  0.3422 -0.3189
   83SLPC   H9X 7873   3.076   4.755   3.486  1.3019  2.3204 -2.8212
   83SLPC   H9Y 7874   3.254   4.735   3.438 -1.1545  2.9661 -0.3275
   83SLPC  C310 7875   3.189   4.612   3.613  0.0511 -0.7882  0.2686
   83SLPC  H10X 7876   3.220   4.688   3.688 -2.0671 -1.0240  1.4740
   83SLPC  H10Y 7877   3.276   4.548   3.590 -0.2813 -0.6422 -1.4907
   83SLPC  C311 7878   3.085   4.526   3.674  0.2822 -0.1532 -0.0428
   83SLPC  H11X 7879   3.134   4.463   3.751  0.9159  1.9179  1.3378
   83SLPC  H11Y 7880   3.045   4.458   3.595 -1.4780 -0.7431  1.2851
   83SLPC  C312 7881   2.976   4.610   3.740 -0.4688  0.4889  0.4949
   83SLPC  H12X 7882   2.929   4.678   3.666 -1.3332  1.6812  2.0757
   83SLPC  H12Y 7883   3.014   4.663   3.830 -0.2048  1.7475 -0.3255
   83SLPC  C313 7884   2.855   4.525   3.781  0.3596 -0.0992 -0.3439
   83SLPC  H13X 7885   2.814   4.471   3.693 -0.5024 -2.3196  1.3374
   83SLPC  H13Y 7886   2.771   4.590   3.811 -0.8408 -1.4742 -0.5851
   83SLPC  C314 7887   2.892   4.412   3.880  0.2922 -0.2149  0.7191
   83SLPC  H14X 7888   2.905   4.452   3.982  0.6788 -1.3369  1.1299
   83SLPC  H14Y 7889   2.986   4.364   3.843  0.5610  1.3140 -0.7090
   83SLPC  C315 7890   2.790   4.301   3.887 -0.0712  0.1119 -0.0443
   83SLPC  H15X 7891   2.814   4.224   3.963 -2.2183 -2.0155 -1.3480
   83SLPC  H15Y 7892   2.796   4.242   3.792  0.9433 -2.7653  1.6810
   83SLPC  C316 7893   2.642   4.341   3.899  0.2058  0.7654  0.1665
   83SLPC  H16X 7894   2.588   4.244   3.888 -1.9450  1.8820  0.3774
   83SLPC  H16Y 7895   2.602   4.406   3.818 -1.0783  1.1175  1.0469
   83SLPC  C317 7896   2.594   4.385   4.034 -0.4645 -0.8557  0.0957
   83SLPC  H17X 7897   2.621   4.492   4.051 -0.5707 -0.6999 -0.6927
   83SLPC  H17Y 7898   2.634   4.325   4.119 -0.1865 -0.1554  0.4668
   83SLPC  C318 7899   2.441   4.380   4.045  0.2896  0.1285 -0.0752
   83SLPC  H18X 7900   2.404   4.275   4.045 -0.2823  0.3234 -0.6091
   83SLPC  H18Y 7901   2.402   4.420   3.949 -0.1033  0.6082  0.2782
   83SLPC  H18Z 7902   2.387   4.432   4.126 -2.9439 -1.6069 -0.9533
   84SLPC     N 7903   1.348   1.631   1.583 -0.9564  1.0012  0.4702
   84SLPC   C13 7904   1.380   1.486   1.564  0.0293  0.5503  0.4369
   84SLPC  H13A 7905   1.441   1.453   1.647  1.7464 -1.3202 -1.4505
   84SLPC  H13B 7906   1.292   1.423   1.554 -0.8259  1.7360  0.2646
   84SLPC  H13C 7907   1.437   1.476   1.473 -0.3636  0.4757  0.1954
   84SLPC   C14 7908   1.255   1.647   1.698  0.3449  0.1151 -0.3922
   84SLPC  H14A 7909   1.158   1.602   1.678  0.5676 -0.7040  0.2876
   84SLPC  H14B 7910   1.290   1.588   1.782 -0.3951 -0.1404 -0.2510
   84SLPC  H14C 7911   1.238   1.751   1.720  0.4837  0.3361 -1.2902
   84SLPC   C15 7912   1.273   1.681   1.460  0.0066 -0.7631 -0.3098
   84SLPC  H15A 7913   1.174   1.640   1.453  0.9173 -2.8443 -2.4164
   84SLPC  H15B 7914   1.271   1.789   1.467 -1.0523 -0.8558  0.9879
   84SLPC  H15C 7915   1.320   1.655   1.366  0.3817  3.5057 -1.4941
   84SLPC   C12 7916   1.476   1.704   1.585 -0.3549  0.1774 -0.5545
   84SLPC  H12A 7917   1.516   1.707   1.484 -1.4784  0.4464 -1.0090
   84SLPC  H12B 7918   1.546   1.649   1.646 -0.3967 -3.2193 -3.2595
   84SLPC   C11 7919   1.484   1.849   1.626  0.1205 -0.1227  0.3630
   84SLPC  H11A 7920   1.395   1.901   1.584  1.5059  0.2662 -2.3482
   84SLPC  H11B 7921   1.574   1.897   1.581 -0.5438 -0.0106 -0.8845
   84SLPC     P 7922   1.538   1.995   1.834 -0.1915  0.3258  0.0904
   84SLPC   O13 7923   1.678   2.028   1.789 -0.7945 -0.2655 -0.3188
   84SLPC   O14 7924   1.436   2.103   1.811 -0.3472 -0.1905  0.0084
   84SLPC   O12 7925   1.490   1.852   1.765 -0.1490 -0.4445 -0.1045
   84SLPC   O11 7926   1.548   1.959   1.987 -0.6200  0.7113  0.2242
   84SLPC    C1 7927   1.447   1.995   2.078  0.7065 -0.4406 -0.0973
   84SLPC    HA 7928   1.364   2.053   2.033  0.9245  1.1333  1.3976
   84SLPC    HB 7929   1.398   1.910   2.131 -0.0235 -0.1676 -0.3322
   84SLPC    C2 7930   1.506   2.086   2.190  0.0378  0.0750  0.1285
   84SLPC    HS 7931   1.568   2.161   2.136  1.1461 -2.1679 -1.9183
   84SLPC   O21 7932   1.577   2.001   2.283  0.0761 -0.4455 -0.1181
   84SLPC   C21 7933   1.705   2.022   2.277  0.2645  0.4935  0.3401
   84SLPC   O22 7934   1.762   2.093   2.195 -0.2276  0.1354  0.1109
   84SLPC   C22 7935   1.766   1.962   2.398 -0.2926  0.7913  0.2703
   84SLPC   H2R 7936   1.749   1.852   2.398 -2.8342  1.1271  0.4540
   84SLPC   H2S 7937   1.871   1.996   2.403 -0.0170  0.2847 -1.5571
   84SLPC    C3 7938   1.393   2.158   2.269  1.1059 -1.0103  0.2700
   84SLPC    HX 7939   1.310   2.091   2.302  1.3722 -2.2125 -1.3911
   84SLPC    HY 7940   1.344   2.235   2.206  0.3738 -1.2234  0.5556
   84SLPC   O31 7941   1.442   2.225   2.383 -0.2799 -0.1441  0.5511
   84SLPC   C31 7942   1.352   2.290   2.460 -0.1645 -0.1163 -0.4212
   84SLPC   O32 7943   1.229   2.270   2.451  0.5690  0.5620 -0.3169
   84SLPC   C32 7944   1.423   2.381   2.562 -0.0056  0.1331 -0.4235
   84SLPC   H2X 7945   1.442   2.479   2.514 -0.2149 -1.1121 -3.2580
   84SLPC   H2Y 7946   1.519   2.339   2.599  0.1549  0.0260 -0.9602
   84SLPC   C23 7947   1.699   2.012   2.531 -0.0842  0.7916 -0.4635
   84SLPC   H3R 7948   1.613   1.945   2.555 -0.1568  0.1326 -2.3754
   84SLPC   H3S 7949   1.659   2.114   2.512 -0.5581  1.0411  1.6695
   84SLPC   C24 7950   1.792   2.040   2.652 -0.2223  0.2365 -0.5008
   84SLPC   H4R 7951   1.875   2.110   2.629 -0.8929  1.1633 -0.1439
   84SLPC   H4S 7952   1.834   1.946   2.695 -1.6645  1.1020  3.1371
   84SLPC   C25 7953   1.727   2.112   2.770  0.3820  0.3508 -0.1249
   84SLPC   H5R 7954   1.633   2.058   2.795  0.9993 -1.1136 -0.8659
   84SLPC   H5S 7955   1.706   2.218   2.745  0.5456  1.6835  4.4411
   84SLPC   C26 7956   1.811   2.117   2.894  0.5562 -0.8084 -0.9437
   84SLPC   H6R 7957   1.911   2.164   2.881 -0.2763  1.2578 -0.1831
   84SLPC   H6S 7958   1.806   2.015   2.937 -1.6366 -0.5290 -0.4466
   84SLPC   C27 7959   1.730   2.207   2.992 -0.0143  0.6152 -0.7162
   84SLPC   H7R 7960   1.631   2.158   2.977  0.9686 -1.7068 -0.1257
   84SLPC   H7S 7961   1.716   2.314   2.967  0.4944  0.7630 -0.3918
   84SLPC   C28 7962   1.789   2.193   3.136  0.4205 -0.5222 -0.1189
   84SLPC   H8R 7963   1.897   2.218   3.131  0.6424 -1.4628 -0.2926
   84SLPC   H8S 7964   1.785   2.087   3.170  0.0587 -0.2221  0.8037
   84SLPC   C29 7965   1.724   2.290   3.227  0.3487 -0.0137  0.1428
   84SLPC   H9R 7966   1.736   2.395   3.195  2.1391  0.0494  0.8871
   84SLPC  C210 7967   1.705   2.281   3.362 -0.1798  0.5275 -0.2420
   84SLPC  H10R 7968   1.658   2.364   3.416 -0.2330  3.1286 -3.9073
   84SLPC  C211 7969   1.738   2.158   3.440 -0.1500 -0.8322 -0.0516
   84SLPC  H11R 7970   1.828   2.103   3.403 -1.2079 -1.0959 -2.3959
   84SLPC  H11S 7971   1.657   2.085   3.418  0.7741 -1.3734 -1.8729
   84SLPC  C212 7972   1.751   2.190   3.581 -0.2498  0.1219 -0.5037
   84SLPC  H12R 7973   1.842   2.246   3.606 -0.5133 -0.6743  2.6254
   84SLPC  C213 7974   1.674   2.153   3.684  0.3038 -0.3595 -0.2654
   84SLPC  H13R 7975   1.702   2.185   3.786  1.0344 -0.4546 -0.4311
   84SLPC  C214 7976   1.549   2.074   3.670  0.5693 -0.1002  0.1104
   84SLPC  H14R 7977   1.538   2.020   3.573 -0.0821 -1.5400  0.9542
   84SLPC  H14S 7978   1.459   2.138   3.685  0.9180 -0.1819  2.8897
   84SLPC  C215 7979   1.515   1.974   3.787  0.0034  0.0443 -0.0401
   84SLPC  H15R 7980   1.612   1.921   3.799 -0.5364 -0.8023  0.7868
   84SLPC  H15S 7981   1.426   1.912   3.762 -1.6234  1.8048  1.0921
   84SLPC  C216 7982   1.479   2.039   3.923  0.4827  0.1401 -0.7124
   84SLPC  H16R 7983   1.385   2.096   3.910 -0.6382 -1.2020  1.0981
   84SLPC  H16S 7984   1.553   2.119   3.941  0.9421 -0.6885  1.3809
   84SLPC  C217 7985   1.484   1.945   4.047 -0.0354  0.4123  0.1329
   84SLPC  H17R 7986   1.402   1.869   4.041 -0.7827  0.7413  3.7978
   84SLPC  H17S 7987   1.465   2.005   4.139  2.6570 -0.3958  1.3064
   84SLPC  C218 7988   1.623   1.878   4.076  0.0358  0.0870 -0.0520
   84SLPC  H18R 7989   1.620   1.823   4.172  1.3979 -1.3957 -0.8055
   84SLPC  H18S 7990   1.699   1.958   4.093 -0.2689  0.5226 -0.6811
   84SLPC  H18T 7991   1.644   1.802   3.998 -0.1792 -0.2776  0.2445
   84SLPC   C33 7992   1.339   2.414   2.686  0.1997  0.0212 -1.1546
   84SLPC   H3X 7993   1.315   2.318   2.736 -0.5851  0.8833  0.1820
   84SLPC   H3Y 7994   1.237   2.452   2.663 -1.0336 -2.0150  0.6209
   84SLPC   C34 7995   1.414   2.497   2.790 -0.9836  0.0853 -0.2376
   84SLPC   H4X 7996   1.443   2.600   2.761  1.7721  0.0869  2.0411
   84SLPC   H4Y 7997   1.503   2.439   2.822 -1.4341 -0.2205  0.4819
   84SLPC   C35 7998   1.343   2.514   2.926  0.6979  0.3443 -1.0701
   84SLPC   H5X 7999   1.295   2.415   2.941  0.4317  0.3207 -1.9886
   84SLPC   H5Y 8000   1.262   2.589   2.910 -0.4345 -0.7681 -0.6617
   84SLPC   C36 8001   1.428   2.553   3.048  0.4200 -0.6747 -0.0882
   84SLPC   H6X 8002   1.461   2.657   3.028 -2.6118  0.2394 -0.8467
   84SLPC   H6Y 8003   1.513   2.482   3.048 -2.1669 -4.0302  0.9124
   84SLPC   C37 8004   1.361   2.543   3.186  0.1680 -0.9112  0.0225
   84SLPC   H7X 8005   1.334   2.440   3.218  0.4042 -1.0103 -0.0906
   84SLPC   H7Y 8006   1.272   2.608   3.183  0.8789  0.4251  3.4694
   84SLPC   C38 8007   1.449   2.602   3.290  0.7720  0.7413  0.8332
   84SLPC   H8X 8008   1.491   2.700   3.257  2.1354  0.2549  1.0553
   84SLPC   H8Y 8009   1.532   2.528   3.289 -1.1973 -1.6080  1.5758
   84SLPC   C39 8010   1.379   2.606   3.426 -0.1560 -0.2521  0.9857
   84SLPC   H9X 8011   1.343   2.503   3.443 -0.2745 -0.5507 -0.8643
   84SLPC   H9Y 8012   1.290   2.673   3.418  0.8691  1.0938  0.4362
   84SLPC  C310 8013   1.483   2.659   3.526 -0.1404 -0.3220 -0.1152
   84SLPC  H10X 8014   1.509   2.767   3.515 -0.9958  0.1025  1.6295
   84SLPC  H10Y 8015   1.580   2.606   3.511  0.3675  0.7475 -0.7784
   84SLPC  C311 8016   1.427   2.645   3.665 -0.1447  0.3168 -0.4604
   84SLPC  H11X 8017   1.321   2.674   3.680  0.6499  2.8464  1.0173
   84SLPC  H11Y 8018   1.482   2.706   3.740 -1.6783 -1.1808  2.0331
   84SLPC  C312 8019   1.462   2.503   3.718  0.1397 -0.4427  0.9418
   84SLPC  H12X 8020   1.568   2.484   3.692 -0.3502 -0.4378 -1.2555
   84SLPC  H12Y 8021   1.409   2.421   3.666  2.3384 -2.0581  1.1558
   84SLPC  C313 8022   1.446   2.484   3.863  0.6434  0.7551  0.1330
   84SLPC  H13X 8023   1.490   2.572   3.916 -0.4883  0.8092  1.0355
   84SLPC  H13Y 8024   1.497   2.389   3.889 -0.1411  0.1843 -0.3781
   84SLPC  C314 8025   1.288   2.479   3.895  0.2078 -0.0994 -0.2296
   84SLPC  H14X 8026   1.224   2.444   3.811 -0.0625  0.5961 -0.3218
   84SLPC  H14Y 8027   1.266   2.588   3.898 -2.8444 -0.5962 -1.3069
   84SLPC  C315 8028   1.247   2.408   4.023 -0.4066  1.0093  0.0140
   84SLPC  H15X 8029   1.283   2.479   4.100 -1.4291 -0.7249  2.1840
   84SLPC  H15Y 8030   1.313   2.321   4.040  1.7101  2.4415 -0.5236
   84SLPC  C316 8031   1.096   2.368   4.012 -0.2907 -0.0634 -0.2181
   84SLPC  H16X 8032   1.063   2.325   4.110  0.5565  0.0164  0.1059
   84SLPC  H16Y 8033   1.079   2.289   3.936 -2.2948  0.5822 -0.5096
   84SLPC  C317 8034   0.999   2.482   3.974 -0.7786 -0.1313 -0.0225
   84SLPC  H17X 8035   0.907   2.433   3.934 -2.3305  2.2572  0.4303
   84SLPC  H17Y 8036   1.047   2.543   3.895 -0.7505  0.1017  0.1745
   84SLPC  C318 8037   0.964   2.578   4.087 -0.3659 -1.0563 -0.2320
   84SLPC  H18X 8038   0.868   2.629   4.067 -0.5428 -1.0963  0.4904
   84SLPC  H18Y 8039   1.037   2.661   4.101 -1.0245 -0.6610  0.9177
   84SLPC  H18Z 8040   0.960   2.518   4.180  0.6830 -0.9728 -0.1222
   85SLPC     N 8041   5.936   5.807   2.118 -0.2599  0.3261 -0.2850
   85SLPC   C13 8042   6.086   5.822   2.081  0.4564 -0.4314  0.5567
   85SLPC  H13A 8043   6.110   5.922   2.049 -1.3252 -0.3942 -0.8097
   85SLPC  H13B 8044   6.150   5.798   2.165  2.3084  0.4664 -0.5356
   85SLPC  H13C 8045   6.116   5.746   2.010 -1.9969 -2.7701  1.8284
   85SLPC   C14 8046   5.888   5.662   2.112 -0.4402  0.6012 -0.2237
   85SLPC  H14A 8047   5.948   5.610   2.185 -0.4656  2.1395  0.9428
   85SLPC  H14B 8048   5.782   5.664   2.133 -0.1728  0.9806  1.1700
   85SLPC  H14C 8049   5.916   5.627   2.014 -2.3756 -0.3345 -0.4959
   85SLPC   C15 8050   5.856   5.891   2.019 -0.2028  0.1605  0.0282
   85SLPC  H15A 8051   5.890   5.885   1.917 -3.9220 -1.0665 -1.3168
   85SLPC  H15B 8052   5.753   5.857   2.015 -0.5246  0.6101  2.5525
   85SLPC  H15C 8053   5.854   5.996   2.041  0.4879 -0.2164  2.1542
   85SLPC   C12 8054   5.920   5.866   2.259 -0.4848 -0.0452  0.2081
   85SLPC  H12A 8055   5.816   5.875   2.285 -0.4097  0.8439  0.2387
   85SLPC  H12B 8056   5.953   5.968   2.267  0.6631 -0.1771 -2.0551
   85SLPC   C11 8057   5.984   5.783   2.376 -0.3072 -0.4795 -0.4809
   85SLPC  H11A 8058   5.933   5.684   2.375 -1.2440 -0.0054 -0.2597
   85SLPC  H11B 8059   5.953   5.842   2.465  0.2161  0.3024 -0.8028
   85SLPC     P 8060   6.235   5.854   2.424 -0.0041  0.0359  0.0445
   85SLPC   O13 8061   6.365   5.785   2.404  0.0631  0.2232 -0.3250
   85SLPC   O14 8062   6.212   5.989   2.361  0.3977  0.0621  0.1754
   85SLPC   O12 8063   6.126   5.759   2.361 -0.6240  0.4893  0.0115
   85SLPC   O11 8064   6.203   5.860   2.586  0.4478  0.3449  0.3731
   85SLPC    C1 8065   6.177   5.731   2.651  1.1261 -0.1598  0.0273
   85SLPC    HA 8066   6.074   5.722   2.691  1.5745  0.1916  1.3107
   85SLPC    HB 8067   6.184   5.644   2.582  0.0461 -0.1257 -0.1437
   85SLPC    C2 8068   6.264   5.700   2.776 -0.5260  1.0653 -0.1086
   85SLPC    HS 8069   6.235   5.596   2.801  2.2176 -0.0734 -1.1738
   85SLPC   O21 8070   6.228   5.785   2.882 -0.3774 -0.1524 -0.1454
   85SLPC   C21 8071   6.277   5.745   2.999 -0.0095 -0.3471 -0.4272
   85SLPC   O22 8072   6.309   5.633   3.035  0.5405  0.1225  0.0461
   85SLPC   C22 8073   6.252   5.857   3.093  0.1265 -0.9372  0.9939
   85SLPC   H2R 8074   6.323   5.935   3.060 -0.8579 -0.5544 -0.2870
   85SLPC   H2S 8075   6.151   5.898   3.075  0.1055 -1.3036  0.2128
   85SLPC    C3 8076   6.420   5.712   2.738  0.3302 -0.2479 -0.1042
   85SLPC    HX 8077   6.456   5.815   2.762  0.1351 -0.4277  1.0215
   85SLPC    HY 8078   6.429   5.710   2.627  1.0119  0.2571 -0.0715
   85SLPC   O31 8079   6.501   5.618   2.802 -0.7352  0.2892 -0.5947
   85SLPC   C31 8080   6.615   5.582   2.748  0.2705 -0.3733 -0.4321
   85SLPC   O32 8081   6.667   5.644   2.657 -0.1846 -0.6046 -0.1355
   85SLPC   C32 8082   6.663   5.454   2.809  0.1025  0.6562  0.6029
   85SLPC   H2X 8083   6.737   5.406   2.742 -0.4308  0.1565  0.3624
   85SLPC   H2Y 8084   6.567   5.397   2.806  0.8417 -0.5987 -1.5242
   85SLPC   C23 8085   6.270   5.841   3.245  0.1958 -0.3780 -0.9520
   85SLPC   H3R 8086   6.362   5.780   3.256 -0.5175 -1.7076 -2.0660
   85SLPC   H3S 8087   6.197   5.774   3.296  0.4607 -1.5624 -2.0685
   85SLPC   C24 8088   6.271   5.978   3.321 -0.0223 -0.3505 -0.1687
   85SLPC   H4R 8089   6.163   6.001   3.327  0.1545  1.3255 -2.1502
   85SLPC   H4S 8090   6.319   6.052   3.252  2.0097  0.5219  2.0390
   85SLPC   C25 8091   6.342   5.976   3.453  0.6147  0.0009 -0.2512
   85SLPC   H5R 8092   6.433   5.915   3.437 -0.0190 -0.8380 -0.7503
   85SLPC   H5S 8093   6.368   6.077   3.490 -2.4902  0.7409  0.2622
   85SLPC   C26 8094   6.262   5.901   3.569 -0.2483 -0.1152  0.1943
   85SLPC   H6R 8095   6.217   5.807   3.530 -0.2365 -0.2078  0.4010
   85SLPC   H6S 8096   6.181   5.972   3.599  1.6818  1.5237  1.8222
   85SLPC   C27 8097   6.343   5.873   3.695 -0.1285  0.4947  0.1219
   85SLPC   H7R 8098   6.384   5.962   3.748 -0.3745  0.3696  0.5271
   85SLPC   H7S 8099   6.427   5.809   3.660  0.7588  2.0644 -0.7743
   85SLPC   C28 8100   6.260   5.800   3.806  0.4635 -0.0268 -0.4569
   85SLPC   H8R 8101   6.327   5.769   3.889  1.0006 -0.5887 -1.0823
   85SLPC   H8S 8102   6.220   5.706   3.763 -2.3692  1.0152 -0.2869
   85SLPC   C29 8103   6.147   5.869   3.869  0.6180  0.1844 -0.3702
   85SLPC   H9R 8104   6.125   5.964   3.818 -2.0027 -0.8206 -1.2878
   85SLPC  C210 8105   6.065   5.821   3.960  0.2497 -0.2399 -0.6333
   85SLPC  H10R 8106   5.984   5.885   3.997 -0.4727 -0.9556 -0.9547
   85SLPC  C211 8107   6.077   5.691   4.038  0.2542 -0.3629 -0.1335
   85SLPC  H11R 8108   6.079   5.602   3.971  1.0840 -0.5001  0.0709
   85SLPC  H11S 8109   5.989   5.679   4.106  0.4043 -0.1544  0.0964
   85SLPC  C212 8110   6.207   5.693   4.135  0.1489 -0.2686 -0.4202
   85SLPC  H12R 8111   6.275   5.778   4.119  0.4308 -0.4376 -0.1408
   85SLPC  C213 8112   6.233   5.600   4.228 -0.3372 -0.0563 -0.1706
   85SLPC  H13R 8113   6.335   5.593   4.269  0.3132  2.4190 -1.1220
   85SLPC  C214 8114   6.138   5.482   4.257 -0.0697  0.0291  0.1011
   85SLPC  H14R 8115   6.162   5.392   4.197 -1.1377  0.4970 -1.0807
   85SLPC  H14S 8116   6.030   5.496   4.234 -0.2883 -0.3194  0.8581
   85SLPC  C215 8117   6.142   5.436   4.406 -0.4617  0.0350 -0.5475
   85SLPC  H15R 8118   6.244   5.395   4.426  0.5733  2.7222  0.2267
   85SLPC  H15S 8119   6.082   5.343   4.414  0.9830 -0.9583 -0.8511
   85SLPC  C216 8120   6.116   5.528   4.520 -0.0811 -0.3287  0.1629
   85SLPC  H16R 8121   6.200   5.600   4.531  0.2138 -0.6749  0.1964
   85SLPC  H16S 8122   6.119   5.477   4.618  0.4805  3.3743  2.2777
   85SLPC  C217 8123   5.981   5.599   4.515  0.2970 -0.4871 -0.4741
   85SLPC  H17R 8124   5.912   5.512   4.513 -1.1765  0.6431 -0.2072
   85SLPC  H17S 8125   5.980   5.658   4.420 -1.3736  0.9542  0.3925
   85SLPC  C218 8126   5.973   5.686   4.637 -0.4479 -0.1860 -0.5497
   85SLPC  H18R 8127   6.074   5.730   4.647 -0.1188 -0.6888 -1.5493
   85SLPC  H18S 8128   5.952   5.622   4.726 -1.8090  0.5607 -0.2983
   85SLPC  H18T 8129   5.896   5.765   4.628 -1.6860 -1.1628  0.8504
   85SLPC   C33 8130   6.720   5.462   2.955 -0.2835  0.5659  0.3801
   85SLPC   H3X 8131   6.822   5.504   2.942 -0.2316  0.3086 -0.0381
   85SLPC   H3Y 8132   6.729   5.355   2.980 -0.4922  0.5097  0.2145
   85SLPC   C34 8133   6.624   5.524   3.045 -0.0321 -0.1066  0.1698
   85SLPC   H4X 8134   6.533   5.461   3.062 -2.1924  2.2982 -1.7774
   85SLPC   H4Y 8135   6.573   5.618   3.014  0.9923 -0.0671 -1.4769
   85SLPC   C35 8136   6.687   5.554   3.186 -0.0048 -0.2684  0.6107
   85SLPC   H5X 8137   6.600   5.595   3.242 -1.2292  0.4662 -1.6580
   85SLPC   H5Y 8138   6.770   5.624   3.167  0.0507 -0.6032 -0.4525
   85SLPC   C36 8139   6.733   5.434   3.276 -0.7063  0.0780 -0.5246
   85SLPC   H6X 8140   6.808   5.382   3.213  0.7328 -0.0637  1.2136
   85SLPC   H6Y 8141   6.648   5.362   3.276  0.3667 -1.2564  0.7149
   85SLPC   C37 8142   6.774   5.474   3.414  0.1958 -0.4465  0.5188
   85SLPC   H7X 8143   6.843   5.561   3.413 -1.1162  0.6413 -1.2348
   85SLPC   H7Y 8144   6.814   5.380   3.458 -1.7499 -1.2466  0.6661
   85SLPC   C38 8145   6.663   5.519   3.510 -0.0736 -0.7515 -0.1629
   85SLPC   H8X 8146   6.575   5.458   3.480 -0.2270  0.3232 -2.0794
   85SLPC   H8Y 8147   6.634   5.624   3.487 -0.4346 -0.7850  0.1217
   85SLPC   C39 8148   6.688   5.500   3.668 -0.5453 -0.8839  0.0788
   85SLPC   H9X 8149   6.770   5.571   3.690  0.0754 -2.2312  2.3475
   85SLPC   H9Y 8150   6.729   5.401   3.698 -0.5962 -0.3462  2.0225
   85SLPC  C310 8151   6.557   5.529   3.748  0.0073  0.5153 -0.1027
   85SLPC  H10X 8152   6.489   5.444   3.725  0.5924  0.3021 -1.0879
   85SLPC  H10Y 8153   6.509   5.627   3.728 -0.5589  0.1703 -0.4710
   85SLPC  C311 8154   6.586   5.526   3.896 -0.1404 -0.4754 -0.2562
   85SLPC  H11X 8155   6.496   5.572   3.942  1.1337  1.8638  0.0633
   85SLPC  H11Y 8156   6.675   5.585   3.928 -0.8725 -0.0645  1.0635
   85SLPC  C312 8157   6.591   5.386   3.967 -0.5038  0.3877 -0.2747
   85SLPC  H12X 8158   6.682   5.329   3.938  0.1572  0.3621  1.6808
   85SLPC  H12Y 8159   6.503   5.333   3.925 -1.4972  1.0777  0.8790
   85SLPC  C313 8160   6.608   5.401   4.115  0.6678  0.3515 -0.8357
   85SLPC  H13X 8161   6.531   5.473   4.152  2.0486  0.3727  2.3919
   85SLPC  H13Y 8162   6.705   5.449   4.140  0.5100 -0.0424  0.6463
   85SLPC  C314 8163   6.600   5.267   4.188 -0.2354  0.1668 -0.6814
   85SLPC  H14X 8164   6.656   5.182   4.143 -1.4956 -0.9093 -0.2895
   85SLPC  H14Y 8165   6.494   5.236   4.179  0.4027 -2.2272 -0.7280
   85SLPC  C315 8166   6.644   5.269   4.335  0.3590 -0.5674  1.3639
   85SLPC  H15X 8167   6.745   5.312   4.356  0.5030 -1.0293  1.6247
   85SLPC  H15Y 8168   6.651   5.164   4.371 -2.8824 -0.8578  1.4536
   85SLPC  C316 8169   6.543   5.341   4.419  0.5123 -0.0239  0.1190
   85SLPC  H16X 8170   6.439   5.320   4.387  0.5455 -2.1780  1.2461
   85SLPC  H16Y 8171   6.540   5.452   4.412 -4.7700 -0.0197 -1.4496
   85SLPC  C317 8172   6.549   5.312   4.569  0.2092  0.3510  0.0665
   85SLPC  H17X 8173   6.529   5.204   4.581  1.2836  0.2017  0.7390
   85SLPC  H17Y 8174   6.476   5.377   4.622  2.0520  1.5677  1.2532
   85SLPC  C318 8175   6.687   5.325   4.634 -0.0656 -0.3776  0.2065
   85SLPC  H18X 8176   6.679   5.335   4.744 -0.5571 -1.3577  0.2714
   85SLPC  H18Y 8177   6.733   5.412   4.582 -0.9381 -0.1563 -0.2129
   85SLPC  H18Z 8178   6.748   5.234   4.615 -0.5230 -1.2096  2.4750
   86SLPC     N 8179   0.015   2.013   1.820  0.8169  0.5885 -0.1390
   86SLPC   C13 8180   0.080   1.881   1.811 -0.3525  0.2137  0.0956
   86SLPC  H13A 8181   0.188   1.886   1.811 -0.1082 -2.8905  0.9930
   86SLPC  H13B 8182   0.057   1.817   1.895 -1.2303  0.4973  0.0869
   86SLPC  H13C 8183   0.058   1.828   1.720  0.1173 -4.7078  2.4815
   86SLPC   C14 8184  -0.127   1.996   1.773  0.3725  0.4950 -0.0752
   86SLPC  H14A 8185  -0.180   2.090   1.765 -0.1101  0.2497  0.1827
   86SLPC  H14B 8186  -0.138   1.949   1.676  2.5373  0.2099 -0.2230
   86SLPC  H14C 8187  -0.178   1.922   1.834  2.4704 -1.4620 -0.5746
   86SLPC   C15 8188   0.089   2.116   1.737 -0.3897  0.1788 -0.0696
   86SLPC  H15A 8189   0.123   2.066   1.648 -0.5628  0.0009 -0.0374
   86SLPC  H15B 8190   0.029   2.199   1.702 -0.0258 -0.5176 -2.5126
   86SLPC  H15C 8191   0.169   2.158   1.795 -0.2945 -0.1017  0.0070
   86SLPC   C12 8192   0.002   2.073   1.960 -0.4441 -0.1365  0.1107
   86SLPC  H12A 8193  -0.040   2.171   1.944 -1.7258 -0.9312 -1.8995
   86SLPC  H12B 8194   0.104   2.077   1.996 -0.3015 -3.1113  0.2809
   86SLPC   C11 8195  -0.082   2.004   2.070  0.0584 -0.1485 -0.1032
   86SLPC  H11A 8196  -0.068   2.073   2.157 -1.4622  1.0185 -0.7246
   86SLPC  H11B 8197  -0.042   1.908   2.107 -1.9582 -0.3529  1.7940
   86SLPC     P 8198  -0.335   1.998   2.146 -0.1662 -0.2491 -0.2462
   86SLPC   O13 8199  -0.468   2.034   2.088 -0.1215 -0.0571 -0.7456
   86SLPC   O14 8200  -0.330   1.873   2.224 -0.4942  0.1071  0.0286
   86SLPC   O12 8201  -0.221   1.991   2.029 -0.1440  0.5577  0.0241
   86SLPC   O11 8202  -0.283   2.115   2.246  0.0434  0.5936 -0.2351
   86SLPC    C1 8203  -0.287   2.254   2.218  0.5469 -0.2639  0.4924
   86SLPC    HA 8204  -0.232   2.279   2.125  1.3578 -0.3087  0.9595
   86SLPC    HB 8205  -0.393   2.288   2.219  0.6552  0.1343  2.5451
   86SLPC    C2 8206  -0.212   2.319   2.335  0.8923 -0.4956 -0.0086
   86SLPC    HS 8207  -0.228   2.429   2.324  1.2110 -0.4486  0.0036
   86SLPC   O21 8208  -0.075   2.285   2.329 -0.1091  0.2095 -0.0203
   86SLPC   C21 8209   0.005   2.388   2.349  0.1624  0.5260  0.4971
   86SLPC   O22 8210  -0.022   2.506   2.346  0.2019  0.6903  0.1736
   86SLPC   C22 8211   0.151   2.338   2.360  0.4445  0.2920 -0.6480
   86SLPC   H2R 8212   0.154   2.236   2.316 -2.3979 -0.5759  0.9567
   86SLPC   H2S 8213   0.220   2.407   2.307  1.1786  2.6318  3.0065
   86SLPC    C3 8214  -0.271   2.264   2.468 -0.0315  0.0866  0.2619
   86SLPC    HX 8215  -0.197   2.310   2.537  1.0930  0.1760 -0.9458
   86SLPC    HY 8216  -0.250   2.155   2.473  0.6560  0.2443  1.0535
   86SLPC   O31 8217  -0.398   2.308   2.507  0.0435 -0.5114  0.0400
   86SLPC   C31 8218  -0.490   2.215   2.526  0.1935 -0.6128 -0.0924
   86SLPC   O32 8219  -0.469   2.096   2.525 -0.2243  0.5755 -0.2999
   86SLPC   C32 8220  -0.632   2.281   2.545 -0.8662 -0.4337 -0.4119
   86SLPC   H2X 8221  -0.683   2.233   2.459  1.2262 -0.7359 -1.5513
   86SLPC   H2Y 8222  -0.623   2.391   2.552  1.0251 -0.6204  0.7214
   86SLPC   C23 8223   0.194   2.325   2.513  0.6988  0.5866 -0.1624
   86SLPC   H3R 8224   0.150   2.233   2.557  2.1720  0.5118  1.2615
   86SLPC   H3S 8225   0.160   2.413   2.572  1.7925  0.2236  1.0581
   86SLPC   C24 8226   0.350   2.305   2.525  0.0672 -0.1372 -0.5304
   86SLPC   H4R 8227   0.400   2.398   2.491  1.3792 -0.4360  0.4527
   86SLPC   H4S 8228   0.375   2.224   2.453  0.9127  0.2316 -0.6731
   86SLPC   C25 8229   0.408   2.275   2.665  0.2309  0.3434  0.5557
   86SLPC   H5R 8230   0.382   2.354   2.739  0.2727  0.8483  0.0392
   86SLPC   H5S 8231   0.516   2.283   2.644  0.2622  4.3302  1.3374
   86SLPC   C26 8232   0.367   2.138   2.708  0.3242 -0.2442 -0.0110
   86SLPC   H6R 8233   0.378   2.069   2.622  0.3971  0.3954 -0.5237
   86SLPC   H6S 8234   0.260   2.151   2.736  0.4897 -0.0577  0.5369
   86SLPC   C27 8235   0.441   2.095   2.830  0.2661 -0.3046 -0.5530
   86SLPC   H7R 8236   0.416   2.161   2.916 -0.4998 -1.7122  0.3458
   86SLPC   H7S 8237   0.550   2.108   2.813  0.2463 -0.0212 -0.4769
   86SLPC   C28 8238   0.421   1.941   2.860  0.4430 -0.2708 -0.1604
   86SLPC   H8R 8239   0.497   1.909   2.934  1.5497  0.1249 -1.0990
   86SLPC   H8S 8240   0.450   1.880   2.772  1.1263 -1.5815  0.9341
   86SLPC   C29 8241   0.281   1.918   2.911  0.7237  0.3310 -0.0560
   86SLPC   H9R 8242   0.228   1.852   2.840  2.3621 -2.9591  1.5420
   86SLPC  C210 8243   0.225   1.964   3.024  0.7546  0.4788  0.2013
   86SLPC  H10R 8244   0.121   1.932   3.040  1.2369  0.1319  3.3447
   86SLPC  C211 8245   0.290   2.029   3.141  0.2294  0.2842  0.1598
   86SLPC  H11R 8246   0.238   2.120   3.179  0.9656  0.2634  1.2520
   86SLPC  H11S 8247   0.395   2.042   3.107 -0.7050 -0.3250 -3.3580
   86SLPC  C212 8248   0.295   1.940   3.261 -0.1581 -0.4790 -0.1592
   86SLPC  H12R 8249   0.379   1.870   3.252 -1.6764 -2.1016 -2.8899
   86SLPC  C213 8250   0.210   1.930   3.363  0.4723  0.1984  0.3063
   86SLPC  H13R 8251   0.230   1.857   3.442 -3.2197  0.9690  2.1779
   86SLPC  C214 8252   0.085   2.014   3.390 -1.1543 -0.5552 -0.2302
   86SLPC  H14R 8253   0.000   1.944   3.406 -2.4752  0.6678 -1.5841
   86SLPC  H14S 8254   0.068   2.064   3.292  0.8676 -0.6072 -0.6509
   86SLPC  C215 8255   0.131   2.104   3.505  0.6238  0.6401 -0.0052
   86SLPC  H15R 8256   0.231   2.150   3.492  0.7319  1.3947  2.9251
   86SLPC  H15S 8257   0.113   2.047   3.599  1.7689 -0.2800 -0.3258
   86SLPC  C216 8258   0.042   2.226   3.511  0.8625 -0.4113  0.2600
   86SLPC  H16R 8259   0.045   2.278   3.412 -1.4647 -0.7956 -0.0697
   86SLPC  H16S 8260   0.073   2.298   3.590  1.3788 -0.9477  0.5482
   86SLPC  C217 8261  -0.112   2.198   3.539 -0.2409 -0.5883  0.2814
   86SLPC  H17R 8262  -0.125   2.138   3.631 -1.8211 -0.1008  0.4069
   86SLPC  H17S 8263  -0.166   2.151   3.455 -1.7545  0.2632  0.7472
   86SLPC  C218 8264  -0.165   2.337   3.569  0.2644 -0.1754 -0.7305
   86SLPC  H18R 8265  -0.133   2.412   3.494  2.1892  0.0064  0.2102
   86SLPC  H18S 8266  -0.142   2.384   3.668  3.4439 -1.7304 -0.6138
   86SLPC  H18T 8267  -0.274   2.339   3.551  0.4396 -2.0823 -2.2494
   86SLPC   C33 8268  -0.699   2.234   2.684  0.4154 -0.0112 -0.3106
   86SLPC   H3X 8269  -0.702   2.124   2.693 -0.8812 -0.0388 -0.7926
   86SLPC   H3Y 8270  -0.805   2.268   2.674  0.7663  1.1044 -0.4478
   86SLPC   C34 8271  -0.631   2.293   2.812  0.4290 -0.3023  0.2305
   86SLPC   H4X 8272  -0.625   2.404   2.812  0.8773 -0.2851 -1.6993
   86SLPC   H4Y 8273  -0.524   2.264   2.816  0.6877  0.8044  3.0228
   86SLPC   C35 8274  -0.709   2.248   2.937 -0.0786 -0.5006 -0.2951
   86SLPC   H5X 8275  -0.648   2.268   3.027 -0.4320  1.1116 -0.3845
   86SLPC   H5Y 8276  -0.734   2.140   2.938 -0.3364 -0.4796 -1.9567
   86SLPC   C36 8277  -0.845   2.336   2.964 -0.6502 -0.9565 -0.3652
   86SLPC   H6X 8278  -0.918   2.313   2.884 -0.2660 -0.1285 -0.9698
   86SLPC   H6Y 8279  -0.813   2.442   2.958  0.8412 -1.4462 -2.5990
   86SLPC   C37 8280  -0.913   2.305   3.096 -0.3110 -0.3093  0.3282
   86SLPC   H7X 8281  -0.920   2.195   3.109  2.0094 -0.6744 -1.0642
   86SLPC   H7Y 8282  -1.021   2.331   3.097  0.3141  2.7734  1.9944
   86SLPC   C38 8283  -0.848   2.369   3.229 -0.3802  0.0244 -0.2967
   86SLPC   H8X 8284  -0.864   2.477   3.210  0.4110  0.0257 -0.9902
   86SLPC   H8Y 8285  -0.738   2.364   3.220 -0.4869 -2.8867 -1.0161
   86SLPC   C39 8286  -0.882   2.310   3.361 -0.4268  0.1226 -0.1357
   86SLPC   H9X 8287  -0.832   2.215   3.388 -2.0678 -0.4572  1.0185
   86SLPC   H9Y 8288  -0.992   2.297   3.365 -0.6615  1.9982  1.9493
   86SLPC  C310 8289  -0.854   2.408   3.478  0.3499  0.1750  0.2684
   86SLPC  H10X 8290  -0.909   2.501   3.454 -1.0105 -0.4994  0.6973
   86SLPC  H10Y 8291  -0.746   2.431   3.486  0.1613  0.9816  0.5335
   86SLPC  C311 8292  -0.914   2.354   3.608 -0.0854 -0.6146  0.4073
   86SLPC  H11X 8293  -1.019   2.320   3.604 -0.8059  1.5949 -1.2899
   86SLPC  H11Y 8294  -0.907   2.428   3.691 -0.0840 -1.1050  0.8468
   86SLPC  C312 8295  -0.831   2.239   3.667 -0.7373  0.4472  0.7410
   86SLPC  H12X 8296  -0.729   2.279   3.679 -1.2888  1.6494  1.6023
   86SLPC  H12Y 8297  -0.839   2.152   3.598 -2.9306  1.1867 -0.0351
   86SLPC  C313 8298  -0.859   2.191   3.806  0.1106  0.7566 -0.0846
   86SLPC  H13X 8299  -0.792   2.106   3.833  0.7578  1.3094  0.0645
   86SLPC  H13Y 8300  -0.963   2.150   3.802  0.0043  1.0514 -0.3333
   86SLPC  C314 8301  -0.857   2.290   3.925  0.8690  0.5810 -0.5798
   86SLPC  H14X 8302  -0.940   2.364   3.917  0.4491  0.0236 -1.5009
   86SLPC  H14Y 8303  -0.768   2.354   3.908  1.3071 -0.1143 -0.9255
   86SLPC  C315 8304  -0.844   2.216   4.055 -0.1985 -0.6467 -1.0689
   86SLPC  H15X 8305  -0.773   2.131   4.054  0.5377 -0.2595  2.7597
   86SLPC  H15Y 8306  -0.942   2.168   4.078 -0.0798  0.6006  2.6966
   86SLPC  C316 8307  -0.814   2.303   4.177  0.0523  0.5394 -0.2258
   86SLPC  H16X 8308  -0.812   2.407   4.139 -1.0146  0.4670 -0.4834
   86SLPC  H16Y 8309  -0.723   2.268   4.230  0.1092 -0.0745 -0.7212
   86SLPC  C317 8310  -0.927   2.307   4.290 -0.2272  0.2573  0.2717
   86SLPC  H17X 8311  -1.023   2.350   4.254  0.6181  3.6025  1.5537
   86SLPC  H17Y 8312  -0.884   2.369   4.372 -0.5748  1.3342 -0.3380
   86SLPC  C318 8313  -0.956   2.174   4.365  0.1983  0.0555 -0.1319
   86SLPC  H18X 8314  -0.874   2.136   4.429 -2.0132 -3.2506  0.9819
   86SLPC  H18Y 8315  -0.976   2.100   4.284 -1.2644  1.2071 -0.8767
   86SLPC  H18Z 8316  -1.050   2.175   4.424  0.2720  1.0951  0.0024
   87SLPC     N 8317   5.086   2.178   2.037  0.5701 -0.4380  0.2852
   87SLPC   C13 8318   5.205   2.261   2.045  0.2886  0.2033 -0.3674
   87SLPC  H13A 8319   5.235   2.296   1.947 -0.9947  2.1920 -0.1012
   87SLPC  H13B 8320   5.181   2.346   2.106 -0.3462  1.0086 -1.7079
   87SLPC  H13C 8321   5.282   2.197   2.087 -2.8636 -2.8807  1.2470
   87SLPC   C14 8322   4.987   2.258   1.961 -0.6194 -1.4084  0.1747
   87SLPC  H14A 8323   5.015   2.265   1.857  0.4017  1.5149  0.5695
   87SLPC  H14B 8324   4.884   2.223   1.960 -0.2727 -2.4579 -0.3473
   87SLPC  H14C 8325   4.988   2.362   1.991  1.4181 -0.9236 -1.3790
   87SLPC   C15 8326   5.039   2.154   2.173 -0.0673 -0.2525  0.3180
   87SLPC  H15A 8327   5.117   2.103   2.228  0.6689 -0.4166 -0.8361
   87SLPC  H15B 8328   5.008   2.240   2.230  0.9961  1.2259 -1.2328
   87SLPC  H15C 8329   4.958   2.083   2.164  0.5187 -0.7765 -1.4442
   87SLPC   C12 8330   5.118   2.053   1.954 -0.1644  0.6128 -0.3038
   87SLPC  H12A 8331   5.197   1.993   1.997  0.6737  1.6981 -0.2802
   87SLPC  H12B 8332   5.160   2.080   1.858 -0.2671 -1.3659 -0.9526
   87SLPC   C11 8333   4.992   1.960   1.935 -0.3031 -0.2716 -0.4396
   87SLPC  H11A 8334   5.008   1.886   1.854 -1.2866  1.7327 -2.5885
   87SLPC  H11B 8335   4.909   2.009   1.879 -0.1617 -2.0798 -2.3442
   87SLPC     P 8336   4.964   1.758   2.095 -0.7848  0.0121  0.4541
   87SLPC   O13 8337   4.865   1.675   2.028  0.2660  0.4257  0.3741
   87SLPC   O14 8338   5.104   1.722   2.073 -0.6268  0.8278  0.2173
   87SLPC   O12 8339   4.944   1.909   2.053  0.0428 -0.0308  0.3256
   87SLPC   O11 8340   4.932   1.756   2.244 -0.2246  0.7236  0.8207
   87SLPC    C1 8341   5.027   1.747   2.345  0.0599  0.4464  0.9122
   87SLPC    HA 8342   5.048   1.640   2.367  1.2082  1.0142  2.7668
   87SLPC    HB 8343   5.118   1.810   2.335  1.9245 -2.1654  0.3809
   87SLPC    C2 8344   4.965   1.810   2.473  0.5154 -1.1919 -0.3163
   87SLPC    HS 8345   4.965   1.921   2.466  0.3795 -1.2122 -0.6906
   87SLPC   O21 8346   5.036   1.774   2.585 -0.6476 -0.0994 -0.0942
   87SLPC   C21 8347   5.153   1.838   2.609  0.5898 -0.4315 -0.1797
   87SLPC   O22 8348   5.204   1.924   2.541 -0.3902 -0.0633  0.1786
   87SLPC   C22 8349   5.212   1.778   2.735  0.2302 -0.7049 -0.3579
   87SLPC   H2R 8350   5.219   1.667   2.729  0.8890 -0.9076  2.5328
   87SLPC   H2S 8351   5.316   1.815   2.750 -0.2995  0.3237  1.0156
   87SLPC    C3 8352   4.820   1.761   2.494  0.2663  0.1841  0.5691
   87SLPC    HX 8353   4.826   1.650   2.490  1.1562  0.2281  0.6063
   87SLPC    HY 8354   4.764   1.787   2.401  2.9786 -2.0686 -1.8816
   87SLPC   O31 8355   4.758   1.805   2.615  0.7401 -0.2188  0.1853
   87SLPC   C31 8356   4.711   1.933   2.611 -0.2636  0.8311 -0.2297
   87SLPC   O32 8357   4.727   2.003   2.513  0.7978  0.7370 -0.8550
   87SLPC   C32 8358   4.612   1.943   2.732  0.1979 -0.3441 -0.0918
   87SLPC   H2X 8359   4.607   1.842   2.778  0.9319 -0.2100  0.3017
   87SLPC   H2Y 8360   4.515   1.985   2.697  0.8762  3.4888  2.1073
   87SLPC   C23 8361   5.126   1.814   2.860  0.5268 -0.2255 -0.3480
   87SLPC   H3R 8362   5.020   1.785   2.849  0.6379 -0.1358 -1.8739
   87SLPC   H3S 8363   5.129   1.925   2.870 -0.4469 -0.1130 -1.2544
   87SLPC   C24 8364   5.185   1.753   2.983 -0.0118 -0.8122 -0.0321
   87SLPC   H4R 8365   5.290   1.787   2.973  0.1521 -0.9624  1.0359
   87SLPC   H4S 8366   5.176   1.644   2.967 -1.3400 -0.7500  0.1533
   87SLPC   C25 8367   5.121   1.812   3.112 -1.1412 -0.2253 -0.3211
   87SLPC   H5R 8368   5.015   1.778   3.124 -0.3475 -2.8828 -0.2002
   87SLPC   H5S 8369   5.123   1.923   3.101 -3.0630 -0.0171  0.8682
   87SLPC   C26 8370   5.193   1.779   3.247 -0.1290  0.3719 -0.6077
   87SLPC   H6R 8371   5.158   1.677   3.276 -1.4428  1.3723  1.5684
   87SLPC   H6S 8372   5.151   1.843   3.328  1.8496 -0.1618  0.9189
   87SLPC   C27 8373   5.344   1.781   3.252  0.0460  0.0897  0.4535
   87SLPC   H7R 8374   5.385   1.722   3.168  1.4676  0.5405  0.7929
   87SLPC   H7S 8375   5.384   1.721   3.337 -0.6073 -0.7354  0.1953
   87SLPC   C28 8376   5.408   1.916   3.259  0.1699 -0.7288 -0.3339
   87SLPC   H8R 8377   5.385   1.952   3.361 -0.5950  0.8513 -1.0373
   87SLPC   H8S 8378   5.357   1.988   3.192  0.2266  1.2824  1.6870
   87SLPC   C29 8379   5.554   1.908   3.226 -0.6238 -0.9939  0.0813
   87SLPC   H9R 8380   5.573   1.849   3.135 -2.3298 -1.6443  0.1143
   87SLPC  C210 8381   5.659   1.935   3.305  0.1505  0.1489 -0.5156
   87SLPC  H10R 8382   5.754   1.940   3.250  0.7086 -1.2853  0.2772
   87SLPC  C211 8383   5.638   1.990   3.445  0.4043  0.1132 -0.4042
   87SLPC  H11R 8384   5.549   1.949   3.497 -0.4511  0.5424 -1.5089
   87SLPC  H11S 8385   5.621   2.099   3.432 -0.1119  0.2520  1.1691
   87SLPC  C212 8386   5.757   1.974   3.534 -0.2723  0.0892 -0.0698
   87SLPC  H12R 8387   5.851   1.990   3.480 -0.1471  0.1901  0.1766
   87SLPC  C213 8388   5.761   1.922   3.655 -0.0022  0.3223  0.1173
   87SLPC  H13R 8389   5.858   1.906   3.705  0.6087 -0.9621 -1.3822
   87SLPC  C214 8390   5.647   1.882   3.741  0.2041 -0.3468 -0.4871
   87SLPC  H14R 8391   5.563   1.946   3.705  1.4591 -0.5638 -4.2456
   87SLPC  H14S 8392   5.676   1.903   3.846  0.8348  1.9162 -1.0588
   87SLPC  C215 8393   5.601   1.734   3.719 -0.6866  0.0340 -0.3752
   87SLPC  H15R 8394   5.551   1.690   3.808 -0.4646  1.5947  0.5478
   87SLPC  H15S 8395   5.685   1.668   3.690 -0.1666  0.8502 -0.7689
   87SLPC  C216 8396   5.500   1.706   3.600  0.2024  0.4218  0.7098
   87SLPC  H16R 8397   5.565   1.724   3.512 -1.6529 -0.2277 -0.8655
   87SLPC  H16S 8398   5.425   1.788   3.601  0.8208  0.9849  0.6461
   87SLPC  C217 8399   5.427   1.575   3.602  0.6927  0.1739 -0.0791
   87SLPC  H17R 8400   5.504   1.495   3.609  1.0149  0.4788 -0.1236
   87SLPC  H17S 8401   5.377   1.571   3.503  0.7071 -0.4824 -0.0633
   87SLPC  C218 8402   5.326   1.548   3.716 -0.0014 -0.3773 -0.4948
   87SLPC  H18R 8403   5.276   1.450   3.705 -2.9035  0.7047  1.7705
   87SLPC  H18S 8404   5.251   1.629   3.726 -1.5201 -1.6663 -0.9751
   87SLPC  H18T 8405   5.385   1.554   3.810 -0.4308 -1.8334 -0.1012
   87SLPC   C33 8406   4.658   2.054   2.830 -0.8339 -0.4131  0.1678
   87SLPC   H3X 8407   4.568   2.098   2.879  0.1274  1.7688  0.0898
   87SLPC   H3Y 8408   4.710   2.140   2.783 -3.0208  2.0936  1.9788
   87SLPC   C34 8409   4.742   1.990   2.952  0.1347  0.2046 -0.4779
   87SLPC   H4X 8410   4.792   2.062   3.020  1.9436 -1.6543  0.2735
   87SLPC   H4Y 8411   4.816   1.929   2.896  1.4891  0.1340  1.3127
   87SLPC   C35 8412   4.650   1.905   3.045 -0.5766 -0.4232  0.1568
   87SLPC   H5X 8413   4.598   1.826   2.987  0.8020 -0.1566 -1.5256
   87SLPC   H5Y 8414   4.574   1.975   3.086 -0.7690  0.1628 -1.1192
   87SLPC   C36 8415   4.712   1.841   3.170 -0.7762  0.9435 -0.6177
   87SLPC   H6X 8416   4.808   1.787   3.156  0.3003  1.8015  2.6686
   87SLPC   H6Y 8417   4.641   1.765   3.208  1.3006 -0.8078 -0.0328
   87SLPC   C37 8418   4.753   1.935   3.288 -0.6598 -0.9021 -0.1070
   87SLPC   H7X 8419   4.707   2.036   3.283 -0.6444 -0.6456  3.0553
   87SLPC   H7Y 8420   4.862   1.951   3.272 -0.4215 -1.6359  0.7303
   87SLPC   C38 8421   4.740   1.886   3.432  0.0803 -0.6137 -0.0360
   87SLPC   H8X 8422   4.728   1.775   3.433 -1.0000 -0.5074  1.3413
   87SLPC   H8Y 8423   4.643   1.916   3.475 -1.1332 -2.7504 -1.1264
   87SLPC   C39 8424   4.861   1.922   3.519  0.3093  0.3651 -0.4261
   87SLPC   H9X 8425   4.860   2.024   3.563 -0.2642  0.9483 -1.7225
   87SLPC   H9Y 8426   4.945   1.934   3.447 -0.6995  0.3476 -1.6414
   87SLPC  C310 8427   4.894   1.806   3.618  0.0785 -0.3671  0.2763
   87SLPC  H10X 8428   4.875   1.713   3.560  0.2231  0.7622 -1.6494
   87SLPC  H10Y 8429   4.822   1.796   3.702 -0.5869  1.0158 -0.1047
   87SLPC  C311 8430   5.041   1.823   3.656 -0.3459 -0.0640 -0.2197
   87SLPC  H11X 8431   5.097   1.890   3.587  0.3572 -0.8565 -0.4302
   87SLPC  H11Y 8432   5.076   1.721   3.630  1.0445  0.5544 -0.8880
   87SLPC  C312 8433   5.066   1.869   3.799 -0.3695 -0.7212 -0.9249
   87SLPC  H12X 8434   5.025   1.787   3.861  1.7496 -0.6357  0.6983
   87SLPC  H12Y 8435   5.022   1.967   3.826  1.7858 -0.5104  2.3623
   87SLPC  C313 8436   5.215   1.896   3.829  0.4720 -0.3267 -0.5988
   87SLPC  H13X 8437   5.245   1.989   3.776 -0.5468  0.0082 -0.6038
   87SLPC  H13Y 8438   5.275   1.814   3.785  0.2748  0.8916 -3.3629
   87SLPC  C314 8439   5.253   1.899   3.981 -0.0222 -0.4469  0.0644
   87SLPC  H14X 8440   5.205   1.818   4.041  1.3703 -0.1561  1.6243
   87SLPC  H14Y 8441   5.218   1.994   4.028 -0.3458 -0.0708 -0.9184
   87SLPC  C315 8442   5.406   1.875   3.996  0.2865  0.0187 -0.6037
   87SLPC  H15X 8443   5.461   1.944   3.928  0.6806 -0.3119 -0.6244
   87SLPC  H15Y 8444   5.434   1.770   3.971 -2.0156 -1.0962  1.1159
   87SLPC  C316 8445   5.435   1.892   4.148 -0.3255  0.2459  0.2005
   87SLPC  H16X 8446   5.386   1.810   4.204 -2.6244  1.7462  0.5381
   87SLPC  H16Y 8447   5.369   1.975   4.182 -2.0195 -1.0878  0.3170
   87SLPC  C317 8448   5.579   1.903   4.192 -0.6249 -0.7850 -0.1736
   87SLPC  H17X 8449   5.590   1.934   4.299 -2.7538  1.1134 -0.4120
   87SLPC  H17Y 8450   5.610   1.992   4.134 -4.7934  0.5255 -0.7414
   87SLPC  C318 8451   5.673   1.791   4.144  0.4253 -0.3215 -0.6224
   87SLPC  H18X 8452   5.648   1.700   4.202 -0.5716 -0.0493 -0.6096
   87SLPC  H18Y 8453   5.780   1.818   4.158  0.6190 -0.9348 -0.8918
   87SLPC  H18Z 8454   5.663   1.764   4.037  1.1199 -1.1617 -0.4850
   88SLPC     N 8455   6.366   0.928   2.233 -0.1364 -0.0421 -0.5684
   88SLPC   C13 8456   6.358   1.007   2.359 -0.0734 -0.2170  0.5683
   88SLPC  H13A 8457   6.420   1.096   2.356  0.2489 -0.4327  0.8083
   88SLPC  H13B 8458   6.260   1.040   2.389  0.1373  2.0626 -0.9394
   88SLPC  H13C 8459   6.405   0.956   2.442 -0.0971 -2.2411 -0.5989
   88SLPC   C14 8460   6.278   0.806   2.234 -0.0982 -0.2358  1.4207
   88SLPC  H14A 8461   6.181   0.831   2.274 -1.4106  1.1907 -2.2946
   88SLPC  H14B 8462   6.274   0.758   2.138  0.3901  1.1831  0.6671
   88SLPC  H14C 8463   6.318   0.728   2.298  0.2156 -1.6637 -0.4280
   88SLPC   C15 8464   6.512   0.883   2.218 -0.3552 -0.2772 -0.0129
   88SLPC  H15A 8465   6.589   0.958   2.213 -1.3500  0.7832  0.3011
   88SLPC  H15B 8466   6.551   0.817   2.294 -0.0751  0.1937  0.2566
   88SLPC  H15C 8467   6.520   0.833   2.123  0.7578  1.2018 -0.7337
   88SLPC   C12 8468   6.325   1.012   2.115 -0.2106 -0.5811  0.5844
   88SLPC  H12A 8469   6.226   1.052   2.131  0.3340  2.1424 -1.9798
   88SLPC  H12B 8470   6.330   0.946   2.030 -2.6110  1.2168 -1.0964
   88SLPC   C11 8471   6.415   1.143   2.075 -0.3636  0.2197  0.4994
   88SLPC  H11A 8472   6.370   1.187   1.983 -1.9702  2.1110  2.0881
   88SLPC  H11B 8473   6.522   1.114   2.073 -0.7127 -1.2672  1.6741
   88SLPC     P 8474   6.470   1.384   2.163  0.1376 -0.1909 -0.1758
   88SLPC   O13 8475   6.447   1.438   2.028 -1.2723  0.2597  0.9437
   88SLPC   O14 8476   6.410   1.458   2.278  0.1894  0.1265  0.1064
   88SLPC   O12 8477   6.394   1.239   2.174 -0.0713 -0.0499  0.5977
   88SLPC   O11 8478   6.626   1.361   2.190  0.2845  0.1543 -0.0288
   88SLPC    C1 8479   6.672   1.260   2.278 -0.4943 -1.1029  0.1245
   88SLPC    HA 8480   6.633   1.166   2.235 -0.4984 -0.7389 -0.6874
   88SLPC    HB 8481   6.781   1.259   2.258 -0.6622  0.5491 -1.1298
   88SLPC    C2 8482   6.636   1.287   2.430  0.5342  0.3065 -0.3886
   88SLPC    HS 8483   6.525   1.278   2.429  0.5987 -1.1013  0.6625
   88SLPC   O21 8484   6.681   1.420   2.456  0.5208  0.1932 -0.7587
   88SLPC   C21 8485   6.602   1.483   2.556 -0.0519  0.4004  0.2826
   88SLPC   O22 8486   6.505   1.432   2.607  0.4767 -0.7535  0.0675
   88SLPC   C22 8487   6.686   1.602   2.605  0.2223  0.7348  0.2054
   88SLPC   H2R 8488   6.756   1.637   2.528  0.7157  1.1108  0.8163
   88SLPC   H2S 8489   6.613   1.685   2.617 -1.7499 -0.9598  0.5814
   88SLPC    C3 8490   6.697   1.178   2.522 -0.3312 -0.4156  0.3832
   88SLPC    HX 8491   6.807   1.190   2.512 -0.5429  0.5715 -1.1445
   88SLPC    HY 8492   6.671   1.077   2.483  0.6202  0.0251 -1.4990
   88SLPC   O31 8493   6.681   1.193   2.662 -0.5153 -0.3370  0.1115
   88SLPC   C31 8494   6.555   1.153   2.698  1.1638 -0.5235 -0.1183
   88SLPC   O32 8495   6.465   1.123   2.619 -0.1572  0.5074  0.2074
   88SLPC   C32 8496   6.551   1.132   2.854 -0.1897  0.1588  0.0913
   88SLPC   H2X 8497   6.618   1.210   2.896  0.6594 -0.3322 -0.3278
   88SLPC   H2Y 8498   6.602   1.034   2.864  0.0884  0.0595 -1.7834
   88SLPC   C23 8499   6.761   1.576   2.735 -0.4626 -0.0821 -0.0070
   88SLPC   H3R 8500   6.834   1.654   2.763  1.3442 -1.4626 -0.7112
   88SLPC   H3S 8501   6.815   1.479   2.729  0.4255  0.3744  0.5017
   88SLPC   C24 8502   6.663   1.579   2.853  0.2072  0.6461  0.7151
   88SLPC   H4R 8503   6.577   1.510   2.834 -0.1525  0.6857  2.1085
   88SLPC   H4S 8504   6.615   1.678   2.871  2.8510  2.1747 -0.1872
   88SLPC   C25 8505   6.722   1.510   2.977 -0.1478  0.5457  0.4488
   88SLPC   H5R 8506   6.792   1.429   2.945  1.0305  1.7430 -0.0835
   88SLPC   H5S 8507   6.651   1.454   3.042  0.7443  1.0132  1.8784
   88SLPC   C26 8508   6.809   1.600   3.063 -0.1553  0.3919  0.2185
   88SLPC   H6R 8509   6.873   1.663   2.998 -1.8704  1.4641 -0.5278
   88SLPC   H6S 8510   6.878   1.543   3.128 -0.4220  1.6229  1.6452
   88SLPC   C27 8511   6.722   1.696   3.149  0.0526 -0.1184 -0.0027
   88SLPC   H7R 8512   6.656   1.760   3.086 -0.7567  3.3334  3.9138
   88SLPC   H7S 8513   6.793   1.764   3.201  2.2174 -0.5239 -2.2270
   88SLPC   C28 8514   6.635   1.629   3.253  0.2707 -0.2417 -0.0884
   88SLPC   H8R 8515   6.698   1.572   3.324  0.9650  0.8148  0.1684
   88SLPC   H8S 8516   6.569   1.560   3.197  0.1118  0.7808 -1.2067
   88SLPC   C29 8517   6.550   1.736   3.316  0.0170 -0.4279  0.4065
   88SLPC   H9R 8518   6.477   1.777   3.245  1.3095 -1.6027 -1.6851
   88SLPC  C210 8519   6.547   1.769   3.443 -0.9547  0.7881 -0.3979
   88SLPC  H10R 8520   6.490   1.856   3.478 -1.1349 -0.5486  2.9842
   88SLPC  C211 8521   6.628   1.698   3.546 -0.4254  0.1914 -0.5424
   88SLPC  H11R 8522   6.738   1.693   3.528 -0.0068 -1.0645  1.9033
   88SLPC  H11S 8523   6.607   1.590   3.552  1.3451 -0.1124  1.5009
   88SLPC  C212 8524   6.594   1.766   3.679  0.4876  0.4697 -0.3817
   88SLPC  H12R 8525   6.494   1.811   3.690 -0.7101 -2.1600  0.3411
   88SLPC  C213 8526   6.679   1.770   3.786 -0.3627  0.1545  0.1840
   88SLPC  H13R 8527   6.637   1.815   3.878  2.1093  0.9156  1.0063
   88SLPC  C214 8528   6.814   1.705   3.795  0.4024 -0.0850  0.3339
   88SLPC  H14R 8529   6.829   1.636   3.709 -0.1795 -2.5728  2.1390
   88SLPC  H14S 8530   6.811   1.645   3.888 -1.5572  0.0929  0.4297
   88SLPC  C215 8531   6.927   1.806   3.805 -0.4973  0.1068 -0.1660
   88SLPC  H15R 8532   6.929   1.860   3.707  1.9723  0.3180 -0.0744
   88SLPC  H15S 8533   7.023   1.751   3.812 -0.7959 -0.6425 -1.6007
   88SLPC  C216 8534   6.926   1.911   3.909  0.0206  0.1818  0.0718
   88SLPC  H16R 8535   6.827   1.960   3.917 -0.2840 -0.2396 -0.9413
   88SLPC  H16S 8536   7.008   1.985   3.902 -0.1988  0.3392 -0.9277
   88SLPC  C217 8537   6.934   1.846   4.052 -0.3949  0.0715  0.2620
   88SLPC  H17R 8538   7.022   1.779   4.053 -0.5907 -0.2530 -1.3452
   88SLPC  H17S 8539   6.849   1.785   4.091  0.8124 -0.3697  2.2992
   88SLPC  C218 8540   6.954   1.958   4.157 -0.0431 -0.1372 -0.0851
   88SLPC  H18R 8541   6.995   1.905   4.245  2.2095  0.0438 -0.9689
   88SLPC  H18S 8542   6.870   2.027   4.181  0.0292  0.2433 -0.8661
   88SLPC  H18T 8543   7.048   2.005   4.121  0.9223 -0.2327  2.1720
   88SLPC   C33 8544   6.404   1.129   2.912 -0.5333 -0.4791  0.5142
   88SLPC   H3X 8545   6.402   1.066   3.003 -1.5550 -1.0584  0.0990
   88SLPC   H3Y 8546   6.338   1.064   2.851  0.6112 -0.5116 -0.7364
   88SLPC   C34 8547   6.345   1.270   2.917  0.1667 -0.5692 -0.0655
   88SLPC   H4X 8548   6.329   1.310   2.814 -0.4922  1.9273  0.9441
   88SLPC   H4Y 8549   6.425   1.334   2.958  2.6650 -1.5868 -2.9756
   88SLPC   C35 8550   6.213   1.281   2.996 -0.1682 -0.6127 -0.5534
   88SLPC   H5X 8551   6.161   1.196   2.947  0.5432 -2.3368  1.5174
   88SLPC   H5Y 8552   6.170   1.383   2.987 -0.5060 -0.6028  0.8597
   88SLPC   C36 8553   6.228   1.249   3.146  0.4601 -0.2326 -0.5336
   88SLPC   H6X 8554   6.269   1.147   3.164 -0.3518 -0.0417  3.0511
   88SLPC   H6Y 8555   6.133   1.255   3.203  2.7805 -1.5018  3.8831
   88SLPC   C37 8556   6.296   1.363   3.221 -0.0369  0.2672  0.4020
   88SLPC   H7X 8557   6.241   1.456   3.192 -1.7409 -1.0369 -0.7442
   88SLPC   H7Y 8558   6.402   1.378   3.191 -0.9665  3.7070 -1.6601
   88SLPC   C38 8559   6.301   1.332   3.372 -0.1810 -0.4469  0.1243
   88SLPC   H8X 8560   6.336   1.229   3.392 -0.3408 -0.2788  1.3948
   88SLPC   H8Y 8561   6.196   1.333   3.408 -0.2463  2.8021  0.1782
   88SLPC   C39 8562   6.385   1.414   3.472 -0.0739 -0.2752 -0.0324
   88SLPC   H9X 8563   6.363   1.522   3.490 -0.3740  0.0242 -1.9577
   88SLPC   H9Y 8564   6.492   1.411   3.439 -0.4744 -0.2543 -1.4256
   88SLPC  C310 8565   6.381   1.356   3.612  0.3651  0.3065  0.2385
   88SLPC  H10X 8566   6.432   1.258   3.621  0.8255  0.2234 -2.4602
   88SLPC  H10Y 8567   6.275   1.342   3.640  0.6738  0.3638  1.5193
   88SLPC  C311 8568   6.437   1.446   3.721  0.2630 -0.4889  0.1743
   88SLPC  H11X 8569   6.376   1.537   3.705  0.4116 -0.4410 -0.1421
   88SLPC  H11Y 8570   6.545   1.471   3.712 -0.0911  0.8967 -0.5572
   88SLPC  C312 8571   6.427   1.395   3.864  0.0648 -0.5888 -0.0582
   88SLPC  H12X 8572   6.463   1.290   3.864 -0.4090 -0.7617  0.5842
   88SLPC  H12Y 8573   6.319   1.397   3.892  0.2366  1.0154  0.5964
   88SLPC  C313 8574   6.517   1.473   3.962  0.5968 -0.6732 -0.2886
   88SLPC  H13X 8575   6.512   1.578   3.924  1.3587 -1.3910 -2.5001
   88SLPC  H13Y 8576   6.620   1.433   3.956 -0.1351 -2.9477  0.9343
   88SLPC  C314 8577   6.482   1.477   4.114  0.3005  0.5301 -0.3618
   88SLPC  H14X 8578   6.504   1.374   4.150  1.4850  0.1735 -1.9685
   88SLPC  H14Y 8579   6.371   1.483   4.115  0.3480  2.2755 -1.3940
   88SLPC  C315 8580   6.543   1.590   4.203 -0.0774  0.1711  0.1289
   88SLPC  H15X 8581   6.543   1.692   4.160  0.4387  1.7624  3.5882
   88SLPC  H15Y 8582   6.649   1.559   4.209 -0.1970 -0.2105  0.2988
   88SLPC  C316 8583   6.478   1.606   4.335 -0.3431  0.0576  0.6558
   88SLPC  H16X 8584   6.498   1.522   4.405  0.7004  0.0241  0.3300
   88SLPC  H16Y 8585   6.372   1.629   4.310 -0.2977  1.1073  1.3536
   88SLPC  C317 8586   6.541   1.725   4.406  0.0370 -0.4787  0.0192
   88SLPC  H17X 8587   6.527   1.816   4.344 -4.7684 -0.5406  0.6627
   88SLPC  H17Y 8588   6.650   1.707   4.422 -0.2129 -1.6305  0.4938
   88SLPC  C318 8589   6.486   1.765   4.540  0.1089  0.7515 -0.2435
   88SLPC  H18X 8590   6.471   1.677   4.606 -1.0291  1.3560  0.3215
   88SLPC  H18Y 8591   6.386   1.810   4.525 -0.1710  1.3633  2.8315
   88SLPC  H18Z 8592   6.553   1.843   4.580  0.7646 -0.4007  0.9946
   89SAPE     N 8593   3.105   1.067   6.435  0.0318  0.1613  1.4021
   89SAPE   HN1 8594   3.135   1.103   6.528 -1.2570 -1.5236  2.5343
   89SAPE   HN2 8595   3.014   1.110   6.413 -0.5540 -1.1466  1.1777
   89SAPE   HN3 8596   3.089   0.965   6.443  0.9751 -0.2114 -0.7243
   89SAPE   C12 8597   3.218   1.070   6.330 -0.7309 -0.0748 -0.7082
   89SAPE  H12A 8598   3.178   1.018   6.240 -2.9042  0.5190 -0.1406
   89SAPE  H12B 8599   3.301   1.011   6.373  0.3520  0.0372 -2.5467
   89SAPE   C11 8600   3.273   1.205   6.289  0.3510  0.0458  0.1651
   89SAPE  H11A 8601   3.196   1.260   6.231  1.5211  0.6551 -0.8665
   89SAPE  H11B 8602   3.357   1.191   6.217  0.1350  0.5365 -0.1916
   89SAPE     P 8603   3.323   1.445   6.395 -0.3610 -0.1367  0.0816
   89SAPE   O13 8604   3.189   1.507   6.394 -0.0666 -0.7404 -0.3101
   89SAPE   O14 8605   3.417   1.490   6.499  0.1967 -0.7752  0.2932
   89SAPE   O12 8606   3.309   1.285   6.405  0.1442  0.1368 -0.2849
   89SAPE   O11 8607   3.389   1.478   6.260  0.0109  0.5405  0.5517
   89SAPE    C1 8608   3.386   1.614   6.212  0.0182 -0.5161 -0.1218
   89SAPE    HA 8609   3.287   1.662   6.229 -0.1173 -0.5495 -0.7964
   89SAPE    HB 8610   3.462   1.682   6.255 -0.3257 -0.3044  0.1495
   89SAPE    C2 8611   3.421   1.624   6.059  0.2712 -0.5303 -1.0146
   89SAPE    HS 8612   3.463   1.726   6.058 -0.1740 -0.1569  2.6357
   89SAPE   O21 8613   3.305   1.587   5.984 -0.2357 -0.4518  0.2105
   89SAPE   C21 8614   3.225   1.680   5.947  1.0710  0.1929 -0.0365
   89SAPE   O22 8615   3.220   1.791   5.994 -0.1042 -0.5724 -0.7862
   89SAPE   C22 8616   3.129   1.620   5.844 -0.0212  0.3814  0.5040
   89SAPE   H2R 8617   3.186   1.586   5.755 -1.6685  0.4765 -0.6359
   89SAPE   H2S 8618   3.076   1.534   5.890  1.5832 -0.5962  0.5947
   89SAPE    C3 8619   3.535   1.525   6.018  0.3849  0.3274 -0.4614
   89SAPE    HX 8620   3.496   1.423   6.038 -0.6204  1.3081  3.2121
   89SAPE    HY 8621   3.622   1.538   6.087 -1.4369 -1.9565  2.5195
   89SAPE   O31 8622   3.578   1.535   5.882 -0.3247 -0.3952 -0.1020
   89SAPE   C31 8623   3.597   1.658   5.837  0.1771 -0.3139  1.0495
   89SAPE   O32 8624   3.609   1.762   5.902 -0.1844  0.1711 -0.0355
   89SAPE   C32 8625   3.605   1.637   5.681  0.3263 -0.2859  0.6422
   89SAPE   H2X 8626   3.527   1.559   5.669 -0.6705  0.3463  2.5916
   89SAPE   H2Y 8627   3.704   1.596   5.650  0.6319  0.7661  0.1609
   89SAPE   C23 8628   3.028   1.722   5.787 -0.1336 -0.1194 -0.4385
   89SAPE   H3R 8629   2.983   1.769   5.877  1.5739  0.5755  0.1113
   89SAPE   H3S 8630   2.952   1.671   5.725 -0.8965  1.4030 -0.8180
   89SAPE   C24 8631   3.099   1.830   5.702 -0.8210  0.2935 -0.6256
   89SAPE   H4R 8632   3.186   1.871   5.757 -1.2908 -1.3598  1.4953
   89SAPE   H4S 8633   3.020   1.906   5.679 -1.1442  0.0319 -0.3860
   89SAPE   C25 8634   3.157   1.775   5.567  0.2118 -0.2921  0.0675
   89SAPE   H5R 8635   3.256   1.729   5.559 -0.0965 -1.1786  1.0852
   89SAPE   C26 8636   3.075   1.753   5.460  0.0421  0.3049  0.0149
   89SAPE   H6R 8637   3.117   1.716   5.365  0.5679  0.3557  0.2245
   89SAPE   C27 8638   2.932   1.799   5.436  0.5826  0.3795 -0.0835
   89SAPE   H7R 8639   2.920   1.855   5.341  1.3075 -0.1849 -0.5151
   89SAPE   H7S 8640   2.900   1.866   5.519  1.4059 -1.3565  1.7252
   89SAPE   C28 8641   2.848   1.677   5.424 -0.4720 -0.1379 -0.3229
   89SAPE   H8R 8642   2.791   1.649   5.514 -0.2081  0.2868 -0.0240
   89SAPE   C29 8643   2.828   1.594   5.315 -0.2702 -0.1004  0.1797
   89SAPE   H9R 8644   2.762   1.508   5.328  1.5651 -1.4423  1.0274
   89SAPE  C210 8645   2.872   1.617   5.173 -0.3362  0.3208 -0.6929
   89SAPE  H10R 8646   2.961   1.552   5.160  0.9135  1.8669 -0.2062
   89SAPE  H10S 8647   2.913   1.719   5.162 -0.7354  0.4201 -1.3342
   89SAPE  C211 8648   2.762   1.600   5.073  1.8680 -0.4653 -0.2565
   89SAPE  H11R 8649   2.660   1.589   5.110  1.1206 -0.7616 -2.2637
   89SAPE  C212 8650   2.785   1.619   4.942  0.0258 -0.3095  0.6067
   89SAPE  H12R 8651   2.701   1.636   4.873 -1.1715  3.0673  2.6658
   89SAPE  C213 8652   2.925   1.649   4.884 -0.2299  0.0776 -0.2887
   89SAPE  H13R 8653   2.981   1.553   4.889  1.3758  0.8957 -1.7703
   89SAPE  H13S 8654   2.987   1.722   4.940  1.3556  0.0333 -1.9126
   89SAPE  C214 8655   2.931   1.693   4.734  0.7991  0.3682  0.1265
   89SAPE  H14R 8656   2.985   1.786   4.709 -0.8417  1.3323  0.0308
   89SAPE  C215 8657   2.902   1.619   4.623 -0.1628  0.7517 -0.5851
   89SAPE  H15R 8658   2.895   1.675   4.528 -1.4416  0.1879 -0.8552
   89SAPE  C216 8659   2.840   1.482   4.627  0.3338 -0.1056 -0.0262
   89SAPE  H16R 8660   2.795   1.464   4.726 -0.7392 -0.2599 -0.5272
   89SAPE  H16S 8661   2.916   1.402   4.614  1.1916  0.2351  2.5006
   89SAPE  C217 8662   2.732   1.468   4.517  0.5464 -0.0996 -0.7940
   89SAPE  H17R 8663   2.663   1.556   4.515  0.9491  0.2900  0.7968
   89SAPE  H17S 8664   2.669   1.382   4.548 -0.2502  0.7543  0.0672
   89SAPE  C218 8665   2.776   1.453   4.367  0.6689  0.5801  0.0911
   89SAPE  H18R 8666   2.849   1.371   4.350  0.2663  0.3671 -0.6655
   89SAPE  H18S 8667   2.820   1.554   4.350 -0.3291  1.0057 -0.0217
   89SAPE  C219 8668   2.646   1.431   4.285 -0.3868 -0.5351  0.3056
   89SAPE  H19R 8669   2.585   1.522   4.304  1.3080  0.8115 -0.4719
   89SAPE  H19S 8670   2.599   1.339   4.326  0.0835 -1.3418 -0.9249
   89SAPE  C220 8671   2.682   1.412   4.138  0.2358  0.9496 -0.9946
   89SAPE  H20R 8672   2.704   1.509   4.088 -1.2829  2.3093  0.8165
   89SAPE  H20S 8673   2.596   1.365   4.086  0.0524 -0.0455  0.1784
   89SAPE  H20T 8674   2.772   1.349   4.121 -0.9643 -0.6420 -1.6940
   89SAPE   C33 8675   3.560   1.751   5.596 -0.4283 -0.1487  0.2776
   89SAPE   H3X 8676   3.627   1.838   5.616  0.5483 -0.3647 -1.7391
   89SAPE   H3Y 8677   3.453   1.772   5.620 -0.3772 -0.6752  0.9697
   89SAPE   C34 8678   3.552   1.712   5.444 -0.2080  0.0045 -0.3777
   89SAPE   H4X 8679   3.498   1.615   5.451 -1.9487  1.0552  2.0158
   89SAPE   H4Y 8680   3.655   1.696   5.404  0.3736 -0.0639  1.0894
   89SAPE   C35 8681   3.483   1.814   5.346 -0.0562  0.0311 -0.9079
   89SAPE   H5X 8682   3.552   1.901   5.339  4.6219 -3.2219  0.2405
   89SAPE   H5Y 8683   3.384   1.838   5.391  1.0819  0.4037  1.6083
   89SAPE   C36 8684   3.462   1.764   5.211 -0.0290 -0.5455 -0.1648
   89SAPE   H6X 8685   3.411   1.666   5.204 -3.0886  0.9044  0.0164
   89SAPE   H6Y 8686   3.556   1.732   5.161  0.2104 -0.9530  0.5393
   89SAPE   C37 8687   3.394   1.857   5.111  0.2714  0.0813  0.2542
   89SAPE   H7X 8688   3.475   1.930   5.087 -0.2370 -0.1886 -2.6858
   89SAPE   H7Y 8689   3.303   1.906   5.151  0.7682  0.1496  1.3195
   89SAPE   C38 8690   3.364   1.781   4.975 -0.0025 -0.4187 -0.4830
   89SAPE   H8X 8691   3.267   1.729   4.990 -0.5310  0.0936 -1.9409
   89SAPE   H8Y 8692   3.445   1.708   4.955 -0.0763 -0.4097 -0.8146
   89SAPE   C39 8693   3.340   1.877   4.860  0.3006 -0.0233  0.9844
   89SAPE   H9X 8694   3.427   1.929   4.815 -0.4887  1.1000  0.6954
   89SAPE   H9Y 8695   3.277   1.958   4.903  1.2542  0.9276  0.6383
   89SAPE  C310 8696   3.270   1.811   4.741 -0.4547  0.0550  0.0604
   89SAPE  H10X 8697   3.187   1.744   4.768 -2.2010  0.8508 -2.8873
   89SAPE  H10Y 8698   3.337   1.738   4.690 -1.1143  0.6224 -1.7041
   89SAPE  C311 8699   3.218   1.917   4.643 -0.2516 -0.3727  0.6556
   89SAPE  H11X 8700   3.291   2.001   4.645 -1.0339  0.3258  0.0407
   89SAPE  H11Y 8701   3.129   1.968   4.684  0.9319  2.1521  0.2904
   89SAPE  C312 8702   3.196   1.852   4.505  0.1953  0.0650 -0.1990
   89SAPE  H12X 8703   3.118   1.906   4.446  0.5074  0.2129 -0.4802
   89SAPE  H12Y 8704   3.163   1.746   4.498  1.7301 -0.4945  0.5037
   89SAPE  C313 8705   3.324   1.862   4.430  0.2559 -0.1058  0.6172
   89SAPE  H13X 8706   3.404   1.815   4.491  2.2449  1.3965 -0.7081
   89SAPE  H13Y 8707   3.343   1.971   4.424  0.0810 -0.0460  1.0916
   89SAPE  C314 8708   3.326   1.790   4.292  0.5655  0.0340  0.3323
   89SAPE  H14X 8709   3.223   1.796   4.252  0.1150 -1.3898  1.1897
   89SAPE  H14Y 8710   3.345   1.681   4.306  0.8680  0.2661  1.9528
   89SAPE  C315 8711   3.441   1.842   4.205 -0.0741  0.1572  0.6057
   89SAPE  H15X 8712   3.538   1.813   4.249 -0.8596 -0.6696  1.8607
   89SAPE  H15Y 8713   3.431   1.952   4.194  3.6478  0.7920  2.1043
   89SAPE  C316 8714   3.421   1.765   4.066 -0.6070 -0.1307  0.1184
   89SAPE  H16X 8715   3.320   1.741   4.027 -0.7965  0.8055  0.0046
   89SAPE  H16Y 8716   3.463   1.668   4.100 -1.6916 -0.2987  1.0354
   89SAPE  C317 8717   3.505   1.824   3.954 -0.6324 -0.4507 -0.2840
   89SAPE  H17X 8718   3.607   1.846   3.990 -0.1797  1.0846 -2.2761
   89SAPE  H17Y 8719   3.457   1.923   3.936  1.0432  0.0523 -2.4711
   89SAPE  C318 8720   3.502   1.733   3.824  0.3802 -0.2049 -0.4103
   89SAPE  H18X 8721   3.562   1.773   3.739  0.3254 -0.1831 -0.4386
   89SAPE  H18Y 8722   3.401   1.733   3.777  0.3005  0.9998 -0.2799
   89SAPE  H18Z 8723   3.519   1.625   3.846  0.8175  0.2635  1.7237
   90SAPE     N 8724   6.379   1.416   6.614 -0.9046  0.0366  0.8622
   90SAPE   HN1 8725   6.449   1.388   6.543 -1.2500  2.9124 -0.7739
   90SAPE   HN2 8726   6.414   1.482   6.686 -0.7099 -0.5299  1.2900
   90SAPE   HN3 8727   6.356   1.332   6.670  0.3310  0.8961  2.7416
   90SAPE   C12 8728   6.250   1.469   6.546  0.2101  0.2505 -0.5298
   90SAPE  H12A 8729   6.272   1.562   6.489  1.6565 -1.6796 -3.3744
   90SAPE  H12B 8730   6.183   1.489   6.632  1.1735  1.9152 -0.1155
   90SAPE   C11 8731   6.196   1.356   6.453 -0.2821  0.4774 -0.2508
   90SAPE  H11A 8732   6.266   1.350   6.367 -1.5539  0.2389 -1.2958
   90SAPE  H11B 8733   6.092   1.381   6.425 -0.4097 -0.9011 -1.1137
   90SAPE     P 8734   6.050   1.189   6.613 -0.5269  0.0641  0.2416
   90SAPE   O13 8735   6.053   1.040   6.624  0.9621  0.0941 -0.0710
   90SAPE   O14 8736   6.052   1.273   6.735  0.4344 -0.1428  0.2107
   90SAPE   O12 8737   6.175   1.226   6.516 -0.5996  0.2623 -0.0631
   90SAPE   O11 8738   5.927   1.232   6.528 -0.0009 -0.2100 -0.5184
   90SAPE    C1 8739   5.907   1.182   6.396  0.2204 -0.3750  0.1648
   90SAPE    HA 8740   5.992   1.212   6.331  0.0658 -1.4572 -0.5638
   90SAPE    HB 8741   5.910   1.071   6.395 -0.8748 -0.4373  1.2878
   90SAPE    C2 8742   5.772   1.234   6.331  0.1674 -0.5389  0.2229
   90SAPE    HS 8743   5.685   1.211   6.396 -0.2144  0.3469  0.0462
   90SAPE   O21 8744   5.748   1.183   6.194  0.2259 -0.5924  0.1390
   90SAPE   C21 8745   5.671   1.074   6.203  0.5935  0.2799  0.8155
   90SAPE   O22 8746   5.627   1.020   6.306 -0.1547 -0.8557  0.0491
   90SAPE   C22 8747   5.653   1.022   6.059  0.0556 -0.0395  0.1580
   90SAPE   H2R 8748   5.640   1.113   5.995 -2.9638 -0.0137  0.6772
   90SAPE   H2S 8749   5.752   0.986   6.024  1.1922  2.6120  0.3982
   90SAPE    C3 8750   5.777   1.390   6.308  0.1302  0.1410 -0.3504
   90SAPE    HX 8751   5.800   1.417   6.413  1.2217 -0.2664 -0.4710
   90SAPE    HY 8752   5.675   1.410   6.270  0.1014 -1.3369 -1.1224
   90SAPE   O31 8753   5.882   1.437   6.224  0.8763 -0.0659  0.2140
   90SAPE   C31 8754   5.834   1.477   6.107 -0.3439  0.3304 -0.2515
   90SAPE   O32 8755   5.720   1.480   6.070  0.1367 -0.0772 -0.2105
   90SAPE   C32 8756   5.950   1.521   6.018  0.5296 -0.1878 -0.5946
   90SAPE   H2X 8757   6.020   1.435   6.028  0.5127 -0.0882  0.5698
   90SAPE   H2Y 8758   5.984   1.611   6.074 -2.2298  0.2092  0.6202
   90SAPE   C23 8759   5.540   0.915   6.044 -0.2423  0.1130 -0.2089
   90SAPE   H3R 8760   5.448   0.956   6.092 -2.3166 -1.0115 -2.9473
   90SAPE   H3S 8761   5.574   0.825   6.100  1.6725 -0.9124 -2.8720
   90SAPE   C24 8762   5.500   0.887   5.902  0.2155  0.2483 -0.3396
   90SAPE   H4R 8763   5.595   0.858   5.851  1.7049 -0.1296  2.4558
   90SAPE   H4S 8764   5.469   0.980   5.851  1.0505  0.3452 -0.6943
   90SAPE   C25 8765   5.392   0.779   5.892 -0.8812  0.5003  0.1549
   90SAPE   H5R 8766   5.380   0.733   5.991 -1.2873  0.2473 -0.0118
   90SAPE   C26 8767   5.307   0.749   5.791  0.2207  0.4739  0.4967
   90SAPE   H6R 8768   5.240   0.664   5.812 -3.0347  3.0468  1.2782
   90SAPE   C27 8769   5.316   0.804   5.650 -0.1560 -0.2941 -0.7296
   90SAPE   H7R 8770   5.410   0.863   5.640  0.7470 -1.7234 -1.0372
   90SAPE   H7S 8771   5.234   0.877   5.630  1.8947  2.3191 -0.1950
   90SAPE   C28 8772   5.327   0.700   5.536 -0.2547 -0.1628 -0.0564
   90SAPE   H8R 8773   5.434   0.699   5.510 -0.0094  3.0531  0.4436
   90SAPE   C29 8774   5.236   0.632   5.468  0.6588  0.2731  0.1357
   90SAPE   H9R 8775   5.268   0.555   5.396 -0.6190 -0.7555  0.6202
   90SAPE  C210 8776   5.088   0.625   5.496 -0.4143 -0.3433 -0.3990
   90SAPE  H10R 8777   5.066   0.649   5.602  2.1108 -3.3270  0.9421
   90SAPE  H10S 8778   5.052   0.523   5.474 -0.0924 -1.1252  2.3999
   90SAPE  C211 8779   5.019   0.729   5.410 -0.3988  0.4186  0.2651
   90SAPE  H11R 8780   5.062   0.830   5.406  1.2427 -0.2154  1.0213
   90SAPE  C212 8781   4.930   0.686   5.313 -0.0515 -0.3594 -0.3045
   90SAPE  H12R 8782   4.888   0.773   5.260  0.9443  0.3028 -0.0589
   90SAPE  C213 8783   4.882   0.548   5.286 -0.7199  0.0338 -0.0546
   90SAPE  H13R 8784   4.822   0.515   5.374  1.6789 -0.2232  1.5915
   90SAPE  H13S 8785   4.968   0.479   5.274 -2.4044 -1.6690 -4.3309
   90SAPE  C214 8786   4.802   0.556   5.160 -0.0130 -0.5798 -0.2336
   90SAPE  H14R 8787   4.694   0.569   5.180 -0.7819 -4.3580 -1.1398
   90SAPE  C215 8788   4.845   0.531   5.036  0.2405 -0.2303  0.0118
   90SAPE  H15R 8789   4.771   0.528   4.955  0.4476  1.0240 -0.2444
   90SAPE  C216 8790   4.988   0.502   4.995 -0.1069 -0.3644 -0.7339
   90SAPE  H16R 8791   5.070   0.517   5.069  0.7721 -0.9259 -1.5839
   90SAPE  H16S 8792   5.017   0.565   4.908  1.2849  0.6631  0.4178
   90SAPE  C217 8793   5.006   0.349   4.954  0.0093 -0.1047  0.8611
   90SAPE  H17R 8794   4.960   0.276   5.024  1.7136 -1.6665  0.4424
   90SAPE  H17S 8795   5.116   0.333   4.962  0.1127  0.0527 -0.1136
   90SAPE  C218 8796   4.948   0.319   4.812 -0.1698 -0.9022 -0.7492
   90SAPE  H18R 8797   4.952   0.403   4.738  0.2113 -0.1043  0.1595
   90SAPE  H18S 8798   4.841   0.299   4.832 -1.4320  1.9851 -3.5948
   90SAPE  C219 8799   5.012   0.192   4.748 -0.2702  0.2756 -0.5920
   90SAPE  H19R 8800   5.121   0.204   4.729  0.3626 -0.6399  1.9640
   90SAPE  H19S 8801   4.961   0.173   4.652 -2.0319 -2.4514  0.7477
   90SAPE  C220 8802   4.990   0.061   4.817 -0.2436 -0.1626 -0.1076
   90SAPE  H20R 8803   5.010   0.074   4.925  0.3707 -2.5134  0.1240
   90SAPE  H20S 8804   5.051  -0.019   4.770  2.2804  2.1936 -1.0925
   90SAPE  H20T 8805   4.882   0.036   4.811 -0.8153  2.0718  0.0588
   90SAPE   C33 8806   5.911   1.540   5.873  0.4729  0.2886  0.5234
   90SAPE   H3X 8807   5.836   1.620   5.854  0.4635  0.3983  0.9918
   90SAPE   H3Y 8808   5.867   1.444   5.841  0.3267  0.5015  0.0796
   90SAPE   C34 8809   6.032   1.565   5.777 -0.1539  0.2741  0.6702
   90SAPE   H4X 8810   6.122   1.588   5.838  0.9513  3.1275 -1.7773
   90SAPE   H4Y 8811   6.023   1.665   5.729  1.0344 -0.3589 -0.9656
   90SAPE   C35 8812   6.052   1.460   5.669 -0.1473 -0.3617 -0.3231
   90SAPE   H5X 8813   6.050   1.356   5.710 -0.3713 -0.3786 -0.3782
   90SAPE   H5Y 8814   6.152   1.481   5.626  0.6335 -0.4521  1.3382
   90SAPE   C36 8815   5.938   1.479   5.558 -0.9170 -0.1473  0.7403
   90SAPE   H6X 8816   5.906   1.585   5.544 -1.6148 -0.2993  1.1705
   90SAPE   H6Y 8817   5.849   1.427   5.598 -0.9194 -0.6047  0.1550
   90SAPE   C37 8818   5.958   1.402   5.428  0.0736  0.3578 -0.5672
   90SAPE   H7X 8819   6.000   1.300   5.442 -2.0998 -0.2912  1.8304
   90SAPE   H7Y 8820   6.042   1.456   5.379  2.2413  0.4418  2.8594
   90SAPE   C38 8821   5.828   1.377   5.359  0.1758  0.1349  0.6806
   90SAPE   H8X 8822   5.774   1.473   5.343 -0.7166 -0.4385  0.1586
   90SAPE   H8Y 8823   5.759   1.318   5.424 -1.5677 -0.3507 -1.4947
   90SAPE   C39 8824   5.843   1.302   5.225 -0.6384  0.7091  0.3157
   90SAPE   H9X 8825   5.743   1.260   5.201  0.1883 -1.0810 -0.1259
   90SAPE   H9Y 8826   5.918   1.222   5.239  0.7299  1.6045 -1.4736
   90SAPE  C310 8827   5.894   1.401   5.115  0.3483 -0.1064 -0.6546
   90SAPE  H10X 8828   5.983   1.458   5.149  2.3820  0.1203 -5.5322
   90SAPE  H10Y 8829   5.813   1.470   5.082  1.1380  1.0494 -0.2292
   90SAPE  C311 8830   5.930   1.342   4.974 -0.1844  0.5044 -0.3257
   90SAPE  H11X 8831   6.020   1.278   4.984  0.1950  1.1897  0.8787
   90SAPE  H11Y 8832   5.961   1.434   4.921 -0.2568  1.4079  1.1223
   90SAPE  C312 8833   5.825   1.259   4.899 -0.7774  0.0322  0.3584
   90SAPE  H12X 8834   5.741   1.329   4.877  1.2699  3.0627  1.4684
   90SAPE  H12Y 8835   5.787   1.177   4.964 -0.2767  0.2886  0.9809
   90SAPE  C313 8836   5.864   1.200   4.757 -0.5635  0.3346  0.2044
   90SAPE  H13X 8837   5.941   1.120   4.763 -1.0338 -0.0864  0.6164
   90SAPE  H13Y 8838   5.915   1.274   4.691 -1.1008  0.8563  0.3676
   90SAPE  C314 8839   5.743   1.145   4.678  0.6338  0.2873 -0.2795
   90SAPE  H14X 8840   5.668   1.226   4.665  1.2294  0.8916 -0.0372
   90SAPE  H14Y 8841   5.696   1.069   4.743 -1.8651 -0.2870 -2.6021
   90SAPE  C315 8842   5.767   1.089   4.533  0.1447  0.9337 -0.0206
   90SAPE  H15X 8843   5.827   1.161   4.473 -0.3673  0.1193 -1.5815
   90SAPE  H15Y 8844   5.667   1.089   4.484  0.2850  0.9909 -0.3080
   90SAPE  C316 8845   5.838   0.955   4.518  0.0614 -0.1772 -0.8985
   90SAPE  H16X 8846   5.929   0.958   4.583 -0.2164  2.1571 -0.5106
   90SAPE  H16Y 8847   5.872   0.930   4.415  0.6519  1.2865 -1.0912
   90SAPE  C317 8848   5.747   0.840   4.567  0.0636  0.1076  0.1367
   90SAPE  H17X 8849   5.651   0.851   4.511 -0.8302  3.2526  2.0428
   90SAPE  H17Y 8850   5.719   0.854   4.673  0.8611  0.2388  0.3330
   90SAPE  C318 8851   5.811   0.705   4.572  1.2088 -0.1028  0.3567
   90SAPE  H18X 8852   5.810   0.657   4.472 -0.5244 -1.0767  0.8050
   90SAPE  H18Y 8853   5.751   0.643   4.642 -0.2217  0.4004 -0.3788
   90SAPE  H18Z 8854   5.914   0.714   4.613  0.7043 -1.9008  2.1585
   91SAPE     N 8855   3.778   2.819   6.641 -0.0696  0.1103  0.7205
   91SAPE   HN1 8856   3.690   2.828   6.696 -1.7298 -2.4380 -1.2945
   91SAPE   HN2 8857   3.844   2.754   6.688 -2.4158 -1.6937  1.7624
   91SAPE   HN3 8858   3.819   2.914   6.632 -1.7003  0.7161 -0.8334
   91SAPE   C12 8859   3.723   2.785   6.505 -0.4828  0.7296 -0.5070
   91SAPE  H12A 8860   3.678   2.684   6.515  2.5464 -0.5709  1.5339
   91SAPE  H12B 8861   3.812   2.765   6.441  0.3303 -1.2577  1.1431
   91SAPE   C11 8862   3.628   2.884   6.452 -0.1761 -0.5314 -0.7006
   91SAPE  H11A 8863   3.608   2.857   6.346  0.9972  0.3854 -1.1833
   91SAPE  H11B 8864   3.670   2.987   6.457  0.4834 -0.7188 -1.9731
   91SAPE     P 8865   3.391   2.782   6.532 -0.1744 -0.2243  0.0175
   91SAPE   O13 8866   3.421   2.639   6.545 -0.2626  0.0608  0.2607
   91SAPE   O14 8867   3.291   2.831   6.629  0.1484  0.2181  0.3675
   91SAPE   O12 8868   3.514   2.873   6.543  0.1935 -0.2906  0.3873
   91SAPE   O11 8869   3.324   2.811   6.396 -0.2373 -0.4198 -0.1830
   91SAPE    C1 8870   3.293   2.933   6.343  0.5378  0.0145  0.0116
   91SAPE    HA 8871   3.237   2.996   6.416 -0.5311 -1.5535  0.5870
   91SAPE    HB 8872   3.384   2.990   6.313 -1.1761  3.3817  0.7422
   91SAPE    C2 8873   3.208   2.913   6.212 -0.3845 -0.5766  0.2229
   91SAPE    HS 8874   3.277   2.868   6.137  0.6471  0.0969  0.7379
   91SAPE   O21 8875   3.154   3.041   6.176  0.2337  0.3273 -0.2393
   91SAPE   C21 8876   3.141   3.064   6.049 -0.0625 -0.5185  0.0504
   91SAPE   O22 8877   3.163   2.989   5.956  0.1784 -0.4333  0.3890
   91SAPE   C22 8878   3.076   3.210   6.033  0.3475 -0.5072  0.4929
   91SAPE   H2R 8879   3.038   3.239   6.134  2.5885  0.6607  1.0669
   91SAPE   H2S 8880   3.147   3.279   5.983  1.8160 -4.0768 -2.8095
   91SAPE    C3 8881   3.086   2.823   6.236  0.0825 -0.1664 -0.2447
   91SAPE    HX 8882   3.034   2.878   6.317 -0.0330  0.9647 -1.0516
   91SAPE    HY 8883   3.118   2.729   6.285  1.8891  1.7754  2.6842
   91SAPE   O31 8884   3.004   2.813   6.114 -0.7634  0.2683 -0.0496
   91SAPE   C31 8885   3.032   2.709   6.034  0.0747  0.2993  0.8054
   91SAPE   O32 8886   3.108   2.619   6.057 -0.4626 -0.5696 -0.2900
   91SAPE   C32 8887   2.948   2.732   5.903 -0.0462  0.4655  0.3552
   91SAPE   H2X 8888   2.984   2.832   5.873  1.0666 -0.2788 -0.8942
   91SAPE   H2Y 8889   2.840   2.732   5.932  0.3317 -0.1869  1.8648
   91SAPE   C23 8890   2.957   3.192   5.937 -0.4506  0.5034  0.0565
   91SAPE   H3R 8891   2.876   3.268   5.944 -2.7870 -2.0190  2.3779
   91SAPE   H3S 8892   2.913   3.095   5.967  0.2892  0.1931  0.1668
   91SAPE   C24 8893   2.994   3.185   5.785 -0.4803 -0.0179  0.3214
   91SAPE   H4R 8894   3.103   3.163   5.773 -0.6199 -0.2289 -0.5738
   91SAPE   H4S 8895   2.971   3.284   5.742 -0.8205 -0.3785 -0.3328
   91SAPE   C25 8896   2.913   3.081   5.717 -0.5806 -0.5504 -0.3817
   91SAPE   H5R 8897   2.850   3.022   5.785  0.4293 -2.7155 -1.2434
   91SAPE   C26 8898   2.876   3.084   5.590  0.4498 -0.3708  0.0575
   91SAPE   H6R 8899   2.821   2.995   5.554 -0.3327  0.1027  0.0585
   91SAPE   C27 8900   2.913   3.187   5.487 -0.6552 -0.4572 -0.1780
   91SAPE   H7R 8901   2.917   3.295   5.514  2.0658 -0.6573  0.4715
   91SAPE   H7S 8902   2.843   3.174   5.402 -1.5432 -0.5077  0.5323
   91SAPE   C28 8903   3.063   3.176   5.446  0.5586 -0.1039 -0.0070
   91SAPE   H8R 8904   3.133   3.177   5.531  0.6378 -0.3101 -0.0695
   91SAPE   C29 8905   3.114   3.184   5.320  0.2507 -0.1141 -0.5171
   91SAPE   H9R 8906   3.219   3.161   5.299 -0.2426 -1.4902 -1.6496
   91SAPE  C210 8907   3.029   3.191   5.190  0.2208  0.9277  0.2282
   91SAPE  H10R 8908   3.059   3.281   5.132  0.6660  0.5899 -0.0752
   91SAPE  H10S 8909   2.921   3.198   5.216 -0.1180 -2.1143  0.0030
   91SAPE  C211 8910   3.037   3.068   5.101  0.3386  0.5566  0.1344
   91SAPE  H11R 8911   3.054   2.975   5.157 -1.0604 -0.3221 -0.8379
   91SAPE  C212 8912   3.013   3.055   4.972 -0.0432 -0.2571 -0.3237
   91SAPE  H12R 8913   3.015   2.952   4.932  0.5574 -0.9880  1.4954
   91SAPE  C213 8914   2.971   3.156   4.874  0.8733  0.0592 -1.0693
   91SAPE  H13R 8915   2.914   3.241   4.918  2.8742  0.7034  0.4592
   91SAPE  H13S 8916   2.897   3.112   4.804  0.0670 -0.2848 -0.0332
   91SAPE  C214 8917   3.085   3.228   4.802 -0.0925  0.7900  0.4289
   91SAPE  H14R 8918   3.174   3.245   4.864 -0.2637 -0.3474  1.0183
   91SAPE  C215 8919   3.070   3.300   4.694  0.0775  0.4415  0.8884
   91SAPE  H15R 8920   3.161   3.329   4.639 -0.2624  0.8025  0.5091
   91SAPE  C216 8921   2.948   3.309   4.602 -0.2855 -0.7797  0.1618
   91SAPE  H16R 8922   2.853   3.274   4.648 -1.4442  0.2448 -1.3608
   91SAPE  H16S 8923   2.958   3.232   4.522 -0.5415  0.0525 -0.6876
   91SAPE  C217 8924   2.930   3.446   4.535  0.2689  0.5642 -0.3657
   91SAPE  H17R 8925   3.020   3.465   4.473 -0.3391  1.2371 -1.0770
   91SAPE  H17S 8926   2.918   3.524   4.614 -0.1978  0.5788 -0.4463
   91SAPE  C218 8927   2.811   3.469   4.449 -0.9854 -0.1045 -0.3078
   91SAPE  H18R 8928   2.719   3.435   4.502 -0.6094  1.3700  1.3837
   91SAPE  H18S 8929   2.816   3.417   4.351 -0.1483 -3.5738  1.4141
   91SAPE  C219 8930   2.789   3.617   4.418 -0.0133 -0.6030 -0.7295
   91SAPE  H19R 8931   2.730   3.627   4.324 -1.6756  2.7994  0.5151
   91SAPE  H19S 8932   2.884   3.660   4.379 -0.1891  0.4676 -0.0169
   91SAPE  C220 8933   2.728   3.706   4.530  0.1242  0.2844 -0.4407
   91SAPE  H20R 8934   2.740   3.817   4.527  0.3025  0.2482 -2.0179
   91SAPE  H20S 8935   2.786   3.684   4.622  0.1172  1.2978 -0.1736
   91SAPE  H20T 8936   2.623   3.670   4.538  0.4305 -1.7367 -3.6316
   91SAPE   C33 8937   3.000   2.637   5.787 -0.0655  0.5876  0.1054
   91SAPE   H3X 8938   2.986   2.529   5.812 -2.3343  0.9317  0.5496
   91SAPE   H3Y 8939   3.109   2.652   5.774  0.0495  0.8733  1.3105
   91SAPE   C34 8940   2.929   2.677   5.658 -0.3188 -0.3725 -0.8165
   91SAPE   H4X 8941   2.950   2.785   5.644  0.0543 -0.1395  1.1915
   91SAPE   H4Y 8942   2.819   2.668   5.671 -0.6386  1.7497 -1.7144
   91SAPE   C35 8943   2.981   2.601   5.540  0.1221  0.3631 -0.1741
   91SAPE   H5X 8944   2.991   2.492   5.557 -0.0963  0.4864  0.8595
   91SAPE   H5Y 8945   3.072   2.646   5.495 -0.5569 -0.3223 -2.3597
   91SAPE   C36 8946   2.883   2.614   5.429  0.3535  0.2596  0.7992
   91SAPE   H6X 8947   2.863   2.721   5.409 -2.2601 -0.5908 -2.0107
   91SAPE   H6Y 8948   2.778   2.583   5.449 -0.3161  1.1698 -1.0368
   91SAPE   C37 8949   2.930   2.549   5.300 -0.2750  0.1102  0.1078
   91SAPE   H7X 8950   2.851   2.476   5.271  0.0258 -0.3996  0.5508
   91SAPE   H7Y 8951   3.029   2.502   5.316 -0.5069 -0.4149  0.0320
   91SAPE   C38 8952   2.954   2.646   5.187  0.1318 -0.7986  0.2039
   91SAPE   H8X 8953   3.042   2.712   5.202 -0.4345 -0.3597  1.7381
   91SAPE   H8Y 8954   2.863   2.710   5.186 -1.0856 -2.4746  0.4771
   91SAPE   C39 8955   2.972   2.581   5.051  0.3696 -0.6348  0.3683
   91SAPE   H9X 8956   2.868   2.553   5.024  0.2033  1.5087 -1.4949
   91SAPE   H9Y 8957   3.042   2.496   5.066  1.5679  0.6975  2.8688
   91SAPE  C310 8958   3.005   2.672   4.940  0.3763 -0.0564  0.1503
   91SAPE  H10X 8959   3.102   2.724   4.953 -0.1139  0.8311  0.3245
   91SAPE  H10Y 8960   2.920   2.744   4.937  0.3605 -0.0723  0.2048
   91SAPE  C311 8961   3.015   2.597   4.805  0.1235  0.3044 -0.0753
   91SAPE  H11X 8962   2.909   2.567   4.789  0.5321 -0.8722 -0.6716
   91SAPE  H11Y 8963   3.069   2.502   4.821 -1.9577 -0.6025  2.3244
   91SAPE  C312 8964   3.062   2.678   4.681 -0.1197 -0.2192  0.7949
   91SAPE  H12X 8965   3.079   2.608   4.596 -0.2070  1.4076 -0.5929
   91SAPE  H12Y 8966   3.165   2.716   4.698  0.8331 -2.4023  0.3128
   91SAPE  C313 8967   2.971   2.796   4.638  0.0071 -0.1980  0.3942
   91SAPE  H13X 8968   2.946   2.882   4.705 -3.3609 -0.0486 -0.8583
   91SAPE  H13Y 8969   2.874   2.748   4.613  0.1362  0.6324 -1.9454
   91SAPE  C314 8970   3.017   2.851   4.500 -0.3838  0.1185  0.5751
   91SAPE  H14X 8971   3.051   2.773   4.428  2.1508  0.8809  0.8273
   91SAPE  H14Y 8972   3.101   2.922   4.517 -1.1264  0.4521  3.2184
   91SAPE  C315 8973   2.902   2.935   4.426 -0.0858  0.9460 -0.6939
   91SAPE  H15X 8974   2.933   3.038   4.399 -1.7467  1.3785 -1.0849
   91SAPE  H15Y 8975   2.835   2.951   4.513  2.1325  0.7240  1.1513
   91SAPE  C316 8976   2.840   2.863   4.306 -0.6401  0.4804 -0.5161
   91SAPE  H16X 8977   2.789   2.769   4.335  2.7821 -1.3115  0.1540
   91SAPE  H16Y 8978   2.911   2.824   4.229 -0.1831  0.7802 -0.2525
   91SAPE  C317 8979   2.742   2.954   4.228  0.3286 -0.1265  0.2232
   91SAPE  H17X 8980   2.809   3.033   4.187  1.3018 -0.9791  0.1215
   91SAPE  H17Y 8981   2.659   3.000   4.286  0.6913  1.4415 -0.4305
   91SAPE  C318 8982   2.663   2.881   4.121  0.1382  0.2385  0.1019
   91SAPE  H18X 8983   2.586   2.945   4.072  0.1907  0.4894  0.3444
   91SAPE  H18Y 8984   2.601   2.795   4.154  0.9126 -0.0248  0.9029
   91SAPE  H18Z 8985   2.723   2.837   4.038  0.2965 -0.4795  0.5900
   92SAPE     N 8986   3.301   3.072   6.760 -0.8346  0.0102 -0.2112
   92SAPE   HN1 8987   3.286   2.992   6.695 -0.3072 -0.4753  0.2583
   92SAPE   HN2 8988   3.295   3.037   6.857 -2.7011 -1.6215 -0.8418
   92SAPE   HN3 8989   3.220   3.137   6.747 -1.2247 -0.8190 -2.5415
   92SAPE   C12 8990   3.429   3.147   6.724  0.4506  0.2562  0.2998
   92SAPE  H12A 8991   3.512   3.073   6.723  0.3483 -0.0195  3.1839
   92SAPE  H12B 8992   3.442   3.228   6.799 -0.6481  1.2258 -0.5113
   92SAPE   C11 8993   3.418   3.205   6.583  0.0099  0.1757 -0.6359
   92SAPE  H11A 8994   3.400   3.123   6.511 -0.6868 -0.6973  0.4988
   92SAPE  H11B 8995   3.508   3.268   6.574 -0.9184  1.3507 -2.2727
   92SAPE     P 8996   3.322   3.440   6.536  0.0072  0.5395 -0.0243
   92SAPE   O13 8997   3.191   3.494   6.490  0.4088  0.5757 -0.5890
   92SAPE   O14 8998   3.388   3.506   6.646 -0.0212 -0.2453  0.2010
   92SAPE   O12 8999   3.300   3.283   6.571 -0.0762 -0.2627  0.6620
   92SAPE   O11 9000   3.425   3.443   6.412 -0.3620 -0.2527  0.1893
   92SAPE    C1 9001   3.366   3.378   6.295 -0.8632 -0.6709  0.0384
   92SAPE    HA 9002   3.351   3.268   6.304 -1.8162 -0.5802 -0.3772
   92SAPE    HB 9003   3.268   3.416   6.260 -1.0289 -1.1884 -0.0702
   92SAPE    C2 9004   3.460   3.404   6.167  0.0536 -0.2299 -0.0968
   92SAPE    HS 9005   3.485   3.512   6.172 -0.1605 -0.2315  1.8865
   92SAPE   O21 9006   3.386   3.366   6.048  0.3039  0.5436 -0.3639
   92SAPE   C21 9007   3.427   3.403   5.929  0.6175  0.1357  0.0402
   92SAPE   O22 9008   3.509   3.493   5.909  0.3835 -0.1377  0.1640
   92SAPE   C22 9009   3.366   3.318   5.825  0.3612  0.1259  0.3636
   92SAPE   H2R 9010   3.324   3.219   5.852  0.4962 -0.3315 -0.9921
   92SAPE   H2S 9011   3.270   3.365   5.795  0.2270 -0.7386 -0.6386
   92SAPE    C3 9012   3.598   3.331   6.184  0.6622 -0.2709 -0.1396
   92SAPE    HX 9013   3.630   3.326   6.290  0.4238 -0.0744 -0.0565
   92SAPE    HY 9014   3.673   3.393   6.131  3.0866 -1.1695  2.0565
   92SAPE   O31 9015   3.588   3.207   6.116 -0.2431  0.1053  0.3793
   92SAPE   C31 9016   3.702   3.142   6.117  0.3210 -0.1977  0.3860
   92SAPE   O32 9017   3.808   3.186   6.161 -0.2729 -0.2497 -0.4494
   92SAPE   C32 9018   3.692   3.007   6.056 -0.9497 -0.0720 -0.7314
   92SAPE   H2X 9019   3.599   2.994   5.997 -1.3173  0.7582 -0.3575
   92SAPE   H2Y 9020   3.689   2.935   6.141  0.8667  1.8192  1.0796
   92SAPE   C23 9021   3.458   3.279   5.699  0.1727 -0.8637 -0.6306
   92SAPE   H3R 9022   3.408   3.205   5.633  2.2969 -2.0673 -0.9622
   92SAPE   H3S 9023   3.555   3.234   5.728  0.5871 -2.2016 -3.7170
   92SAPE   C24 9024   3.488   3.404   5.613  0.0510 -0.2723 -0.5063
   92SAPE   H4R 9025   3.548   3.472   5.678  0.7728 -1.1630 -0.2199
   92SAPE   H4S 9026   3.390   3.454   5.597 -0.0535  0.0014  0.8717
   92SAPE   C25 9027   3.564   3.374   5.485 -0.3995 -0.3845 -0.4945
   92SAPE   H5R 9028   3.632   3.287   5.491 -1.0252 -0.8313  0.3481
   92SAPE   C26 9029   3.542   3.440   5.365 -0.3928 -0.5083  0.4650
   92SAPE   H6R 9030   3.594   3.411   5.272 -2.5738 -1.5788 -0.5071
   92SAPE   C27 9031   3.449   3.559   5.345  0.3174  0.0578 -0.0816
   92SAPE   H7R 9032   3.488   3.631   5.270  0.1877  1.8771  1.5073
   92SAPE   H7S 9033   3.450   3.625   5.435  0.4786  0.5169 -0.4173
   92SAPE   C28 9034   3.308   3.529   5.306  0.1102  0.1369  0.5733
   92SAPE   H8R 9035   3.249   3.481   5.386  0.5343  1.4733  1.7275
   92SAPE   C29 9036   3.249   3.553   5.187  0.5080 -0.3671  0.3700
   92SAPE   H9R 9037   3.141   3.533   5.173  0.5811 -2.3700  2.1518
   92SAPE  C210 9038   3.313   3.607   5.065 -0.5634 -0.5623 -0.2067
   92SAPE  H10R 9039   3.271   3.556   4.976  0.6007 -1.4167 -0.2999
   92SAPE  H10S 9040   3.423   3.605   5.047 -0.4643  2.9464 -0.5459
   92SAPE  C211 9041   3.285   3.756   5.055  0.3129  0.2240  0.1016
   92SAPE  H11R 9042   3.334   3.824   5.126 -3.5774  2.0313  1.3829
   92SAPE  C212 9043   3.206   3.813   4.959 -0.4692 -0.2459  0.3541
   92SAPE  H12R 9044   3.206   3.921   4.940  2.1062 -0.3304 -0.4745
   92SAPE  C213 9045   3.135   3.740   4.844 -0.3094  0.0352  0.0465
   92SAPE  H13R 9046   3.040   3.695   4.880  0.9388 -1.8694  1.1611
   92SAPE  H13S 9047   3.192   3.651   4.809 -1.1798 -0.3154 -0.5206
   92SAPE  C214 9048   3.096   3.829   4.727  0.4167  0.5086  0.0201
   92SAPE  H14R 9049   2.993   3.868   4.722  0.3144  0.1309 -1.2950
   92SAPE  C215 9050   3.180   3.880   4.635 -0.1235  0.5406  0.2770
   92SAPE  H15R 9051   3.142   3.938   4.550  1.0256  0.8546 -0.0523
   92SAPE  C216 9052   3.329   3.850   4.633  0.8427  0.1402 -0.0700
   92SAPE  H16R 9053   3.359   3.815   4.734 -3.0075 -1.6567  0.6243
   92SAPE  H16S 9054   3.379   3.949   4.627  0.3011  0.4334  0.1744
   92SAPE  C217 9055   3.393   3.762   4.522  0.0294 -1.1210 -0.4477
   92SAPE  H17R 9056   3.502   3.783   4.518  0.3904 -2.6269  0.6779
   92SAPE  H17S 9057   3.343   3.786   4.426  0.3271 -0.3042 -0.4039
   92SAPE  C218 9058   3.361   3.616   4.557  0.1993  0.0635  0.1204
   92SAPE  H18R 9059   3.250   3.609   4.559  0.1649  0.0896 -0.8788
   92SAPE  H18S 9060   3.399   3.608   4.661 -1.7456  1.0937  0.9693
   92SAPE  C219 9061   3.419   3.518   4.459  0.0907  0.0931 -0.4549
   92SAPE  H19R 9062   3.387   3.553   4.359 -0.6661 -0.6434 -0.4760
   92SAPE  H19S 9063   3.368   3.420   4.465 -1.8620  1.1188  0.7149
   92SAPE  C220 9064   3.566   3.489   4.449  0.0954  0.7858  0.3837
   92SAPE  H20R 9065   3.617   3.578   4.406  1.7299  0.1033  0.8460
   92SAPE  H20S 9066   3.577   3.412   4.370  1.7008  1.3336  0.0382
   92SAPE  H20T 9067   3.600   3.453   4.549 -0.7249 -0.8690  0.1030
   92SAPE   C33 9068   3.807   2.983   5.957 -0.3295  0.2022  0.4438
   92SAPE   H3X 9069   3.812   2.872   5.949  0.1932  0.1105  1.8378
   92SAPE   H3Y 9070   3.905   3.022   5.991  0.6219 -1.1262 -0.6826
   92SAPE   C34 9071   3.780   3.037   5.815  0.2173 -0.0024  0.4875
   92SAPE   H4X 9072   3.771   3.147   5.822  2.5910  0.4184 -1.5061
   92SAPE   H4Y 9073   3.678   3.013   5.778  0.2292  2.4638 -1.3996
   92SAPE   C35 9074   3.881   2.990   5.712 -0.0580 -0.0189 -0.0361
   92SAPE   H5X 9075   3.852   2.884   5.692 -1.7308  0.2329  0.8568
   92SAPE   H5Y 9076   3.981   3.006   5.758  0.6118 -0.6830 -1.2169
   92SAPE   C36 9077   3.876   3.081   5.586 -0.4350 -0.5331 -0.6365
   92SAPE   H6X 9078   3.895   3.184   5.625 -1.7937 -0.2720 -0.6357
   92SAPE   H6Y 9079   3.773   3.086   5.547 -0.7169  1.7041  0.2125
   92SAPE   C37 9080   3.973   3.036   5.475  1.0305 -1.3252  0.1754
   92SAPE   H7X 9081   3.911   2.954   5.432 -0.6014  0.7287 -1.6024
   92SAPE   H7Y 9082   4.071   3.005   5.518  1.2065  1.4049  1.9416
   92SAPE   C38 9083   4.010   3.147   5.369 -0.2589  0.3091  0.1300
   92SAPE   H8X 9084   4.075   3.223   5.416 -1.8944  1.3502  0.7779
   92SAPE   H8Y 9085   3.920   3.203   5.336  0.5049  1.8659  0.6251
   92SAPE   C39 9086   4.072   3.084   5.239  0.3593 -0.0056 -0.2132
   92SAPE   H9X 9087   4.132   2.998   5.276 -1.5179 -1.3913 -0.2610
   92SAPE   H9Y 9088   4.136   3.164   5.197  1.4033 -0.3237  0.7150
   92SAPE  C310 9089   3.952   3.041   5.151  0.2010 -0.3792  0.8387
   92SAPE  H10X 9090   3.884   3.129   5.147  1.2517  0.5248  2.1166
   92SAPE  H10Y 9091   3.894   2.960   5.201  2.0803 -0.7081  2.5980
   92SAPE  C311 9092   3.994   2.992   5.010 -0.2599 -0.7874 -0.0309
   92SAPE  H11X 9093   4.066   2.907   5.016 -1.0729 -1.4580  0.4475
   92SAPE  H11Y 9094   4.051   3.074   4.961  2.0932 -3.0845 -1.3847
   92SAPE  C312 9095   3.876   2.957   4.915  0.8480  0.4628  0.3553
   92SAPE  H12X 9096   3.799   3.038   4.911 -0.0965 -0.4734 -1.7317
   92SAPE  H12Y 9097   3.826   2.864   4.949 -0.8357  1.2511  0.1407
   92SAPE  C313 9098   3.913   2.932   4.766 -0.0945 -0.0901 -0.5721
   92SAPE  H13X 9099   3.976   2.841   4.764 -2.7000 -1.9807 -1.8014
   92SAPE  H13Y 9100   3.977   3.015   4.729  1.3276 -1.2683 -0.8037
   92SAPE  C314 9101   3.796   2.918   4.668  0.0866 -0.1342 -0.1409
   92SAPE  H14X 9102   3.749   3.018   4.672  1.0771  0.4300 -1.7024
   92SAPE  H14Y 9103   3.715   2.844   4.687  0.3068 -2.2424 -5.5156
   92SAPE  C315 9104   3.819   2.912   4.522 -0.3657  0.0989  0.3643
   92SAPE  H15X 9105   3.906   2.971   4.485  1.2289 -2.2090  0.2330
   92SAPE  H15Y 9106   3.730   2.951   4.470 -0.1785  1.1499  0.8032
   92SAPE  C316 9107   3.854   2.767   4.488 -0.5809 -0.2392  0.3385
   92SAPE  H16X 9108   3.778   2.700   4.532  0.1864 -1.1734  0.2652
   92SAPE  H16Y 9109   3.958   2.744   4.520 -0.5232 -1.0018 -0.3800
   92SAPE  C317 9110   3.850   2.752   4.333 -0.0851  0.2980 -0.6787
   92SAPE  H17X 9111   3.925   2.821   4.289  0.1095  0.2475 -0.4288
   92SAPE  H17Y 9112   3.745   2.780   4.307 -0.7229 -0.7322  0.6429
   92SAPE  C318 9113   3.889   2.612   4.295 -0.5756  0.2605 -0.1686
   92SAPE  H18X 9114   3.895   2.600   4.185 -0.3430 -1.5957  0.0009
   92SAPE  H18Y 9115   3.811   2.545   4.337 -1.1959  1.1332  0.0949
   92SAPE  H18Z 9116   3.986   2.584   4.343 -1.5554 -1.5292  0.8942
   93SAPE     N 9117   0.174   1.631   6.847  0.4048 -0.3506  0.6821
   93SAPE   HN1 9118   0.266   1.664   6.881  0.0655  3.4522 -1.5057
   93SAPE   HN2 9119   0.187   1.570   6.763  0.6587 -1.0331  1.2074
   93SAPE   HN3 9120   0.130   1.723   6.828 -0.5486 -1.1473 -1.3976
   93SAPE   C12 9121   0.102   1.548   6.949  0.2097 -0.2291  0.3474
   93SAPE  H12A 9122   0.097   1.612   7.040 -0.0158 -1.0647  0.9429
   93SAPE  H12B 9123   0.156   1.453   6.972  3.2775  1.3113 -0.1202
   93SAPE   C11 9124  -0.041   1.516   6.898  0.1563  0.0353  0.4304
   93SAPE  H11A 9125  -0.085   1.442   6.967  0.0410 -2.0836 -1.7793
   93SAPE  H11B 9126  -0.048   1.466   6.799  0.3516  2.0421 -0.6681
   93SAPE     P 9127  -0.232   1.678   6.814  0.1480  0.4710 -0.0486
   93SAPE   O13 9128  -0.326   1.561   6.809 -0.4295  0.1567 -0.0173
   93SAPE   O14 9129  -0.282   1.811   6.849 -0.2425  0.3463 -0.2118
   93SAPE   O12 9130  -0.114   1.641   6.916  0.5182 -0.0050  0.4941
   93SAPE   O11 9131  -0.170   1.688   6.670  0.0036  0.0218 -0.5903
   93SAPE    C1 9132  -0.071   1.783   6.618  0.2149 -0.4481 -0.0543
   93SAPE    HA 9133  -0.033   1.850   6.698 -3.7749  0.9477  0.9396
   93SAPE    HB 9134   0.016   1.730   6.573 -1.6600 -2.8494 -1.1076
   93SAPE    C2 9135  -0.137   1.876   6.504 -0.3733  0.1289 -0.8043
   93SAPE    HS 9136  -0.234   1.908   6.549  0.0110 -0.8117  0.7751
   93SAPE   O21 9137  -0.156   1.789   6.396 -0.1983 -0.2246 -0.3801
   93SAPE   C21 9138  -0.273   1.759   6.360 -0.4179  0.2684 -0.0589
   93SAPE   O22 9139  -0.377   1.805   6.406  0.6891 -0.1300  0.4892
   93SAPE   C22 9140  -0.256   1.647   6.265  0.2890  0.2233 -0.2079
   93SAPE   H2R 9141  -0.167   1.654   6.199  1.0754  1.5399  0.9535
   93SAPE   H2S 9142  -0.230   1.557   6.325 -1.2773  0.5056  0.9734
   93SAPE    C3 9143  -0.049   1.998   6.465  0.2179 -0.0534 -0.5740
   93SAPE    HX 9144   0.048   1.952   6.434  0.9842  0.8255  0.4453
   93SAPE    HY 9145  -0.021   2.055   6.557  0.4095 -2.1637  0.7534
   93SAPE   O31 9146  -0.102   2.078   6.357  0.6450 -0.1217 -0.4395
   93SAPE   C31 9147  -0.153   2.193   6.391  0.0061 -0.2479  0.7293
   93SAPE   O32 9148  -0.158   2.244   6.498  0.0655  0.0650 -0.0895
   93SAPE   C32 9149  -0.219   2.262   6.266  0.0990  0.0587 -0.3706
   93SAPE   H2X 9150  -0.251   2.362   6.302 -0.5999 -1.1121  2.4898
   93SAPE   H2Y 9151  -0.311   2.201   6.251 -0.3337 -0.2561  2.8037
   93SAPE   C23 9152  -0.375   1.609   6.178  0.1618 -0.6742  0.3456
   93SAPE   H3R 9153  -0.387   1.693   6.106 -1.6345 -0.6780  0.5964
   93SAPE   H3S 9154  -0.475   1.613   6.227  0.0834  2.8904  0.1283
   93SAPE   C24 9155  -0.356   1.485   6.086 -0.3236 -0.2043 -0.4220
   93SAPE   H4R 9156  -0.319   1.393   6.136  2.3317  0.3250 -1.2111
   93SAPE   H4S 9157  -0.267   1.487   6.019  1.4566 -1.0489  1.7753
   93SAPE   C25 9158  -0.476   1.442   6.005  0.2912 -0.1803  0.0039
   93SAPE   H5R 9159  -0.564   1.507   6.016 -1.2964 -2.3867  0.7946
   93SAPE   C26 9160  -0.483   1.348   5.909 -0.5901 -0.1609 -0.8428
   93SAPE   H6R 9161  -0.573   1.352   5.847 -0.9508  3.1990 -0.2914
   93SAPE   C27 9162  -0.370   1.256   5.857  0.5616  0.0442 -0.5724
   93SAPE   H7R 9163  -0.313   1.216   5.943  0.9555 -0.6160 -1.1318
   93SAPE   H7S 9164  -0.290   1.310   5.801  2.4387 -1.1200  0.8730
   93SAPE   C28 9165  -0.412   1.135   5.779  0.4394 -0.5524  0.2738
   93SAPE   H8R 9166  -0.421   1.043   5.839 -1.8773 -1.3273 -1.1176
   93SAPE   C29 9167  -0.414   1.126   5.645  0.3148  0.0848 -0.4132
   93SAPE   H9R 9168  -0.447   1.032   5.599  0.0005 -0.1294  0.2474
   93SAPE  C210 9169  -0.390   1.229   5.541 -0.0635  0.6491  0.1949
   93SAPE  H10R 9170  -0.284   1.224   5.511 -0.3539  0.6157 -0.8657
   93SAPE  H10S 9171  -0.400   1.329   5.589 -1.6153  2.0793 -2.7746
   93SAPE  C211 9172  -0.476   1.233   5.417  0.6564  0.7829 -0.1252
   93SAPE  H11R 9173  -0.579   1.262   5.445  0.4606  0.9479 -1.0041
   93SAPE  C212 9174  -0.467   1.158   5.304 -0.2424  0.3586  0.4789
   93SAPE  H12R 9175  -0.546   1.151   5.228  0.6707 -0.9211 -0.4212
   93SAPE  C213 9176  -0.363   1.052   5.270 -0.3730  0.1047 -1.0909
   93SAPE  H13R 9177  -0.420   0.957   5.278  0.5678 -0.3603  0.3901
   93SAPE  H13S 9178  -0.288   1.061   5.352 -1.3570  1.3464 -0.2878
   93SAPE  C214 9179  -0.285   1.054   5.139  0.6439  0.0796  0.3682
   93SAPE  H14R 9180  -0.192   1.112   5.145 -0.7279  2.4306  0.4886
   93SAPE  C215 9181  -0.317   1.014   5.018 -0.3295  0.5899  1.0664
   93SAPE  H15R 9182  -0.241   1.031   4.941 -0.2039  0.2648  1.1162
   93SAPE  C216 9183  -0.447   0.941   4.975 -0.8492 -0.1494 -0.2319
   93SAPE  H16R 9184  -0.519   0.941   5.059 -1.5636  1.6160 -0.7922
   93SAPE  H16S 9185  -0.448   0.834   4.945  0.1384 -0.1532 -0.2997
   93SAPE  C217 9186  -0.524   1.018   4.860  0.1657 -0.4548 -0.1402
   93SAPE  H17R 9187  -0.541   1.123   4.895 -0.5381 -1.0551  1.4086
   93SAPE  H17S 9188  -0.616   0.960   4.840  1.3639 -3.2887  1.8481
   93SAPE  C218 9189  -0.445   1.013   4.733 -0.1392  0.1731  0.8285
   93SAPE  H18R 9190  -0.338   0.989   4.749 -0.5236 -0.7580  2.2227
   93SAPE  H18S 9191  -0.461   1.111   4.684  1.7568  0.0918 -0.0488
   93SAPE  C219 9192  -0.473   0.892   4.635  0.6390 -0.0298 -0.5473
   93SAPE  H19R 9193  -0.581   0.888   4.613 -0.1956  0.4579  2.8676
   93SAPE  H19S 9194  -0.449   0.808   4.705 -0.0701 -0.4750 -0.8361
   93SAPE  C220 9195  -0.398   0.880   4.502 -0.2138  0.7729 -0.6410
   93SAPE  H20R 9196  -0.288   0.894   4.514 -0.0808 -0.6149 -0.0143
   93SAPE  H20S 9197  -0.438   0.947   4.424 -0.3025  0.0950 -1.1865
   93SAPE  H20T 9198  -0.395   0.777   4.460 -2.5439  0.1822  0.4887
   93SAPE   C33 9199  -0.122   2.270   6.145  0.3822 -0.6166  1.1004
   93SAPE   H3X 9200  -0.079   2.172   6.116  0.9038 -0.1687  0.3109
   93SAPE   H3Y 9201  -0.033   2.334   6.165 -0.3170  1.0167 -0.7388
   93SAPE   C34 9202  -0.203   2.307   6.027 -0.1292  0.0993  0.5407
   93SAPE   H4X 9203  -0.261   2.399   6.050  0.5953  1.6972 -3.3777
   93SAPE   H4Y 9204  -0.282   2.231   6.009 -1.7308  1.3000  2.0791
   93SAPE   C35 9205  -0.111   2.343   5.911  0.5898 -0.3998  0.2118
   93SAPE   H5X 9206  -0.049   2.252   5.899 -0.6951 -1.3031  0.2453
   93SAPE   H5Y 9207  -0.057   2.436   5.937  1.0317 -0.6153  0.0655
   93SAPE   C36 9208  -0.189   2.378   5.785 -0.4188  0.3336  0.0556
   93SAPE   H6X 9209  -0.266   2.455   5.808 -2.2623 -0.7466 -2.0946
   93SAPE   H6Y 9210  -0.247   2.305   5.726 -0.1962  0.4716 -0.3371
   93SAPE   C37 9211  -0.101   2.431   5.673  0.0613 -0.3626  0.3517
   93SAPE   H7X 9212  -0.036   2.343   5.657 -0.2477 -0.3235 -1.3584
   93SAPE   H7Y 9213  -0.033   2.512   5.707  0.6302 -0.9721  0.6737
   93SAPE   C38 9214  -0.180   2.469   5.547  0.0864  0.2830 -0.8019
   93SAPE   H8X 9215  -0.246   2.545   5.595  0.3977  0.8738 -1.2948
   93SAPE   H8Y 9216  -0.244   2.385   5.511 -1.7019  1.4795 -0.5884
   93SAPE   C39 9217  -0.089   2.522   5.434  0.0633 -1.0316  0.0564
   93SAPE   H9X 9218  -0.011   2.446   5.412 -0.0886 -0.7225 -1.6780
   93SAPE   H9Y 9219  -0.045   2.605   5.495 -0.8886 -1.5043  1.4297
   93SAPE  C310 9220  -0.147   2.591   5.309  0.4149  0.1723 -0.7174
   93SAPE  H10X 9221  -0.060   2.656   5.284  1.5158 -1.2261 -0.5952
   93SAPE  H10Y 9222  -0.234   2.658   5.325 -0.1997 -1.0553  1.4877
   93SAPE  C311 9223  -0.167   2.474   5.207  0.5054 -0.2695 -0.1240
   93SAPE  H11X 9224  -0.260   2.416   5.224 -0.4734  1.0655 -0.7302
   93SAPE  H11Y 9225  -0.080   2.406   5.213 -0.6344 -1.7079  0.7741
   93SAPE  C312 9226  -0.179   2.526   5.060 -0.7992 -0.8400  0.4783
   93SAPE  H12X 9227  -0.096   2.600   5.058 -1.1670 -0.3848  1.6240
   93SAPE  H12Y 9228  -0.270   2.589   5.052 -0.1382  0.1061  0.1945
   93SAPE  C313 9229  -0.169   2.406   4.956  0.6046  0.0514 -0.5645
   93SAPE  H13X 9230  -0.258   2.342   4.972  0.1039  1.0203  0.7809
   93SAPE  H13Y 9231  -0.074   2.352   4.974  1.0095  0.6402 -0.9049
   93SAPE  C314 9232  -0.160   2.456   4.810 -0.8074  0.1461  0.8072
   93SAPE  H14X 9233  -0.051   2.474   4.801 -0.8929 -0.5712 -4.4053
   93SAPE  H14Y 9234  -0.217   2.551   4.802  0.5267  0.8947 -0.3443
   93SAPE  C315 9235  -0.197   2.359   4.694  0.0293 -0.4049 -0.6980
   93SAPE  H15X 9236  -0.304   2.382   4.673  0.5509  2.2479 -0.8563
   93SAPE  H15Y 9237  -0.197   2.252   4.723 -3.2996 -0.6385 -1.1025
   93SAPE  C316 9238  -0.115   2.368   4.564 -0.3897 -0.1475 -0.6348
   93SAPE  H16X 9239  -0.150   2.294   4.489 -0.2446  0.5090 -1.3659
   93SAPE  H16Y 9240  -0.009   2.350   4.591  0.5458  2.1621 -2.4411
   93SAPE  C317 9241  -0.144   2.496   4.484  0.4764  0.5607 -0.8134
   93SAPE  H17X 9242  -0.093   2.581   4.532  3.8026 -0.1117 -2.8642
   93SAPE  H17Y 9243  -0.255   2.499   4.476  0.4989 -1.4505 -3.1774
   93SAPE  C318 9244  -0.097   2.496   4.340  0.1325 -0.2240  1.0619
   93SAPE  H18X 9245  -0.141   2.409   4.286  0.4051  0.2407  0.0666
   93SAPE  H18Y 9246   0.013   2.502   4.331  0.0452  0.2639  0.2117
   93SAPE  H18Z 9247  -0.123   2.591   4.288  0.1990 -0.6830  0.1740
   94SAPE     N 9248   5.002   4.993   6.771 -0.2076 -0.9151 -0.2984
   94SAPE   HN1 9249   4.945   5.058   6.713  0.8265  0.9626  0.6817
   94SAPE   HN2 9250   4.960   5.004   6.865  1.0089  1.3011  0.0750
   94SAPE   HN3 9251   5.097   5.033   6.788 -1.8212  2.4907  1.7083
   94SAPE   C12 9252   5.004   4.864   6.702 -0.4083 -0.3290 -0.4311
   94SAPE  H12A 9253   5.057   4.793   6.770 -3.1070 -4.0006 -1.8309
   94SAPE  H12B 9254   5.064   4.860   6.608 -1.0600 -0.8433 -0.8367
   94SAPE   C11 9255   4.864   4.811   6.672 -0.6941 -0.6928 -0.2454
   94SAPE  H11A 9256   4.857   4.715   6.616  0.6571 -1.6120  1.0593
   94SAPE  H11B 9257   4.819   4.873   6.592 -2.5286 -0.8114  0.6340
   94SAPE     P 9258   4.787   4.686   6.898 -0.4827 -0.0757  0.0140
   94SAPE   O13 9259   4.795   4.757   7.032 -0.2086  0.7728 -0.3181
   94SAPE   O14 9260   4.685   4.580   6.892 -0.0040 -0.4200  0.1331
   94SAPE   O12 9261   4.782   4.797   6.787 -0.6923  0.3323  0.1176
   94SAPE   O11 9262   4.925   4.619   6.857 -0.2552  0.1014  0.5237
   94SAPE    C1 9263   4.910   4.489   6.799  0.4212  0.8510  0.5598
   94SAPE    HA 9264   4.890   4.411   6.876 -0.6073 -1.2970 -1.7439
   94SAPE    HB 9265   4.836   4.478   6.717  0.2901 -1.2006  0.9004
   94SAPE    C2 9266   5.046   4.452   6.734  0.3513 -0.1473  0.3188
   94SAPE    HS 9267   5.123   4.479   6.809  0.0147  0.9341  0.2968
   94SAPE   O21 9268   5.061   4.522   6.606 -0.2727  0.6488 -0.1310
   94SAPE   C21 9269   5.189   4.528   6.564  0.5509 -0.2553 -0.4638
   94SAPE   O22 9270   5.286   4.495   6.635  0.1472 -0.0456 -0.1756
   94SAPE   C22 9271   5.195   4.587   6.425 -0.7192 -0.1510  0.1019
   94SAPE   H2R 9272   5.139   4.683   6.422  2.3391  1.7572 -1.6753
   94SAPE   H2S 9273   5.298   4.623   6.404  0.5528 -2.4446  1.9031
   94SAPE    C3 9274   5.063   4.295   6.721  0.7015 -0.0019  0.1422
   94SAPE    HX 9275   5.028   4.254   6.818 -0.0380 -0.6820 -0.4018
   94SAPE    HY 9276   5.172   4.275   6.711  0.6153 -0.1282 -0.5656
   94SAPE   O31 9277   4.980   4.225   6.625 -0.4031 -0.0504 -0.1654
   94SAPE   C31 9278   5.028   4.125   6.551  0.1560  0.2691  0.4375
   94SAPE   O32 9279   5.147   4.097   6.541 -0.1295 -0.3253 -0.1354
   94SAPE   C32 9280   4.913   4.072   6.466  0.6065  0.5388 -0.0954
   94SAPE   H2X 9281   4.909   4.138   6.376  0.2805  0.7050  0.0399
   94SAPE   H2Y 9282   4.822   4.075   6.529  1.2542 -1.5417  1.0145
   94SAPE   C23 9283   5.150   4.489   6.318 -0.4543 -0.6260 -0.1101
   94SAPE   H3R 9284   5.152   4.562   6.234  2.7024  0.9596  1.1623
   94SAPE   H3S 9285   5.052   4.443   6.345  0.3170 -2.6618 -0.6029
   94SAPE   C24 9286   5.248   4.370   6.288  0.0064 -0.3303  0.5484
   94SAPE   H4R 9287   5.277   4.317   6.381  1.9051  0.0851  0.2378
   94SAPE   H4S 9288   5.330   4.423   6.235 -0.7517 -0.3957 -0.7223
   94SAPE   C25 9289   5.168   4.273   6.204 -0.5117  0.0060  1.3297
   94SAPE   H5R 9290   5.065   4.262   6.242 -1.2601  0.6902 -0.3712
   94SAPE   C26 9291   5.196   4.230   6.076 -0.2541  0.1297  0.5767
   94SAPE   H6R 9292   5.130   4.158   6.026  0.8954 -0.7241  0.2463
   94SAPE   C27 9293   5.324   4.255   5.992 -0.0416  0.3685  0.2301
   94SAPE   H7R 9294   5.356   4.171   5.926  1.4176  0.7366  0.4401
   94SAPE   H7S 9295   5.416   4.275   6.050  1.8036  1.0396 -2.6922
   94SAPE   C28 9296   5.308   4.385   5.916  0.8600 -0.2642  0.6222
   94SAPE   H8R 9297   5.335   4.475   5.974 -2.2576  0.6170  0.8686
   94SAPE   C29 9298   5.255   4.404   5.793 -1.2615 -0.2786 -0.9768
   94SAPE   H9R 9299   5.255   4.508   5.756  2.4470 -0.1621 -1.0387
   94SAPE  C210 9300   5.225   4.297   5.693  0.4404  0.6810 -0.1579
   94SAPE  H10R 9301   5.196   4.208   5.752 -0.9362  1.8762  1.0624
   94SAPE  H10S 9302   5.323   4.280   5.643 -0.2888 -1.2498 -1.0261
   94SAPE  C211 9303   5.120   4.343   5.595  0.0909 -0.2254 -0.7942
   94SAPE  H11R 9304   5.021   4.357   5.640  0.4933  4.2109 -0.9042
   94SAPE  C212 9305   5.145   4.396   5.473 -0.2123  0.7173 -0.3951
   94SAPE  H12R 9306   5.057   4.410   5.408 -0.0680  0.1083 -0.7274
   94SAPE  C213 9307   5.283   4.397   5.412  0.7577 -0.2966 -0.3065
   94SAPE  H13R 9308   5.286   4.317   5.334  0.9233  2.0396 -2.8672
   94SAPE  H13S 9309   5.374   4.372   5.470 -0.4762  0.1533  1.9074
   94SAPE  C214 9310   5.311   4.533   5.344  0.4058 -0.3812  0.1858
   94SAPE  H14R 9311   5.364   4.606   5.406  3.7632 -0.5001 -2.2910
   94SAPE  C215 9312   5.279   4.557   5.211 -0.0927 -0.7921 -0.6314
   94SAPE  H15R 9313   5.289   4.660   5.173 -0.2882 -0.3559  0.4518
   94SAPE  C216 9314   5.225   4.462   5.112 -0.2527  0.0418 -0.4723
   94SAPE  H16R 9315   5.121   4.473   5.076 -0.6734 -0.9548  0.4049
   94SAPE  H16S 9316   5.232   4.359   5.152  0.3842  0.6640  1.1008
   94SAPE  C217 9317   5.314   4.470   4.983 -0.1550 -0.0033 -0.4280
   94SAPE  H17R 9318   5.295   4.569   4.937 -2.1188  0.6252  1.5262
   94SAPE  H17S 9319   5.276   4.391   4.915 -1.6885  0.7089 -0.4441
   94SAPE  C218 9320   5.463   4.439   5.006 -0.0180 -0.0040  0.0823
   94SAPE  H18R 9321   5.468   4.332   5.036 -1.7318  0.0949  0.7958
   94SAPE  H18S 9322   5.504   4.513   5.078  0.7281 -0.0325 -0.3034
   94SAPE  C219 9323   5.551   4.444   4.873  0.2781  0.5022 -0.1587
   94SAPE  H19R 9324   5.549   4.342   4.828 -1.2664 -0.9158  2.7892
   94SAPE  H19S 9325   5.653   4.469   4.909  0.5246 -0.5685 -0.0773
   94SAPE  C220 9326   5.517   4.557   4.781 -0.7874 -0.4714  0.3533
   94SAPE  H20R 9327   5.584   4.553   4.693  3.8669 -0.2969  3.5282
   94SAPE  H20S 9328   5.541   4.654   4.830 -0.4449 -0.9478  1.1372
   94SAPE  H20T 9329   5.408   4.555   4.758 -1.5166 -0.6596  3.4291
   94SAPE   C33 9330   4.931   3.930   6.412 -0.2241  0.0940 -0.4062
   94SAPE   H3X 9331   4.832   3.882   6.396 -0.4897 -0.7761  3.0261
   94SAPE   H3Y 9332   4.984   3.859   6.479  0.0454 -1.3673 -2.0994
   94SAPE   C34 9333   5.005   3.927   6.280  0.7276  0.9126 -0.1123
   94SAPE   H4X 9334   5.104   3.974   6.294  0.6510  1.5485 -1.5234
   94SAPE   H4Y 9335   4.950   3.986   6.203 -0.9632  0.9613  1.0813
   94SAPE   C35 9336   5.038   3.790   6.226 -0.4516 -0.1259 -0.9030
   94SAPE   H5X 9337   4.945   3.733   6.205 -1.3833  1.1166 -0.2413
   94SAPE   H5Y 9338   5.097   3.735   6.303 -1.7161 -2.4657 -1.5148
   94SAPE   C36 9339   5.117   3.788   6.097 -0.0718  0.2330 -0.2166
   94SAPE   H6X 9340   5.143   3.685   6.063  1.5641  0.4800  0.1797
   94SAPE   H6Y 9341   5.216   3.835   6.117  0.6077 -0.7759 -1.0550
   94SAPE   C37 9342   5.057   3.868   5.985  0.0709  0.8385  0.8230
   94SAPE   H7X 9343   5.032   3.971   6.018 -2.7938  0.7193 -0.7125
   94SAPE   H7Y 9344   4.958   3.826   5.958  0.8487 -1.0471  0.7869
   94SAPE   C38 9345   5.140   3.875   5.857  0.5318  0.0854  0.6482
   94SAPE   H8X 9346   5.169   3.770   5.833 -0.5628  0.2846 -1.8623
   94SAPE   H8Y 9347   5.226   3.937   5.890  0.5358  1.3313 -1.5113
   94SAPE   C39 9348   5.071   3.928   5.736  0.1472  0.4793 -0.1274
   94SAPE   H9X 9349   5.028   4.029   5.756  2.6358  1.8295 -1.2158
   94SAPE   H9Y 9350   4.990   3.856   5.711 -1.1260  0.0049  4.3161
   94SAPE  C310 9351   5.168   3.949   5.619  0.1721  0.3926 -0.4051
   94SAPE  H10X 9352   5.258   4.004   5.654  0.5132 -0.2559 -0.2510
   94SAPE  H10Y 9353   5.129   4.023   5.546 -1.6598  1.6239  1.6675
   94SAPE  C311 9354   5.214   3.824   5.548 -0.5421  0.1657  0.4165
   94SAPE  H11X 9355   5.129   3.789   5.485 -1.0682  1.6983  0.2427
   94SAPE  H11Y 9356   5.256   3.748   5.617  0.0722  0.0111 -0.1190
   94SAPE  C312 9357   5.334   3.840   5.453 -0.6964  0.4851 -0.1220
   94SAPE  H12X 9358   5.348   3.746   5.395 -2.7984  0.2432 -0.3271
   94SAPE  H12Y 9359   5.424   3.846   5.517 -0.5320 -2.0831 -0.0027
   94SAPE  C313 9360   5.313   3.957   5.357  0.1161 -0.5327  0.1001
   94SAPE  H13X 9361   5.402   3.974   5.291  1.6698  0.4011  2.3171
   94SAPE  H13Y 9362   5.310   4.053   5.412  0.7417 -0.4578  0.0182
   94SAPE  C314 9363   5.187   3.936   5.269  0.4862 -0.6528 -0.2356
   94SAPE  H14X 9364   5.098   3.925   5.334  0.0776  3.0705  0.0413
   94SAPE  H14Y 9365   5.195   3.842   5.211 -1.9217  1.0428 -3.6229
   94SAPE  C315 9366   5.153   4.046   5.170 -0.5027 -0.3003  0.1400
   94SAPE  H15X 9367   5.246   4.070   5.115 -0.8709 -0.9210 -0.7709
   94SAPE  H15Y 9368   5.121   4.137   5.225  0.2463  0.5695 -0.8117
   94SAPE  C316 9369   5.051   4.000   5.060 -0.3131 -0.3876 -0.4327
   94SAPE  H16X 9370   4.975   3.930   5.102 -1.3240  0.2553 -1.1359
   94SAPE  H16Y 9371   5.104   3.949   4.978  0.7481 -0.6967  0.4306
   94SAPE  C317 9372   4.984   4.121   4.993  0.9886 -0.1914  0.2629
   94SAPE  H17X 9373   4.901   4.080   4.930  0.1597 -1.5989  2.1593
   94SAPE  H17Y 9374   5.064   4.174   4.937  0.8891 -0.6816 -0.3552
   94SAPE  C318 9375   4.927   4.227   5.090  0.0029 -0.0387  0.7977
   94SAPE  H18X 9376   4.849   4.284   5.035  0.2780 -1.6085 -1.3714
   94SAPE  H18Y 9377   5.008   4.301   5.110 -0.2938  0.2719  0.8561
   94SAPE  H18Z 9378   4.899   4.178   5.186 -1.5066 -2.6081 -0.8276
   95SAPE     N 9379   2.196   2.836   6.942  0.4204 -0.1526  0.7552
   95SAPE   HN1 9380   2.187   2.906   7.018 -1.2418 -0.9330  1.3214
   95SAPE   HN2 9381   2.209   2.738   6.972 -0.1624 -0.7497 -0.8108
   95SAPE   HN3 9382   2.272   2.867   6.878 -0.4439 -1.0565 -0.7746
   95SAPE   C12 9383   2.070   2.844   6.863 -0.5959  0.4873  0.2623
   95SAPE  H12A 9384   2.067   2.953   6.838  1.3813  0.1815 -1.6156
   95SAPE  H12B 9385   1.989   2.810   6.931 -1.6695 -0.2164 -1.2965
   95SAPE   C11 9386   2.073   2.755   6.734  1.0514  0.1934  0.0692
   95SAPE  H11A 9387   2.161   2.790   6.675  1.4367  0.4368  0.7676
   95SAPE  H11B 9388   1.989   2.779   6.665  1.4368  1.8169  0.1088
   95SAPE     P 9389   1.962   2.528   6.754  0.1168  0.3161  0.2025
   95SAPE   O13 9390   1.990   2.388   6.799 -0.4830  0.6583  0.9766
   95SAPE   O14 9391   1.852   2.598   6.819  0.2968 -0.1686  0.0167
   95SAPE   O12 9392   2.092   2.616   6.767 -0.0108 -0.3257 -0.1403
   95SAPE   O11 9393   1.930   2.529   6.597  0.0925 -0.2865 -0.5003
   95SAPE    C1 9394   2.036   2.499   6.504  0.2811  0.2427  0.2020
   95SAPE    HA 9395   2.137   2.530   6.537  0.0512  0.4037  0.7600
   95SAPE    HB 9396   2.033   2.388   6.502  2.2797  0.1620 -0.2488
   95SAPE    C2 9397   2.002   2.540   6.356  0.2135 -0.3613 -0.7237
   95SAPE    HS 9398   2.085   2.510   6.289  1.1954 -0.9352  0.6999
   95SAPE   O21 9399   1.989   2.683   6.358  0.3018 -1.1688  0.4027
   95SAPE   C21 9400   2.108   2.742   6.354  0.2094 -0.4978 -0.1043
   95SAPE   O22 9401   2.211   2.685   6.329  0.3640  0.5524 -0.5124
   95SAPE   C22 9402   2.090   2.898   6.383  0.2727  0.7375  0.0984
   95SAPE   H2R 9403   2.006   2.929   6.317  0.0150 -3.1442 -1.6817
   95SAPE   H2S 9404   2.072   2.898   6.493  2.5416 -0.4929  0.5416
   95SAPE    C3 9405   1.870   2.480   6.306 -0.9065  0.5955 -0.0613
   95SAPE    HX 9406   1.784   2.513   6.368 -0.1970  1.0616  0.6998
   95SAPE    HY 9407   1.883   2.370   6.319  2.2692  0.8935  0.1904
   95SAPE   O31 9408   1.839   2.511   6.169  0.1256 -0.4505 -0.1109
   95SAPE   C31 9409   1.865   2.422   6.077 -0.6393 -0.0537  0.4747
   95SAPE   O32 9410   1.923   2.317   6.090  0.2361 -0.1012  0.1991
   95SAPE   C32 9411   1.799   2.479   5.947 -0.0106 -0.5273  0.2296
   95SAPE   H2X 9412   1.803   2.589   5.938  1.4571 -0.6713 -1.5811
   95SAPE   H2Y 9413   1.693   2.445   5.956 -0.8814  1.7247 -0.8517
   95SAPE   C23 9414   2.222   2.976   6.358  0.3811 -0.6567 -0.2046
   95SAPE   H3R 9415   2.230   2.991   6.249 -2.8769 -0.3263 -0.5074
   95SAPE   H3S 9416   2.311   2.922   6.398 -0.4847 -0.4598  2.1780
   95SAPE   C24 9417   2.220   3.107   6.448 -0.6426  0.7536  0.0763
   95SAPE   H4R 9418   2.313   3.159   6.415 -0.6563  0.6662 -0.0999
   95SAPE   H4S 9419   2.231   3.079   6.555  0.2280  0.0936 -0.1735
   95SAPE   C25 9420   2.097   3.187   6.423 -0.1783 -0.0649  0.2946
   95SAPE   H5R 9421   2.019   3.167   6.498  0.7948 -1.2918  1.0058
   95SAPE   C26 9422   2.082   3.274   6.324  0.6860  0.0875  0.1439
   95SAPE   H6R 9423   1.985   3.324   6.308  1.9571  2.2811 -1.0082
   95SAPE   C27 9424   2.171   3.302   6.211  0.2571 -0.1373 -0.1335
   95SAPE   H7R 9425   2.276   3.285   6.243 -0.6689 -0.6766  2.9922
   95SAPE   H7S 9426   2.178   3.408   6.177  0.4310 -0.4356 -1.0272
   95SAPE   C28 9427   2.134   3.210   6.095  0.0222 -0.3868  0.1650
   95SAPE   H8R 9428   2.061   3.131   6.119 -0.8316  0.9188  2.1359
   95SAPE   C29 9429   2.204   3.208   5.979 -0.0822 -0.0646  0.2465
   95SAPE   H9R 9430   2.185   3.129   5.905  0.1086 -1.2152  1.3877
   95SAPE  C210 9431   2.307   3.307   5.932  0.1928 -0.1638 -0.2804
   95SAPE  H10R 9432   2.278   3.413   5.952 -1.1597 -0.5955  0.1346
   95SAPE  H10S 9433   2.313   3.312   5.821  3.2834  1.0714 -0.1611
   95SAPE  C211 9434   2.441   3.277   5.995 -0.3144 -0.5268  0.0791
   95SAPE  H11R 9435   2.446   3.186   6.057 -3.4440  0.0643  1.3776
   95SAPE  C212 9436   2.547   3.364   5.985  0.0723  0.0932 -0.1964
   95SAPE  H12R 9437   2.648   3.332   6.017 -0.4373  0.4656  1.9448
   95SAPE  C213 9438   2.540   3.498   5.911 -0.5097 -0.0205  0.3922
   95SAPE  H13R 9439   2.540   3.573   5.993  1.8918  0.7180 -0.1979
   95SAPE  H13S 9440   2.452   3.515   5.845 -1.5342  1.1431  1.9872
   95SAPE  C214 9441   2.661   3.530   5.827  0.5756 -0.8728  0.9000
   95SAPE  H14R 9442   2.728   3.606   5.869  0.8211  0.1512 -1.2485
   95SAPE  C215 9443   2.701   3.469   5.720 -0.1355 -0.4951  0.8662
   95SAPE  H15R 9444   2.795   3.500   5.672 -1.2084  1.0388 -0.3627
   95SAPE  C216 9445   2.627   3.360   5.646  0.1711  0.2358 -0.6752
   95SAPE  H16R 9446   2.544   3.320   5.708  1.2472  0.3867  0.9224
   95SAPE  H16S 9447   2.698   3.281   5.613  0.3528  0.1369 -0.0525
   95SAPE  C217 9448   2.567   3.412   5.514 -0.0666 -0.5355  0.2623
   95SAPE  H17R 9449   2.650   3.422   5.441  2.0546  0.1391  2.6488
   95SAPE  H17S 9450   2.537   3.515   5.543 -1.6253 -1.2131  1.2118
   95SAPE  C218 9451   2.453   3.332   5.453 -0.3768  0.3861 -0.7055
   95SAPE  H18R 9452   2.377   3.305   5.528  0.1219 -3.7746 -1.4612
   95SAPE  H18S 9453   2.487   3.234   5.413 -3.1243 -1.4265  1.0722
   95SAPE  C219 9454   2.397   3.412   5.328 -0.2284  0.2372  0.3174
   95SAPE  H19R 9455   2.488   3.445   5.274 -0.3225  1.0996  0.6558
   95SAPE  H19S 9456   2.349   3.507   5.362 -1.4852  0.1240 -1.0640
   95SAPE  C220 9457   2.297   3.325   5.245  0.0151  0.1656  0.1887
   95SAPE  H20R 9458   2.274   3.354   5.141  2.1094  0.5955 -0.2063
   95SAPE  H20S 9459   2.201   3.305   5.297 -0.3677  2.1241  0.3174
   95SAPE  H20T 9460   2.346   3.226   5.249  0.2316  0.2915  1.0010
   95SAPE   C33 9461   1.863   2.430   5.810  0.4652 -0.5052  0.0595
   95SAPE   H3X 9462   1.781   2.406   5.738  0.8261 -3.3320  0.4797
   95SAPE   H3Y 9463   1.926   2.341   5.830  0.4300 -0.0723  2.3816
   95SAPE   C34 9464   1.966   2.534   5.750 -0.2664 -0.1154  0.2933
   95SAPE   H4X 9465   2.024   2.556   5.842 -0.8417  1.1906  0.3620
   95SAPE   H4Y 9466   1.897   2.618   5.727 -2.7283 -1.2903  2.7211
   95SAPE   C35 9467   2.053   2.489   5.634  0.0822  0.4091  0.1652
   95SAPE   H5X 9468   2.134   2.420   5.665 -0.5630 -1.4084 -1.9013
   95SAPE   H5Y 9469   2.105   2.574   5.585 -1.3932  1.3335  0.1407
   95SAPE   C36 9470   1.991   2.414   5.515 -0.3257  0.7145 -0.6074
   95SAPE   H6X 9471   1.916   2.478   5.464 -1.2183  1.9372  2.0338
   95SAPE   H6Y 9472   1.938   2.321   5.545 -0.4504  0.8936 -0.2682
   95SAPE   C37 9473   2.090   2.370   5.403 -0.6388 -0.2290 -0.1388
   95SAPE   H7X 9474   2.157   2.285   5.427  0.6618  0.6124 -0.6473
   95SAPE   H7Y 9475   2.156   2.457   5.382  1.0095 -1.8544 -2.0491
   95SAPE   C38 9476   2.019   2.331   5.270  0.2919 -0.6247  0.2266
   95SAPE   H8X 9477   1.957   2.420   5.244  2.0126  0.6931  0.4365
   95SAPE   H8Y 9478   1.950   2.245   5.283 -0.8612  0.3280  0.6500
   95SAPE   C39 9479   2.114   2.313   5.146  0.2771  0.2172 -0.3787
   95SAPE   H9X 9480   2.186   2.235   5.179 -1.7103 -1.5804 -0.0741
   95SAPE   H9Y 9481   2.169   2.407   5.125 -0.7923  0.1917 -4.0293
   95SAPE  C310 9482   2.042   2.261   5.024 -0.2616 -0.8388  0.1554
   95SAPE  H10X 9483   1.953   2.326   5.015  0.6788  0.3258 -1.1972
   95SAPE  H10Y 9484   1.998   2.161   5.041 -1.4197 -0.2580  0.6609
   95SAPE  C311 9485   2.120   2.271   4.891  0.1473  0.5288  0.3811
   95SAPE  H11X 9486   2.191   2.186   4.886 -0.1617  0.2395  0.8219
   95SAPE  H11Y 9487   2.177   2.366   4.893  2.0395 -0.5545 -0.0905
   95SAPE  C312 9488   2.025   2.269   4.767  0.1826  0.2388 -0.4279
   95SAPE  H12X 9489   1.950   2.351   4.777  0.5387  0.4044  1.0903
   95SAPE  H12Y 9490   1.975   2.170   4.772 -0.2474  0.5076  1.1954
   95SAPE  C313 9491   2.101   2.273   4.634  0.8929  0.6981  0.2575
   95SAPE  H13X 9492   2.178   2.193   4.636  0.1214 -0.1583 -1.7323
   95SAPE  H13Y 9493   2.161   2.366   4.620 -0.8189  1.5445 -2.0351
   95SAPE  C314 9494   1.995   2.261   4.522 -0.1672 -0.9015 -0.0930
   95SAPE  H14X 9495   1.929   2.350   4.530  2.7053  1.2697  0.8592
   95SAPE  H14Y 9496   1.931   2.171   4.532 -2.0838 -0.1110 -3.6270
   95SAPE  C315 9497   2.070   2.267   4.391  0.0339  0.4141  0.0416
   95SAPE  H15X 9498   2.148   2.188   4.393 -0.3957 -0.0083  0.5437
   95SAPE  H15Y 9499   2.122   2.365   4.393  3.1783 -1.1423  1.2589
   95SAPE  C316 9500   1.983   2.236   4.265 -0.4055 -0.6870 -0.2696
   95SAPE  H16X 9501   1.961   2.127   4.263 -0.2784 -0.7430  0.8364
   95SAPE  H16Y 9502   2.038   2.238   4.168 -1.0482 -0.1511 -0.6296
   95SAPE  C317 9503   1.843   2.304   4.256 -0.1923 -0.9845  0.6511
   95SAPE  H17X 9504   1.842   2.414   4.237  0.6319 -0.9829  0.5894
   95SAPE  H17Y 9505   1.788   2.294   4.351 -1.6168 -0.1162 -0.0439
   95SAPE  C318 9506   1.771   2.249   4.134  0.4676 -0.6381  0.0370
   95SAPE  H18X 9507   1.816   2.253   4.033 -1.0422 -0.6259 -0.6741
   95SAPE  H18Y 9508   1.672   2.299   4.125  0.4301 -0.7479 -0.1867
   95SAPE  H18Z 9509   1.739   2.145   4.156 -2.3909  0.0589 -0.3563
   96SAPE     N 9510   5.256   5.374   6.869 -0.6048 -0.3185  0.7291
   96SAPE   HN1 9511   5.310   5.355   6.955 -1.0016 -0.0757  1.0344
   96SAPE   HN2 9512   5.213   5.284   6.840 -0.9221 -0.1623  0.7078
   96SAPE   HN3 9513   5.322   5.390   6.790 -0.1736  0.2965  1.2026
   96SAPE   C12 9514   5.144   5.467   6.885 -0.5533  0.0964 -0.3290
   96SAPE  H12A 9515   5.185   5.569   6.899  0.4437 -0.2100 -0.8569
   96SAPE  H12B 9516   5.081   5.433   6.969 -0.0084  0.4603  0.2351
   96SAPE   C11 9517   5.054   5.462   6.758 -0.2444 -0.1452  0.1671
   96SAPE  H11A 9518   5.119   5.491   6.673  0.1101 -0.6962  0.2422
   96SAPE  H11B 9519   4.974   5.538   6.745 -0.5389 -0.6691 -1.3400
   96SAPE     P 9520   4.889   5.311   6.626  0.5516  0.5088  0.3054
   96SAPE   O13 9521   4.853   5.167   6.627 -0.5110 -0.4588 -0.3226
   96SAPE   O14 9522   4.781   5.405   6.643  0.5513 -0.2131  0.1585
   96SAPE   O12 9523   5.004   5.334   6.733  0.3093  0.1296  0.1284
   96SAPE   O11 9524   4.957   5.334   6.486 -0.3852 -0.0385 -0.0571
   96SAPE    C1 9525   5.096   5.306   6.448 -0.4267  0.2535  0.0660
   96SAPE    HA 9526   5.154   5.398   6.427  1.3503 -0.8376 -0.0565
   96SAPE    HB 9527   5.151   5.251   6.527  0.6366 -0.9575 -1.4539
   96SAPE    C2 9528   5.092   5.207   6.329 -0.1929  0.1360 -0.8239
   96SAPE    HS 9529   5.192   5.191   6.282  0.6375  0.5364  0.7413
   96SAPE   O21 9530   4.993   5.246   6.228  0.1193  0.1585 -0.7029
   96SAPE   C21 9531   5.018   5.359   6.170  0.4143 -0.3432  0.3901
   96SAPE   O22 9532   5.126   5.415   6.175  0.1689 -0.2151 -0.1925
   96SAPE   C22 9533   4.901   5.403   6.091 -0.1018  0.2153 -0.5125
   96SAPE   H2R 9534   4.810   5.375   6.148 -1.4216  2.3012 -1.4519
   96SAPE   H2S 9535   4.902   5.514   6.084 -0.0334  0.2397 -0.1167
   96SAPE    C3 9536   5.051   5.064   6.377  0.3836  0.1776 -0.1944
   96SAPE    HX 9537   4.947   5.068   6.417 -0.3611 -3.6218 -1.3596
   96SAPE    HY 9538   5.121   5.039   6.459  0.7009 -0.3563 -0.6194
   96SAPE   O31 9539   5.077   4.973   6.276 -0.6004 -0.1214  0.0152
   96SAPE   C31 9540   4.993   4.926   6.188  0.3685  0.4849  0.2288
   96SAPE   O32 9541   4.876   4.963   6.176 -0.0088 -0.4119 -0.2687
   96SAPE   C32 9542   5.064   4.834   6.096  0.1516  1.2118  0.0076
   96SAPE   H2X 9543   5.025   4.731   6.108 -2.4761  2.0406 -0.6876
   96SAPE   H2Y 9544   5.171   4.821   6.122 -0.2685  1.3806  2.0468
   96SAPE   C23 9545   4.904   5.335   5.952 -0.3828  0.1984 -0.1668
   96SAPE   H3R 9546   4.811   5.354   5.894 -0.3709 -4.1551 -2.0300
   96SAPE   H3S 9547   4.908   5.224   5.953  1.1784  0.2091 -0.7147
   96SAPE   C24 9548   5.025   5.379   5.861  0.1075  0.2381  1.0965
   96SAPE   H4R 9549   5.107   5.410   5.929  1.1532  1.0915 -0.5006
   96SAPE   H4S 9550   4.985   5.473   5.817  0.2698  0.2171  0.9037
   96SAPE   C25 9551   5.079   5.283   5.752  0.2488 -0.5174  0.0291
   96SAPE   H5R 9552   5.122   5.191   5.793 -0.9494 -1.4676 -0.7530
   96SAPE   C26 9553   5.098   5.307   5.624  0.0200  0.0201  0.5016
   96SAPE   H6R 9554   5.151   5.240   5.555 -0.3624 -0.1462  0.3668
   96SAPE   C27 9555   5.061   5.437   5.558 -0.1810  0.2177 -0.5705
   96SAPE   H7R 9556   5.150   5.471   5.500  0.6431  0.2321  0.6601
   96SAPE   H7S 9557   5.050   5.518   5.633  1.1309 -0.2239  0.1247
   96SAPE   C28 9558   4.929   5.443   5.484 -0.0098  0.0454  0.4736
   96SAPE   H8R 9559   4.843   5.469   5.548 -0.4929 -2.9263  1.2079
   96SAPE   C29 9560   4.899   5.424   5.353 -0.1159  0.1674  0.2872
   96SAPE   H9R 9561   4.794   5.424   5.318 -0.3069  1.4048  0.8154
   96SAPE  C210 9562   4.990   5.384   5.244  0.8759 -1.3264  0.2633
   96SAPE  H10R 9563   5.096   5.378   5.277  1.9450  1.1540 -2.2163
   96SAPE  H10S 9564   4.988   5.454   5.157  3.2578 -1.8240 -0.2624
   96SAPE  C211 9565   4.952   5.246   5.189  0.7999 -0.5776  0.1340
   96SAPE  H11R 9566   4.963   5.169   5.267  0.5493 -1.5438 -0.7566
   96SAPE  C212 9567   4.907   5.215   5.064  0.0020  0.4981  1.2569
   96SAPE  H12R 9568   4.883   5.110   5.043 -1.5999  1.2916 -1.4424
   96SAPE  C213 9569   4.893   5.306   4.944 -0.4244 -0.1740 -0.4057
   96SAPE  H13R 9570   4.884   5.409   4.985  2.8713 -0.9629  2.9050
   96SAPE  H13S 9571   4.798   5.286   4.890  0.3215 -2.9423 -0.8365
   96SAPE  C214 9572   5.024   5.295   4.872 -0.5293 -0.0176 -0.7121
   96SAPE  H14R 9573   5.113   5.341   4.917 -0.3188 -1.4780  0.4530
   96SAPE  C215 9574   5.041   5.223   4.759  1.1009  0.3156  0.0212
   96SAPE  H15R 9575   5.138   5.201   4.712  0.5560 -1.6018 -0.3125
   96SAPE  C216 9576   4.933   5.142   4.694 -0.2409  0.1879  0.2274
   96SAPE  H16R 9577   4.861   5.095   4.765  1.0906 -1.9948  0.2118
   96SAPE  H16S 9578   4.981   5.055   4.644  0.7168 -0.3045  1.9319
   96SAPE  C217 9579   4.860   5.224   4.588 -0.2246  0.0599 -0.3572
   96SAPE  H17R 9580   4.820   5.325   4.613 -1.0122  0.0931 -1.6722
   96SAPE  H17S 9581   4.778   5.159   4.552 -1.4304  1.6406 -0.5811
   96SAPE  C218 9582   4.957   5.249   4.480  0.3927  0.7598 -0.1719
   96SAPE  H18R 9583   5.042   5.177   4.474 -1.3938 -1.3873 -4.2040
   96SAPE  H18S 9584   5.011   5.346   4.485  1.5059  0.3476 -2.4935
   96SAPE  C219 9585   4.882   5.261   4.341  0.4854  0.0870  0.5869
   96SAPE  H19R 9586   4.943   5.328   4.277  0.8278  0.6541  1.4862
   96SAPE  H19S 9587   4.780   5.304   4.351  0.5897  0.4219  0.2069
   96SAPE  C220 9588   4.881   5.126   4.264  0.4229  0.7212  0.0108
   96SAPE  H20R 9589   4.982   5.095   4.228  0.5863  2.0478 -0.7284
   96SAPE  H20S 9590   4.816   5.146   4.176 -1.0310 -0.3296  0.8044
   96SAPE  H20T 9591   4.836   5.040   4.319  1.5866 -0.6101 -1.0333
   96SAPE   C33 9592   5.052   4.889   5.952 -0.2461 -1.1513 -0.8304
   96SAPE   H3X 9593   5.094   4.991   5.958 -1.5798 -0.6497  3.0794
   96SAPE   H3Y 9594   4.942   4.893   5.935 -0.1021 -0.1461 -1.6661
   96SAPE   C34 9595   5.122   4.807   5.848 -0.4035 -0.3177  0.2602
   96SAPE   H4X 9596   5.069   4.710   5.839  0.6677 -0.7183 -3.6800
   96SAPE   H4Y 9597   5.225   4.768   5.860  0.1818  0.9674 -0.3583
   96SAPE   C35 9598   5.113   4.877   5.713  0.3741 -0.3580  0.5303
   96SAPE   H5X 9599   5.155   4.978   5.736 -0.1204 -0.2934  1.1825
   96SAPE   H5Y 9600   5.005   4.891   5.692  0.0514 -0.6918  1.8237
   96SAPE   C36 9601   5.184   4.798   5.596 -0.2889  0.1915 -0.0061
   96SAPE   H6X 9602   5.168   4.688   5.589  2.0367 -0.1587 -0.6801
   96SAPE   H6Y 9603   5.294   4.811   5.601 -0.2293  0.1017 -0.9229
   96SAPE   C37 9604   5.145   4.855   5.453  0.2405 -0.3764  0.0400
   96SAPE   H7X 9605   5.216   4.817   5.376 -0.1486  4.1864 -2.9410
   96SAPE   H7Y 9606   5.157   4.965   5.454 -0.1973 -0.3271  0.0631
   96SAPE   C38 9607   4.997   4.814   5.410 -0.4504 -1.1101 -0.2071
   96SAPE   H8X 9608   4.927   4.857   5.485 -0.7794 -2.5776  0.3719
   96SAPE   H8Y 9609   4.984   4.705   5.426 -2.2971 -0.8208  0.5642
   96SAPE   C39 9610   4.954   4.845   5.267  0.3258 -0.2148 -0.0177
   96SAPE   H9X 9611   4.977   4.949   5.235 -0.0280  0.2351  1.1405
   96SAPE   H9Y 9612   4.844   4.838   5.265  0.3313 -0.4152  0.4961
   96SAPE  C310 9613   4.997   4.749   5.152  0.2370 -0.4962 -0.1910
   96SAPE  H10X 9614   4.991   4.640   5.171 -0.1065 -0.8929 -2.2504
   96SAPE  H10Y 9615   5.103   4.768   5.127 -0.1511  1.0618 -0.8137
   96SAPE  C311 9616   4.916   4.778   5.025 -0.1528 -0.3396 -0.3684
   96SAPE  H11X 9617   4.917   4.888   5.009 -3.2227 -0.0479  0.6983
   96SAPE  H11Y 9618   4.808   4.763   5.047 -0.0585  1.1572  1.3597
   96SAPE  C312 9619   4.970   4.700   4.905  0.0746 -0.3497 -0.2479
   96SAPE  H12X 9620   4.982   4.593   4.932  1.4400 -0.2224 -0.2926
   96SAPE  H12Y 9621   5.063   4.747   4.867  0.3774 -1.0733 -0.4113
   96SAPE  C313 9622   4.870   4.697   4.788  0.2628 -0.5072 -0.3200
   96SAPE  H13X 9623   4.885   4.785   4.722 -0.5819  0.3103  0.5339
   96SAPE  H13Y 9624   4.771   4.722   4.831  1.7420  2.3654  1.8227
   96SAPE  C314 9625   4.887   4.568   4.701  0.0040 -0.3650 -0.1762
   96SAPE  H14X 9626   4.846   4.477   4.750  0.2252 -0.6521 -0.5162
   96SAPE  H14Y 9627   4.995   4.549   4.683 -0.5155 -3.4206 -0.7180
   96SAPE  C315 9628   4.806   4.567   4.566 -0.3567  0.1258  0.3753
   96SAPE  H15X 9629   4.698   4.566   4.593 -0.5752 -2.0670 -0.4587
   96SAPE  H15Y 9630   4.838   4.475   4.514 -0.7554  0.3041 -0.1966
   96SAPE  C316 9631   4.833   4.695   4.483 -0.2068  0.8446  0.5307
   96SAPE  H16X 9632   4.943   4.694   4.464 -0.2896  1.8357 -0.0416
   96SAPE  H16Y 9633   4.786   4.783   4.530 -0.0177 -0.1001  2.5864
   96SAPE  C317 9634   4.764   4.677   4.343  0.6656  0.2531  0.7652
   96SAPE  H17X 9635   4.793   4.579   4.300  1.6644 -0.2627  2.4763
   96SAPE  H17Y 9636   4.807   4.759   4.281  1.1606  0.4029  1.2870
   96SAPE  C318 9637   4.610   4.689   4.349 -0.0042  0.0023  0.2543
   96SAPE  H18X 9638   4.555   4.621   4.417  1.1664 -0.4644  0.7534
   96SAPE  H18Y 9639   4.567   4.678   4.247 -1.7245  2.0914  0.6729
   96SAPE  H18Z 9640   4.572   4.791   4.371 -0.2129  0.3844 -1.6857
   97SAPE     N 9641   5.726   0.351   7.184 -0.2419 -0.3912  0.6503
   97SAPE   HN1 9642   5.702   0.423   7.255  0.6999 -1.6625  2.3305
   97SAPE   HN2 9643   5.737   0.391   7.089  0.6522  1.2353  1.3861
   97SAPE   HN3 9644   5.641   0.292   7.183  1.2139 -2.6440 -0.6681
   97SAPE   C12 9645   5.843   0.263   7.207 -0.1928  0.5832 -1.0519
   97SAPE  H12A 9646   5.831   0.210   7.304 -2.9958 -0.8819 -2.0971
   97SAPE  H12B 9647   5.934   0.328   7.208 -0.5334  1.0613 -0.1197
   97SAPE   C11 9648   5.858   0.158   7.097  0.5797 -0.6016  0.3917
   97SAPE  H11A 9649   5.760   0.109   7.077  0.3343 -0.5949  1.5408
   97SAPE  H11B 9650   5.929   0.079   7.129  0.9351 -0.3420  0.2468
   97SAPE     P 9651   5.864   0.177   6.837  0.5578 -0.4416 -0.1340
   97SAPE   O13 9652   5.854   0.034   6.829  0.3693  0.6621 -0.1228
   97SAPE   O14 9653   5.752   0.263   6.792 -0.3130 -0.4754  0.0473
   97SAPE   O12 9654   5.912   0.220   6.976  0.3707 -0.1996 -0.3560
   97SAPE   O11 9655   5.990   0.221   6.756 -0.5790  0.0063 -0.2981
   97SAPE    C1 9656   6.028   0.353   6.724 -0.4582 -0.1096  0.0085
   97SAPE    HA 9657   6.002   0.422   6.807  3.0918  2.2458 -0.6585
   97SAPE    HB 9658   6.138   0.358   6.718 -0.2904 -0.2089  2.1323
   97SAPE    C2 9659   5.960   0.396   6.592 -0.5162  0.5363 -0.0248
   97SAPE    HS 9660   5.852   0.390   6.618 -0.5610  0.6636 -0.1832
   97SAPE   O21 9661   5.999   0.302   6.489 -0.4828 -0.4609  0.5731
   97SAPE   C21 9662   5.897   0.245   6.420 -0.4807 -0.2407  0.2545
   97SAPE   O22 9663   5.795   0.205   6.469 -0.2187 -0.2481 -0.2044
   97SAPE   C22 9664   5.947   0.209   6.281 -0.3936 -0.6686  0.4449
   97SAPE   H2R 9665   5.999   0.293   6.230 -2.3205 -1.6090 -3.4563
   97SAPE   H2S 9666   6.023   0.128   6.292  0.7032  0.1545 -0.7579
   97SAPE    C3 9667   5.982   0.542   6.555 -0.3269 -0.5605 -0.0949
   97SAPE    HX 9668   6.089   0.562   6.531 -0.5208  2.3603  1.1340
   97SAPE    HY 9669   5.981   0.606   6.645  0.3598 -0.3887 -0.2050
   97SAPE   O31 9670   5.886   0.587   6.460 -0.2433 -1.0411 -0.0894
   97SAPE   C31 9671   5.928   0.598   6.335 -1.0000  0.3911 -1.1616
   97SAPE   O32 9672   6.040   0.572   6.295 -0.1722  0.5168  0.2264
   97SAPE   C32 9673   5.808   0.657   6.251  0.6568  0.5882 -0.4271
   97SAPE   H2X 9674   5.796   0.759   6.294 -1.8123  0.6709 -1.1737
   97SAPE   H2Y 9675   5.715   0.601   6.273 -0.8552  2.2683 -2.1821
   97SAPE   C23 9676   5.828   0.178   6.178 -0.7998 -0.1169  0.6255
   97SAPE   H3R 9677   5.757   0.263   6.173 -0.1670  0.3669 -0.6274
   97SAPE   H3S 9678   5.768   0.094   6.217 -1.4520 -0.5676 -1.2807
   97SAPE   C24 9679   5.884   0.165   6.024 -0.3168  0.0319 -0.1204
   97SAPE   H4R 9680   5.951   0.249   5.995  0.8591 -0.9508 -0.3201
   97SAPE   H4S 9681   5.796   0.163   5.957 -1.7819  0.9617  1.6592
   97SAPE   C25 9682   5.960   0.035   6.026  0.5312  0.3841  0.4245
   97SAPE   H5R 9683   5.960  -0.024   6.119  0.2263 -1.2109 -0.5451
   97SAPE   C26 9684   6.007  -0.028   5.917 -0.0130  0.4836  0.8164
   97SAPE   H6R 9685   6.055  -0.125   5.941  0.6506  1.1941  2.5177
   97SAPE   C27 9686   6.004   0.029   5.772  0.0328 -0.2289  0.4282
   97SAPE   H7R 9687   5.970   0.134   5.762  1.8481  0.3451 -0.0291
   97SAPE   H7S 9688   5.946  -0.033   5.700  2.0945 -1.5353 -0.1796
   97SAPE   C28 9689   6.146   0.027   5.719  0.0218  0.1484  0.0199
   97SAPE   H8R 9690   6.225  -0.011   5.785  2.2349  2.0571 -1.3662
   97SAPE   C29 9691   6.175   0.027   5.587  0.5895 -0.6850  0.2048
   97SAPE   H9R 9692   6.279   0.013   5.555  0.8776 -0.8597  1.2058
   97SAPE  C210 9693   6.082   0.044   5.474 -0.5387 -0.3070 -0.1643
   97SAPE  H10R 9694   5.975   0.060   5.498 -0.1757  0.0565  1.2960
   97SAPE  H10S 9695   6.082  -0.049   5.413  1.9447 -0.3703 -0.1531
   97SAPE  C211 9696   6.136   0.156   5.389  0.2477 -0.4439 -0.1520
   97SAPE  H11R 9697   6.199   0.236   5.433  0.0747 -1.1424  1.4388
   97SAPE  C212 9698   6.094   0.181   5.266  0.1567 -0.0063 -0.0771
   97SAPE  H12R 9699   6.142   0.263   5.212  0.4030  0.8428  1.3751
   97SAPE  C213 9700   6.004   0.094   5.181  0.4030  0.1204 -1.3118
   97SAPE  H13R 9701   5.955   0.158   5.105 -0.1513 -0.1713 -1.2016
   97SAPE  H13S 9702   5.925   0.063   5.253  0.5467  0.6614 -0.9129
   97SAPE  C214 9703   6.067  -0.024   5.108 -0.4118 -0.2561  0.5580
   97SAPE  H14R 9704   6.153  -0.073   5.158  1.3583  0.2540 -1.8240
   97SAPE  C215 9705   6.015  -0.083   4.998 -0.6835  0.7511  0.9278
   97SAPE  H15R 9706   6.069  -0.165   4.948 -2.0719  1.2759 -1.6112
   97SAPE  C216 9707   5.889  -0.047   4.926  0.5607  0.0662  0.1880
   97SAPE  H16R 9708   5.890  -0.038   4.815  0.0291 -0.4123  0.1378
   97SAPE  H16S 9709   5.833   0.038   4.970 -0.3857 -0.7674  0.6427
   97SAPE  C217 9710   5.793  -0.165   4.958  0.0005  0.3446  0.0111
   97SAPE  H17R 9711   5.774  -0.191   5.065  1.2573 -0.9846 -0.0555
   97SAPE  H17S 9712   5.836  -0.259   4.916 -0.7924 -0.2716  0.5216
   97SAPE  C218 9713   5.655  -0.146   4.891  0.1889 -0.2527 -0.3071
   97SAPE  H18R 9714   5.664  -0.119   4.784  0.0038  1.2452  0.0380
   97SAPE  H18S 9715   5.615  -0.050   4.930 -1.5911 -0.8404 -0.6062
   97SAPE  C219 9716   5.550  -0.259   4.909 -0.2433  0.3157  0.5358
   97SAPE  H19R 9717   5.504  -0.259   5.010 -0.5951 -1.9712  0.4164
   97SAPE  H19S 9718   5.610  -0.352   4.903 -0.5370  0.1725 -0.3818
   97SAPE  C220 9719   5.450  -0.282   4.799 -0.7113  0.0139 -0.4365
   97SAPE  H20R 9720   5.383  -0.194   4.811  0.0293  0.4647  0.4693
   97SAPE  H20S 9721   5.387  -0.367   4.832 -0.6988  0.1777  0.0163
   97SAPE  H20T 9722   5.487  -0.298   4.695 -0.3529  0.2364 -0.3428
   97SAPE   C33 9723   5.835   0.661   6.100 -0.4126 -0.6117  0.4722
   97SAPE   H3X 9724   5.941   0.687   6.083 -0.7881  2.2256  1.8549
   97SAPE   H3Y 9725   5.767   0.734   6.051 -0.4213 -1.3456 -0.6229
   97SAPE   C34 9726   5.806   0.531   6.025  0.3554  0.2195  0.9878
   97SAPE   H4X 9727   5.710   0.483   6.054 -1.3597  1.5739 -1.8926
   97SAPE   H4Y 9728   5.891   0.462   6.041  0.4862  0.3365  0.8106
   97SAPE   C35 9729   5.789   0.557   5.875  0.7365  0.1415  0.8312
   97SAPE   H5X 9730   5.877   0.619   5.847  1.7639 -1.5646  0.1271
   97SAPE   H5Y 9731   5.693   0.612   5.865 -0.2173 -1.6385 -0.2426
   97SAPE   C36 9732   5.787   0.435   5.774 -0.1295  0.0592  0.7614
   97SAPE   H6X 9733   5.683   0.394   5.773 -0.4522  0.7080 -2.6606
   97SAPE   H6Y 9734   5.862   0.360   5.807  1.8277  0.3649 -2.5451
   97SAPE   C37 9735   5.819   0.465   5.629  0.3200 -0.1463  0.3616
   97SAPE   H7X 9736   5.851   0.373   5.575 -2.2453 -1.7990  1.4273
   97SAPE   H7Y 9737   5.901   0.538   5.640  1.2064 -0.9686 -0.5551
   97SAPE   C38 9738   5.693   0.513   5.553 -0.2081 -0.7390  0.0941
   97SAPE   H8X 9739   5.678   0.616   5.592 -0.4911 -0.3779 -0.9184
   97SAPE   H8Y 9740   5.597   0.459   5.569 -1.2758  0.1907 -2.5500
   97SAPE   C39 9741   5.724   0.526   5.406 -0.0986 -0.2258  0.3017
   97SAPE   H9X 9742   5.820   0.576   5.381 -0.9063  1.8905  1.1869
   97SAPE   H9Y 9743   5.659   0.606   5.364 -2.8905 -1.7085  1.4791
   97SAPE  C310 9744   5.701   0.389   5.322 -0.4986 -0.0178  0.5227
   97SAPE  H10X 9745   5.591   0.374   5.326 -0.5273 -0.4094 -0.9807
   97SAPE  H10Y 9746   5.749   0.304   5.376 -0.4173 -0.3461 -0.0574
   97SAPE  C311 9747   5.760   0.404   5.185  0.0990  0.2158  0.4666
   97SAPE  H11X 9748   5.870   0.394   5.199  0.9192  0.4196 -4.1340
   97SAPE  H11Y 9749   5.733   0.502   5.142 -0.1341 -0.1114 -0.1516
   97SAPE  C312 9750   5.714   0.306   5.075 -0.8813  0.1830 -0.4228
   97SAPE  H12X 9751   5.708   0.203   5.118 -1.1620 -0.1498 -1.2479
   97SAPE  H12Y 9752   5.782   0.308   4.987  0.1963  1.2010  0.4058
   97SAPE  C313 9753   5.575   0.339   5.022  0.2593  0.0917  0.5902
   97SAPE  H13X 9754   5.570   0.447   4.995  0.4286  0.1601  0.8285
   97SAPE  H13Y 9755   5.504   0.336   5.108  1.7613  0.6001  1.9096
   97SAPE  C314 9756   5.533   0.251   4.908  0.2094 -0.2000  0.1466
   97SAPE  H14X 9757   5.517   0.153   4.958 -1.0195 -0.5323 -0.8743
   97SAPE  H14Y 9758   5.612   0.243   4.830 -1.2658 -2.5158 -1.2105
   97SAPE  C315 9759   5.404   0.294   4.838 -0.4908 -0.0313  0.8536
   97SAPE  H15X 9760   5.322   0.301   4.912 -0.1264  0.9976  1.1757
   97SAPE  H15Y 9761   5.365   0.215   4.770 -0.6058  0.9680 -0.2705
   97SAPE  C316 9762   5.423   0.425   4.753  0.0590 -0.4706 -0.6592
   97SAPE  H16X 9763   5.501   0.414   4.674  3.0912 -1.8611  2.3038
   97SAPE  H16Y 9764   5.460   0.503   4.823  1.4191 -1.0345 -0.7075
   97SAPE  C317 9765   5.295   0.484   4.692 -0.2432 -0.0303 -0.0519
   97SAPE  H17X 9766   5.226   0.504   4.777  0.2227 -0.2643  0.3905
   97SAPE  H17Y 9767   5.247   0.408   4.627 -1.4260  1.1937 -0.6411
   97SAPE  C318 9768   5.319   0.613   4.604  0.0008 -0.1776 -0.5772
   97SAPE  H18X 9769   5.219   0.644   4.564 -0.0352 -0.6504 -0.8686
   97SAPE  H18Y 9770   5.379   0.587   4.514  1.9662  1.1757  0.3039
   97SAPE  H18Z 9771   5.375   0.685   4.666  0.2942 -0.3205 -0.6775
   98SAPE     N 9772   3.559   6.473   6.484  0.2530 -0.0664  0.5744
   98SAPE   HN1 9773   3.598   6.401   6.549 -1.5118 -0.3030  1.4313
   98SAPE   HN2 9774   3.473   6.512   6.526 -0.8658  0.3392 -1.9209
   98SAPE   HN3 9775   3.529   6.415   6.403 -0.6618  0.7239  0.3369
   98SAPE   C12 9776   3.666   6.584   6.452  0.7668  0.3825  0.1964
   98SAPE  H12A 9777   3.628   6.649   6.370 -0.1103  0.1264  0.3912
   98SAPE  H12B 9778   3.752   6.528   6.410 -0.8394 -1.5433 -0.6927
   98SAPE   C11 9779   3.697   6.667   6.571 -0.4965 -0.2648 -0.1800
   98SAPE  H11A 9780   3.606   6.725   6.595 -0.4694  0.4514 -1.6635
   98SAPE  H11B 9781   3.765   6.752   6.547  2.5157 -2.1592  0.9847
   98SAPE     P 9782   3.873   6.612   6.765  0.0010 -0.6457 -0.1279
   98SAPE   O13 9783   3.859   6.733   6.850  0.9080 -0.5595  0.0542
   98SAPE   O14 9784   3.898   6.485   6.833 -0.2927 -0.0780 -0.1827
   98SAPE   O12 9785   3.733   6.595   6.687  0.0562 -0.4202 -0.2057
   98SAPE   O11 9786   3.969   6.649   6.657 -0.7326  0.0781  0.1780
   98SAPE    C1 9787   4.024   6.550   6.563  0.4115 -0.5694 -0.1766
   98SAPE    HA 9788   4.084   6.473   6.616 -0.0705  0.9639  2.8605
   98SAPE    HB 9789   3.935   6.505   6.515 -1.9580  2.7201  0.7414
   98SAPE    C2 9790   4.130   6.618   6.470  0.1131 -0.3799  0.5842
   98SAPE    HS 9791   4.200   6.673   6.536 -0.3025 -0.8449  1.4332
   98SAPE   O21 9792   4.044   6.705   6.391 -0.4064  0.1579  0.1704
   98SAPE   C21 9793   4.099   6.814   6.349  0.0477  0.5362  0.3973
   98SAPE   O22 9794   4.211   6.860   6.371 -0.0122  0.3941 -0.1357
   98SAPE   C22 9795   3.989   6.889   6.274 -0.4060  0.4283  0.4618
   98SAPE   H2R 9796   3.894   6.870   6.328 -1.6618  2.6175 -0.8454
   98SAPE   H2S 9797   4.023   6.994   6.274 -1.0819  0.7042 -1.9422
   98SAPE    C3 9798   4.201   6.517   6.379  0.0762  0.2104 -0.4428
   98SAPE    HX 9799   4.125   6.451   6.332 -0.8207  0.9037 -0.0130
   98SAPE    HY 9800   4.271   6.461   6.445  0.9681  2.0671  0.2606
   98SAPE   O31 9801   4.269   6.571   6.273 -0.6870  0.2150 -0.4513
   98SAPE   C31 9802   4.398   6.618   6.292 -1.0422 -0.5746  0.2305
   98SAPE   O32 9803   4.462   6.611   6.392 -0.3198 -0.1369 -0.4996
   98SAPE   C32 9804   4.455   6.650   6.149 -0.6652  0.1630  0.3786
   98SAPE   H2X 9805   4.499   6.753   6.147 -1.9455  0.7145 -1.5163
   98SAPE   H2Y 9806   4.372   6.648   6.076 -0.2175  3.1371 -0.3712
   98SAPE   C23 9807   3.962   6.838   6.129  0.0038 -0.2041 -0.3032
   98SAPE   H3R 9808   4.038   6.878   6.059 -1.2448  2.1470 -0.4154
   98SAPE   H3S 9809   3.858   6.867   6.103  0.2302  1.9614  0.9244
   98SAPE   C24 9810   3.969   6.683   6.101  0.7333 -0.5917 -0.3038
   98SAPE   H4R 9811   4.060   6.646   6.152 -0.9420 -3.4159  0.8588
   98SAPE   H4S 9812   3.990   6.671   5.992  0.4552 -2.6995 -0.1671
   98SAPE   C25 9813   3.845   6.607   6.149  0.9084  0.2906 -0.1439
   98SAPE   H5R 9814   3.759   6.673   6.169  0.1477 -0.0962 -1.9663
   98SAPE   C26 9815   3.842   6.477   6.158 -0.3344  0.0933  0.1863
   98SAPE   H6R 9816   3.750   6.426   6.189  0.1389 -1.0540 -0.2123
   98SAPE   C27 9817   3.954   6.372   6.133  0.0461 -0.4181 -0.0151
   98SAPE   H7R 9818   3.972   6.329   6.234  2.1274 -0.7761 -0.5062
   98SAPE   H7S 9819   4.043   6.424   6.092  0.7487 -1.0899  0.6427
   98SAPE   C28 9820   3.906   6.264   6.042  0.0804  0.0054 -0.3987
   98SAPE   H8R 9821   3.893   6.168   6.094  2.4063  0.0113  0.2929
   98SAPE   C29 9822   3.898   6.273   5.910 -0.3278 -0.6359 -0.4341
   98SAPE   H9R 9823   3.883   6.172   5.870  1.5947 -1.8800  1.7232
   98SAPE  C210 9824   3.926   6.392   5.820 -0.2609 -0.3673  0.3652
   98SAPE  H10R 9825   3.887   6.488   5.861 -0.0978  0.1677 -0.7025
   98SAPE  H10S 9826   3.857   6.384   5.733 -0.2350  1.7106  0.0920
   98SAPE  C211 9827   4.071   6.421   5.783 -0.4665  0.4224 -0.2067
   98SAPE  H11R 9828   4.123   6.471   5.866 -0.4242 -0.5630  0.3772
   98SAPE  C212 9829   4.147   6.386   5.678  0.0226 -0.7560  0.5238
   98SAPE  H12R 9830   4.252   6.418   5.676  0.0341 -0.7349  1.2294
   98SAPE  C213 9831   4.084   6.311   5.557 -0.0426  0.9638  0.5588
   98SAPE  H13R 9832   4.158   6.314   5.474 -0.5404 -0.5723  0.0270
   98SAPE  H13S 9833   3.995   6.359   5.512  1.1455  0.6990 -2.2626
   98SAPE  C214 9834   4.073   6.163   5.596  0.1738  0.6519 -0.4934
   98SAPE  H14R 9835   4.136   6.137   5.683  0.9145  1.3173 -0.8164
   98SAPE  C215 9836   3.999   6.075   5.529  0.3496 -0.9760  0.1123
   98SAPE  H15R 9837   3.980   5.973   5.563  0.5950 -1.0670 -0.0234
   98SAPE  C216 9838   3.906   6.101   5.412  0.5844  0.5512 -0.1581
   98SAPE  H16R 9839   3.860   6.201   5.425  0.2290  0.3669  0.0121
   98SAPE  H16S 9840   3.814   6.040   5.412 -0.3740  1.7193 -3.8616
   98SAPE  C217 9841   3.971   6.068   5.276 -0.1212 -0.0074  0.3384
   98SAPE  H17R 9842   4.000   5.962   5.258 -3.1344 -0.6063 -1.7584
   98SAPE  H17S 9843   4.056   6.139   5.264 -0.0068 -0.1627  0.2164
   98SAPE  C218 9844   3.866   6.092   5.166 -0.3845  0.3722  0.4104
   98SAPE  H18R 9845   3.831   6.198   5.166 -1.4078  0.0922 -1.9168
   98SAPE  H18S 9846   3.772   6.040   5.193 -0.2202  0.7674  1.7996
   98SAPE  C219 9847   3.921   6.049   5.033  0.3779  0.1141 -0.0596
   98SAPE  H19R 9848   3.926   5.938   5.034  0.4594  0.1197  0.5447
   98SAPE  H19S 9849   4.021   6.095   5.020  1.6649 -1.3138  3.5770
   98SAPE  C220 9850   3.828   6.086   4.914  0.3390  0.9629 -0.4358
   98SAPE  H20R 9851   3.804   6.193   4.930 -0.2019  1.2300 -2.6993
   98SAPE  H20S 9852   3.736   6.025   4.924 -0.4994  2.2955  0.3578
   98SAPE  H20T 9853   3.868   6.062   4.813 -1.9533 -1.0365 -0.9734
   98SAPE   C33 9854   4.578   6.551   6.133 -0.2615 -0.0222 -0.4772
   98SAPE   H3X 9855   4.548   6.445   6.140  0.0579 -0.1278 -0.6499
   98SAPE   H3Y 9856   4.658   6.591   6.199 -0.5404  2.1212 -1.3484
   98SAPE   C34 9857   4.659   6.559   6.002  0.1520  0.9579  0.2520
   98SAPE   H4X 9858   4.739   6.482   6.010  2.0897  3.0139  2.0045
   98SAPE   H4Y 9859   4.710   6.657   5.999 -1.6916  2.0246  1.8067
   98SAPE   C35 9860   4.562   6.546   5.882  0.0683 -0.5908 -0.6382
   98SAPE   H5X 9861   4.495   6.634   5.885 -0.1173 -0.7402  2.5255
   98SAPE   H5Y 9862   4.511   6.448   5.885 -0.2582 -0.4071  0.4001
   98SAPE   C36 9863   4.639   6.564   5.750  0.3762 -0.5030  0.1483
   98SAPE   H6X 9864   4.722   6.490   5.752 -1.2024 -2.3338  1.6737
   98SAPE   H6Y 9865   4.682   6.666   5.742  0.9012 -0.8197 -1.6459
   98SAPE   C37 9866   4.545   6.554   5.621  0.3791 -0.1345 -0.1896
   98SAPE   H7X 9867   4.468   6.633   5.635  1.5572  1.6750 -2.9144
   98SAPE   H7Y 9868   4.502   6.452   5.612  2.2900 -0.8659 -1.9620
   98SAPE   C38 9869   4.623   6.590   5.499 -0.6662 -1.3030  0.2457
   98SAPE   H8X 9870   4.719   6.541   5.472  1.9741  1.8143  3.1031
   98SAPE   H8Y 9871   4.651   6.696   5.516  0.9026 -1.4904 -0.9855
   98SAPE   C39 9872   4.528   6.578   5.378  0.0208  0.2968  0.0863
   98SAPE   H9X 9873   4.447   6.653   5.362 -0.4377  0.2735  2.0261
   98SAPE   H9Y 9874   4.461   6.489   5.374 -2.0494  1.6799  1.5664
   98SAPE  C310 9875   4.615   6.586   5.256  0.1734  0.6416  1.0574
   98SAPE  H10X 9876   4.676   6.493   5.259 -1.3012 -0.4019  0.1205
   98SAPE  H10Y 9877   4.693   6.665   5.256  0.8464 -0.0096  0.6881
   98SAPE  C311 9878   4.530   6.590   5.128  0.2358  0.1689 -0.0318
   98SAPE  H11X 9879   4.462   6.677   5.137  0.8337  0.9304 -2.2156
   98SAPE  H11Y 9880   4.468   6.500   5.113  1.6451 -0.8182 -0.1085
   98SAPE  C312 9881   4.624   6.622   5.007  0.8087 -0.0220 -0.2888
   98SAPE  H12X 9882   4.709   6.550   5.010  1.6704  0.8791 -1.7446
   98SAPE  H12Y 9883   4.655   6.729   5.006 -0.7715  0.4625  0.1745
   98SAPE  C313 9884   4.539   6.595   4.878 -0.1103 -0.0151 -0.6635
   98SAPE  H13X 9885   4.440   6.644   4.890 -0.3184 -0.3651 -0.9501
   98SAPE  H13Y 9886   4.517   6.488   4.863 -1.3391  0.4721 -2.7042
   98SAPE  C314 9887   4.603   6.639   4.743 -0.4642  0.4156 -0.8437
   98SAPE  H14X 9888   4.647   6.741   4.738  1.2781 -0.2631 -0.3121
   98SAPE  H14Y 9889   4.514   6.632   4.677 -1.7672 -0.7053  0.9349
   98SAPE  C315 9890   4.707   6.533   4.694 -0.6388  0.2116  0.5335
   98SAPE  H15X 9891   4.663   6.431   4.695 -0.3448  0.0838  0.4619
   98SAPE  H15Y 9892   4.800   6.519   4.752  1.0521  1.1284 -1.7900
   98SAPE  C316 9893   4.748   6.577   4.553 -0.4207 -0.3251  0.1516
   98SAPE  H16X 9894   4.824   6.659   4.560  2.2264 -2.5575 -0.6513
   98SAPE  H16Y 9895   4.652   6.604   4.505 -0.9713  0.9859  1.8845
   98SAPE  C317 9896   4.815   6.464   4.473 -0.1837 -0.2185  0.1491
   98SAPE  H17X 9897   4.907   6.424   4.521  2.0815  1.3693 -2.5798
   98SAPE  H17Y 9898   4.862   6.502   4.380  4.0266 -1.0361  1.7225
   98SAPE  C318 9899   4.729   6.341   4.456  0.2340 -0.0706 -0.0390
   98SAPE  H18X 9900   4.779   6.267   4.390  1.7201 -0.6272  1.6048
   98SAPE  H18Y 9901   4.629   6.353   4.410  0.5778  3.1052 -0.1502
   98SAPE  H18Z 9902   4.717   6.287   4.553  0.2488  0.3775  0.2162
   99SAPE     N 9903   5.539   6.459   7.063 -0.4251  0.2208  0.1761
   99SAPE   HN1 9904   5.534   6.366   7.109  0.0635  0.1094  0.0164
   99SAPE   HN2 9905   5.599   6.444   6.979  0.8175 -1.8698  1.3721
   99SAPE   HN3 9906   5.591   6.527   7.122 -1.0510  0.4471  0.4707
   99SAPE   C12 9907   5.394   6.504   7.037 -0.1495  0.0488 -0.8581
   99SAPE  H12A 9908   5.401   6.614   7.020  0.8610 -0.1810 -1.9971
   99SAPE  H12B 9909   5.327   6.476   7.122  3.3747 -0.6250  1.9357
   99SAPE   C11 9910   5.328   6.449   6.911  0.2581 -0.1199  0.3268
   99SAPE  H11A 9911   5.396   6.479   6.829  1.9097  0.7224  1.9357
   99SAPE  H11B 9912   5.227   6.493   6.893 -0.2131 -0.9736  0.7768
   99SAPE     P 9913   5.169   6.257   6.991  0.0559  0.1695 -0.1411
   99SAPE   O13 9914   5.145   6.114   6.963  0.3367 -0.6138  0.3347
   99SAPE   O14 9915   5.158   6.304   7.132  1.0273 -0.2908  0.2433
   99SAPE   O12 9916   5.306   6.310   6.927 -0.1595  0.0135 -0.2050
   99SAPE   O11 9917   5.059   6.340   6.909  0.3836 -0.6858  0.3301
   99SAPE    C1 9918   4.981   6.272   6.813  0.6583 -0.1797 -0.2704
   99SAPE    HA 9919   4.925   6.189   6.862 -0.2915  1.4568  1.5693
   99SAPE    HB 9920   4.911   6.340   6.762  0.7187 -0.4340 -0.6959
   99SAPE    C2 9921   5.053   6.234   6.682 -0.4485  0.0703  0.2318
   99SAPE    HS 9922   5.118   6.149   6.711 -2.3492 -0.6175  2.8925
   99SAPE   O21 9923   5.126   6.353   6.643 -0.1103  0.1987 -0.2356
   99SAPE   C21 9924   5.241   6.327   6.590  0.1700 -1.0386  0.4894
   99SAPE   O22 9925   5.287   6.217   6.575 -0.0132  0.2541  0.2653
   99SAPE   C22 9926   5.300   6.457   6.534 -0.5464  0.4257 -0.6765
   99SAPE   H2R 9927   5.217   6.529   6.525 -0.1450  0.9323 -0.3404
   99SAPE   H2S 9928   5.386   6.486   6.598 -1.9119  2.3143  0.3811
   99SAPE    C3 9929   4.958   6.171   6.574 -0.2557  0.2133 -0.1628
   99SAPE    HX 9930   4.877   6.242   6.547 -1.1141 -1.0558 -1.0343
   99SAPE    HY 9931   4.916   6.080   6.622 -0.3868  0.8586  0.9806
   99SAPE   O31 9932   5.026   6.120   6.450  0.0669 -0.4594  0.0674
   99SAPE   C31 9933   4.942   6.052   6.363  0.1465 -0.2388  0.3923
   99SAPE   O32 9934   4.822   6.026   6.384 -0.4396 -0.2294  0.3033
   99SAPE   C32 9935   5.015   6.006   6.242  0.1326  0.0527  0.2532
   99SAPE   H2X 9936   5.102   5.948   6.279 -0.3107 -0.4265  0.5695
   99SAPE   H2Y 9937   5.046   6.099   6.190 -3.6495  0.8381 -0.9224
   99SAPE   C23 9938   5.339   6.425   6.387 -0.9079 -0.4810  0.0259
   99SAPE   H3R 9939   5.424   6.353   6.390  0.5753  1.2204  0.2754
   99SAPE   H3S 9940   5.395   6.507   6.337 -0.2261 -0.8747  0.1192
   99SAPE   C24 9941   5.232   6.373   6.294 -0.2175  0.0369  0.7053
   99SAPE   H4R 9942   5.188   6.285   6.344  0.3837 -1.1965 -0.8607
   99SAPE   H4S 9943   5.269   6.320   6.204 -0.5391  0.3040  0.4103
   99SAPE   C25 9944   5.120   6.468   6.260  0.1329  0.2670 -0.2633
   99SAPE   H5R 9945   5.068   6.525   6.338 -3.1057 -0.5878 -1.6402
   99SAPE   C26 9946   5.079   6.491   6.131  0.4951 -0.6763  0.4612
   99SAPE   H6R 9947   4.987   6.552   6.129  1.3645  0.8538  2.8511
   99SAPE   C27 9948   5.118   6.421   6.000  0.3992 -0.2628 -0.0623
   99SAPE   H7R 9949   5.168   6.323   6.020 -0.2340 -0.7927 -0.9864
   99SAPE   H7S 9950   5.200   6.485   5.962 -0.9303  1.7438  0.2922
   99SAPE   C28 9951   5.013   6.412   5.890  0.8010 -0.1617  0.1816
   99SAPE   H8R 9952   4.907   6.406   5.918  0.7628 -0.1054  0.0469
   99SAPE   C29 9953   5.033   6.420   5.758  0.1060 -0.0232 -0.5484
   99SAPE   H9R 9954   4.943   6.441   5.698 -2.1014  0.7612  2.7406
   99SAPE  C210 9955   5.162   6.441   5.687 -0.5740 -1.1777 -0.2882
   99SAPE  H10R 9956   5.182   6.337   5.654  1.1079 -0.5862 -1.2925
   99SAPE  H10S 9957   5.239   6.455   5.766 -0.7331 -0.9978 -0.1641
   99SAPE  C211 9958   5.171   6.533   5.574 -0.0387  0.0728  0.6704
   99SAPE  H11R 9959   5.118   6.629   5.584 -1.7798 -0.7684 -0.0521
   99SAPE  C212 9960   5.249   6.509   5.460 -0.2222 -0.8033 -0.5876
   99SAPE  H12R 9961   5.272   6.591   5.391  2.2514  0.2022  1.2647
   99SAPE  C213 9962   5.327   6.386   5.442  0.1046 -0.2155 -0.0934
   99SAPE  H13R 9963   5.322   6.314   5.526 -1.1188 -1.0038 -0.8127
   99SAPE  H13S 9964   5.437   6.402   5.441  0.4400 -1.1811  4.0329
   99SAPE  C214 9965   5.283   6.317   5.319  0.6361  0.1342  0.6371
   99SAPE  H14R 9966   5.176   6.325   5.296  0.5741 -0.5988  0.6577
   99SAPE  C215 9967   5.358   6.233   5.239  0.0410 -0.0996  0.0834
   99SAPE  H15R 9968   5.307   6.187   5.153  1.1525 -0.8932 -0.1769
   99SAPE  C216 9969   5.502   6.208   5.255 -0.2476 -1.2257 -0.0736
   99SAPE  H16R 9970   5.524   6.127   5.328 -2.5092 -1.5641  0.3136
   99SAPE  H16S 9971   5.537   6.296   5.313  2.5004 -0.9708 -1.9531
   99SAPE  C217 9972   5.591   6.196   5.130 -0.7436 -0.9653  0.5751
   99SAPE  H17R 9973   5.697   6.191   5.163  0.7955  0.9744 -3.4395
   99SAPE  H17S 9974   5.594   6.285   5.064  1.9268 -0.2297  1.5326
   99SAPE  C218 9975   5.562   6.061   5.065  0.2833 -0.9038 -0.2019
   99SAPE  H18R 9976   5.454   6.060   5.040  0.1869 -0.5034  0.1907
   99SAPE  H18S 9977   5.578   5.990   5.149  2.7272 -1.4147 -1.0258
   99SAPE  C219 9978   5.644   6.026   4.941 -0.0898 -0.0089 -0.3560
   99SAPE  H19R 9979   5.618   6.096   4.859  0.6933 -1.5798 -1.9822
   99SAPE  H19S 9980   5.609   5.931   4.897 -2.2020  0.0611  1.0212
   99SAPE  C220 9981   5.799   6.026   4.945  0.1254  0.2847  0.2310
   99SAPE  H20R 9982   5.823   5.961   5.032 -2.6736 -1.9598 -0.5193
   99SAPE  H20S 9983   5.843   6.126   4.964 -3.0900  1.5646  1.5338
   99SAPE  H20T 9984   5.847   5.983   4.854 -2.2138 -0.9115 -0.5057
   99SAPE   C33 9985   4.916   5.928   6.160 -0.3356 -0.1305 -0.1637
   99SAPE   H3X 9986   4.828   5.993   6.141 -1.4772 -1.7435 -0.6593
   99SAPE   H3Y 9987   4.879   5.840   6.217  1.4910 -1.5229 -1.0072
   99SAPE   C34 9988   4.960   5.876   6.020 -0.0441  0.6045  0.3151
   99SAPE   H4X 9989   4.867   5.826   5.985 -0.9336  2.3383  0.0860
   99SAPE   H4Y 9990   5.040   5.800   6.037  0.1745  0.6840 -0.3435
   99SAPE   C35 9991   5.019   5.975   5.916  0.2805  0.5709  0.5875
   99SAPE   H5X 9992   5.097   6.034   5.969 -1.6140  2.7911  1.0689
   99SAPE   H5Y 9993   4.949   6.052   5.877  2.2969  1.6262 -1.1728
   99SAPE   C36 9994   5.090   5.909   5.801  0.3083 -0.7839  0.2821
   99SAPE   H6X 9995   5.016   5.856   5.737  1.3397 -0.7707 -0.9681
   99SAPE   H6Y 9996   5.167   5.838   5.837  0.1784 -0.3181  1.5045
   99SAPE   C37 9997   5.165   6.011   5.709 -0.1695  0.7052 -0.6413
   99SAPE   H7X 9998   5.220   6.073   5.783 -0.7188 -1.5317  1.8097
   99SAPE   H7Y 9999   5.089   6.080   5.665 -1.0187 -0.3567 -0.8699
   99SAPE   C3810000   5.263   5.947   5.611 -0.5862  0.1973 -0.2727
   99SAPE   H8X10001   5.344   5.900   5.671 -0.8991 -0.0635 -0.0563
   99SAPE   H8Y10002   5.305   6.030   5.550 -3.9644  0.8621 -1.9569
   99SAPE   C3910003   5.202   5.843   5.518  1.6789  0.0410  0.1242
   99SAPE   H9X10004   5.114   5.890   5.469  0.0823 -1.5305  1.3503
   99SAPE   H9Y10005   5.154   5.768   5.584 -0.2397  1.9365  0.9808
   99SAPE  C31010006   5.292   5.794   5.401  0.2505 -0.2694 -0.1477
   99SAPE  H10X10007   5.390   5.757   5.439  0.8736  0.0606 -1.3814
   99SAPE  H10Y10008   5.313   5.887   5.344 -1.7241  0.6005  0.4401
   99SAPE  C31110009   5.220   5.702   5.301  0.1821 -0.3002 -0.6032
   99SAPE  H11X10010   5.131   5.659   5.352  1.2312  0.2416  1.8490
   99SAPE  H11Y10011   5.284   5.614   5.277 -0.6519 -0.5264 -2.1058
   99SAPE  C31210012   5.180   5.779   5.170 -0.2948  0.1894 -0.4979
   99SAPE  H12X10013   5.274   5.816   5.122  1.6658 -2.0600  1.3725
   99SAPE  H12Y10014   5.114   5.863   5.201 -0.1466  0.0860  0.1043
   99SAPE  C31310015   5.112   5.695   5.072 -0.1380 -0.1104  0.8884
   99SAPE  H13X10016   5.018   5.650   5.111 -0.4057 -0.2536  0.0967
   99SAPE  H13Y10017   5.177   5.607   5.055  2.2755  1.3697  1.8666
   99SAPE  C31410018   5.083   5.761   4.934 -0.4166 -0.0823  0.2075
   99SAPE  H14X10019   5.165   5.836   4.926  1.6327 -2.2573 -0.2416
   99SAPE  H14Y10020   4.981   5.806   4.937 -0.6193 -0.4915 -0.4321
   99SAPE  C31510021   5.092   5.669   4.811 -0.1168  0.1211  0.2930
   99SAPE  H15X10022   5.011   5.594   4.796  0.4442 -0.8305  1.7651
   99SAPE  H15Y10023   5.177   5.600   4.827 -1.0489 -1.2689 -0.5169
   99SAPE  C31610024   5.106   5.737   4.668  0.6244  0.1318 -0.1267
   99SAPE  H16X10025   5.200   5.795   4.678  0.3502  0.4215  0.9007
   99SAPE  H16Y10026   5.032   5.820   4.664  0.6643  0.2610  1.2555
   99SAPE  C31710027   5.103   5.646   4.538  0.5815  0.7632 -0.7322
   99SAPE  H17X10028   4.998   5.616   4.518 -0.9170  4.8727 -0.0952
   99SAPE  H17Y10029   5.175   5.562   4.544  0.9912  1.0798 -1.1202
   99SAPE  C31810030   5.134   5.733   4.417 -0.5987  0.0725  0.1683
   99SAPE  H18X10031   5.148   5.673   4.324  0.9137 -0.3598  0.6510
   99SAPE  H18Y10032   5.229   5.785   4.441 -1.8024  1.9979  0.9603
   99SAPE  H18Z10033   5.054   5.807   4.394 -0.9430 -1.0742 -2.9265
  100SAPE     N10034   0.634   5.216   6.752  0.7652 -0.4268  0.2171
  100SAPE   HN110035   0.635   5.161   6.841 -1.2023 -1.5472 -0.3937
  100SAPE   HN210036   0.675   5.309   6.773 -0.9390  0.7863 -1.5078
  100SAPE   HN310037   0.537   5.228   6.716  0.6997  2.5059  1.1270
  100SAPE   C1210038   0.713   5.146   6.640  0.0697  0.1116 -0.1468
  100SAPE  H12A10039   0.670   5.190   6.547 -0.1405  3.1752  1.2729
  100SAPE  H12B10040   0.676   5.041   6.633 -1.2453  0.4770  0.9819
  100SAPE   C1110041   0.866   5.169   6.656 -0.4679 -0.1371 -0.3455
  100SAPE  H11A10042   0.881   5.279   6.650  1.6072 -0.2787  0.9496
  100SAPE  H11B10043   0.926   5.121   6.576  1.2211 -1.6870  1.7087
  100SAPE     P10044   1.026   5.039   6.816 -0.1565 -0.3699 -0.2419
  100SAPE   O1310045   1.125   5.150   6.833  0.0552 -0.1926 -0.1541
  100SAPE   O1410046   0.999   4.954   6.930  0.6113 -0.1789  0.0927
  100SAPE   O1210047   0.892   5.108   6.779 -0.4172  0.0510 -0.4218
  100SAPE   O1110048   1.061   4.956   6.685 -0.0576  0.7815 -0.4854
  100SAPE    C110049   0.991   4.846   6.636 -0.0937  0.5793 -0.0787
  100SAPE    HA10050   0.894   4.836   6.690 -0.3387  2.7395 -0.0386
  100SAPE    HB10051   0.958   4.867   6.532  0.6104 -0.5440 -0.5477
  100SAPE    C210052   1.074   4.720   6.639  0.6351  0.2027 -0.1982
  100SAPE    HS10053   1.118   4.710   6.740  2.1561 -1.7976 -0.9830
  100SAPE   O2110054   1.170   4.715   6.536  0.1868  0.0621  0.1509
  100SAPE   C2110055   1.270   4.635   6.554 -0.6282 -0.1882  0.0340
  100SAPE   O2210056   1.289   4.564   6.652  0.0101  0.6125 -0.4323
  100SAPE   C2210057   1.374   4.656   6.444 -0.2425  0.1966 -0.7415
  100SAPE   H2R10058   1.386   4.764   6.422 -0.4651  0.3933  0.0770
  100SAPE   H2S10059   1.474   4.622   6.479  1.1178  0.8068 -3.6726
  100SAPE    C310060   0.981   4.591   6.620 -0.3526  0.4121 -0.1433
  100SAPE    HX10061   0.906   4.603   6.701 -1.8456 -1.0105 -1.2618
  100SAPE    HY10062   1.040   4.500   6.645  0.1766  0.1786 -2.0658
  100SAPE   O3110063   0.911   4.596   6.490 -0.0232  0.0299  0.1085
  100SAPE   C3110064   0.961   4.497   6.405 -0.7959 -0.4946 -0.4541
  100SAPE   O3210065   1.057   4.425   6.429  0.6967  0.2031  0.1688
  100SAPE   C3210066   0.867   4.492   6.285  0.5500  0.3642 -0.1562
  100SAPE   H2X10067   0.880   4.589   6.232 -1.4345 -0.8696 -3.2320
  100SAPE   H2Y10068   0.764   4.475   6.322 -0.4718  2.4308 -1.7884
  100SAPE   C2310069   1.333   4.575   6.324 -0.7961  0.6367  0.7118
  100SAPE   H3R10070   1.227   4.598   6.300  0.0217  2.3835 -1.6663
  100SAPE   H3S10071   1.337   4.466   6.345 -1.0988  0.7026  1.1097
  100SAPE   C2410072   1.417   4.607   6.195  1.2935  0.3613  0.0547
  100SAPE   H4R10073   1.523   4.581   6.213  1.0093 -2.0358 -1.3796
  100SAPE   H4S10074   1.424   4.718   6.183  3.2493  0.1719 -1.0368
  100SAPE   C2510075   1.363   4.512   6.091 -0.1760  0.1003 -0.0773
  100SAPE   H5R10076   1.322   4.419   6.133  1.3891 -1.4246 -1.7056
  100SAPE   C2610077   1.335   4.552   5.967  0.4529  0.5123 -0.1741
  100SAPE   H6R10078   1.327   4.465   5.899  1.1296  0.5362 -0.2905
  100SAPE   C2710079   1.374   4.683   5.894  0.4936  0.3185 -0.0958
  100SAPE   H7R10080   1.459   4.653   5.829 -0.5000 -1.0517 -0.7842
  100SAPE   H7S10081   1.405   4.769   5.957  1.9097  0.2440 -0.6616
  100SAPE   C2810082   1.259   4.732   5.810 -0.8653 -0.0276  0.1038
  100SAPE   H8R10083   1.179   4.766   5.878  0.6902  2.5347  0.8359
  100SAPE   C2910084   1.238   4.702   5.679  0.5865 -0.6310  0.1651
  100SAPE   H9R10085   1.147   4.742   5.631  0.6422 -0.5095  0.1606
  100SAPE  C21010086   1.339   4.637   5.576  0.6604 -0.2048 -0.0690
  100SAPE  H10R10087   1.296   4.547   5.527  3.0232 -1.2814 -0.2931
  100SAPE  H10S10088   1.435   4.610   5.624  0.7216 -0.1300 -0.1487
  100SAPE  C21110089   1.375   4.743   5.476 -0.3679  0.0494 -0.7450
  100SAPE  H11R10090   1.382   4.842   5.523  0.2463 -0.7429  0.9529
  100SAPE  C21210091   1.390   4.724   5.340  0.7288  0.1635 -0.1668
  100SAPE  H12R10092   1.405   4.809   5.272  3.1526 -0.4517 -0.4925
  100SAPE  C21310093   1.361   4.591   5.271  0.2512 -1.4026 -0.9251
  100SAPE  H13R10094   1.390   4.509   5.339 -0.0330  0.1011  1.0993
  100SAPE  H13S10095   1.429   4.593   5.183  1.9287 -0.6728  0.3289
  100SAPE  C21410096   1.222   4.563   5.221 -0.4032  0.3479 -0.1731
  100SAPE  H14R10097   1.149   4.640   5.250  1.4975  2.2099 -0.1808
  100SAPE  C21510098   1.169   4.450   5.171  0.0616  0.0760 -0.4468
  100SAPE  H15R10099   1.059   4.453   5.158  0.1439 -0.0789 -1.2186
  100SAPE  C21610100   1.230   4.311   5.149 -0.1204 -0.0061 -0.0848
  100SAPE  H16R10101   1.159   4.235   5.110  0.5516 -1.5753  1.6687
  100SAPE  H16S10102   1.272   4.268   5.241 -0.3595  0.6169  0.3254
  100SAPE  C21710103   1.358   4.312   5.051  0.3872 -0.1516  0.3334
  100SAPE  H17R10104   1.404   4.211   5.044 -0.5843 -0.6725  1.1074
  100SAPE  H17S10105   1.435   4.379   5.094  2.5142 -1.3367 -1.3872
  100SAPE  C21810106   1.315   4.351   4.908  0.3968 -0.8037 -0.4884
  100SAPE  H18R10107   1.293   4.459   4.898  1.7528 -0.3827  0.8102
  100SAPE  H18S10108   1.238   4.284   4.864 -0.1548  0.3124 -1.2496
  100SAPE  C21910109   1.424   4.334   4.802 -0.7907  0.0905  0.1525
  100SAPE  H19R10110   1.449   4.225   4.805 -1.6892 -0.1039  0.7604
  100SAPE  H19S10111   1.515   4.390   4.833 -1.2720 -0.3583  2.5619
  100SAPE  C22010112   1.382   4.379   4.657 -0.0722 -0.0395  0.1589
  100SAPE  H20R10113   1.362   4.488   4.650 -0.4700 -0.1379 -0.2526
  100SAPE  H20S10114   1.295   4.323   4.616 -0.4734  0.0751  0.8424
  100SAPE  H20T10115   1.467   4.372   4.585 -0.1406  0.0322  0.0719
  100SAPE   C3310116   0.896   4.374   6.190  0.8729 -0.6388 -0.4675
  100SAPE   H3X10117   0.837   4.286   6.225 -0.3583  0.5453  0.5174
  100SAPE   H3Y10118   1.005   4.356   6.175  1.7310  2.3007  1.5127
  100SAPE   C3410119   0.854   4.412   6.047 -0.4817  0.7147 -0.8806
  100SAPE   H4X10120   0.916   4.495   6.007 -0.2777  1.0615  0.1233
  100SAPE   H4Y10121   0.753   4.457   6.047 -0.9175 -0.2366  0.1051
  100SAPE   C3510122   0.876   4.298   5.943  0.7230 -0.3604 -0.8023
  100SAPE   H5X10123   0.823   4.215   5.994 -0.1469  0.0937 -0.9433
  100SAPE   H5Y10124   0.979   4.259   5.945  0.8644 -0.0960 -2.3081
  100SAPE   C3610125   0.842   4.342   5.804  0.1719 -0.5340 -0.2945
  100SAPE   H6X10126   0.930   4.390   5.756  0.9373 -0.3914  1.1897
  100SAPE   H6Y10127   0.762   4.420   5.808  1.5161  0.8920 -0.1669
  100SAPE   C3710128   0.805   4.221   5.721 -0.1565 -0.1775  0.1199
  100SAPE   H7X10129   0.718   4.172   5.768  0.1933 -2.2254 -1.2398
  100SAPE   H7Y10130   0.900   4.164   5.708 -0.4679 -0.5039 -0.8239
  100SAPE   C3810131   0.758   4.242   5.575 -0.4264  0.5962  0.2183
  100SAPE   H8X10132   0.680   4.320   5.583  0.2984  1.2260  1.3622
  100SAPE   H8Y10133   0.719   4.144   5.539 -0.4241  0.8637 -0.5470
  100SAPE   C3910134   0.869   4.302   5.482 -0.1651 -0.5893 -0.5685
  100SAPE   H9X10135   0.919   4.386   5.535  1.9030 -0.0845 -3.1280
  100SAPE   H9Y10136   0.826   4.354   5.393 -3.1445  0.5568  1.3920
  100SAPE  C31010137   0.963   4.191   5.432 -0.4447 -0.5528 -0.3316
  100SAPE  H10X10138   0.998   4.125   5.514  1.4997 -0.2202 -0.8432
  100SAPE  H10Y10139   1.050   4.244   5.389 -0.7607 -0.7024 -1.1829
  100SAPE  C31110140   0.897   4.099   5.331  0.2332  0.3457  0.7798
  100SAPE  H11X10141   0.861   4.162   5.247  1.4748 -1.3194 -1.0957
  100SAPE  H11Y10142   0.807   4.059   5.382  0.7159 -1.1297  0.5182
  100SAPE  C31210143   0.992   3.998   5.278  0.1396  0.5470 -0.0062
  100SAPE  H12X10144   1.034   3.947   5.368 -0.7380 -1.9741 -0.9369
  100SAPE  H12Y10145   1.068   4.044   5.211 -0.0306  1.1167  0.1837
  100SAPE  C31310146   0.906   3.886   5.206 -0.4239  0.2610 -0.5640
  100SAPE  H13X10147   0.816   3.868   5.269 -0.8815 -1.7807 -1.7430
  100SAPE  H13Y10148   0.971   3.798   5.193  0.1901  0.6870 -0.4264
  100SAPE  C31410149   0.850   3.933   5.069  0.2171 -0.1428 -0.3572
  100SAPE  H14X10150   0.934   3.962   5.002  0.6815 -1.4225 -0.3539
  100SAPE  H14Y10151   0.777   4.016   5.075  0.4165  0.2948 -2.9812
  100SAPE  C31510152   0.760   3.822   5.017  0.7746 -0.4024  0.2842
  100SAPE  H15X10153   0.687   3.792   5.094 -1.7451  1.5892 -1.1590
  100SAPE  H15Y10154   0.825   3.739   4.982 -0.5523  0.0284 -3.7332
  100SAPE  C31610155   0.672   3.864   4.893  0.5736 -0.5820 -0.1290
  100SAPE  H16X10156   0.730   3.926   4.821 -1.1007 -0.6896 -1.6387
  100SAPE  H16Y10157   0.588   3.918   4.940 -0.4639 -1.2238 -1.1918
  100SAPE  C31710158   0.595   3.753   4.813 -0.6724  0.3467 -0.7073
  100SAPE  H17X10159   0.521   3.701   4.878  0.8617  0.9557  1.6438
  100SAPE  H17Y10160   0.668   3.684   4.766  2.2511  1.9339  1.1590
  100SAPE  C31810161   0.509   3.812   4.699 -0.2056  0.2822 -0.0019
  100SAPE  H18X10162   0.435   3.879   4.747  1.1205  2.1360 -0.4605
  100SAPE  H18Y10163   0.451   3.732   4.649  0.5614 -0.1929 -0.1562
  100SAPE  H18Z10164   0.584   3.864   4.636  0.0893 -2.8497 -2.5086
  101SAPE     N10165   0.720   6.415   6.818  0.6024  0.4374  0.0347
  101SAPE   HN110166   0.791   6.399   6.892 -0.5902  2.8917  1.8261
  101SAPE   HN210167   0.697   6.515   6.833  1.2704  0.6125 -0.0665
  101SAPE   HN310168   0.636   6.358   6.839  2.1662 -1.1152  2.6616
  101SAPE   C1210169   0.774   6.390   6.679 -0.1700  0.5470 -0.3448
  101SAPE  H12A10170   0.692   6.364   6.608  1.7385  0.7316 -2.7574
  101SAPE  H12B10171   0.844   6.305   6.692 -0.8421  0.0369 -0.0292
  101SAPE   C1110172   0.853   6.505   6.619 -0.3137  0.2110 -0.5348
  101SAPE  H11A10173   0.799   6.602   6.619  1.3910  1.1997 -1.1624
  101SAPE  H11B10174   0.864   6.496   6.508  2.1178 -1.2733 -0.2602
  101SAPE     P10175   1.062   6.634   6.699 -0.3696 -0.2212 -0.1824
  101SAPE   O1310176   0.979   6.761   6.682 -0.5495 -0.1376  0.0805
  101SAPE   O1410177   1.141   6.620   6.824 -0.4362  0.1366 -0.2167
  101SAPE   O1210178   0.979   6.504   6.683  0.1824 -0.3079 -0.1364
  101SAPE   O1110179   1.173   6.625   6.590  0.0864  0.7837 -0.0632
  101SAPE    C110180   1.177   6.539   6.485 -0.4137 -1.6940  0.2371
  101SAPE    HA10181   1.286   6.519   6.479 -0.3538 -1.5328  0.7070
  101SAPE    HB10182   1.127   6.442   6.501 -1.0546 -1.0621  2.5259
  101SAPE    C210183   1.122   6.608   6.353 -0.2461  0.2055  0.3638
  101SAPE    HS10184   1.014   6.629   6.366 -0.6081 -0.5964 -1.1608
  101SAPE   O2110185   1.161   6.516   6.249  0.0696 -0.0823  0.1508
  101SAPE   C2110186   1.072   6.427   6.216 -0.0437 -0.3093  0.6700
  101SAPE   O2210187   0.972   6.395   6.282 -0.1454 -0.1269  0.5170
  101SAPE   C2210188   1.107   6.366   6.073  0.0164 -0.6675 -0.5602
  101SAPE   H2R10189   1.097   6.449   6.000 -0.9406 -0.5631 -0.3252
  101SAPE   H2S10190   1.210   6.329   6.087 -0.2249 -1.1746 -0.0682
  101SAPE    C310191   1.193   6.747   6.330 -0.2710 -0.7530  0.1683
  101SAPE    HX10192   1.301   6.727   6.314 -0.2600 -0.8236  0.3321
  101SAPE    HY10193   1.186   6.810   6.421  1.7871  0.2999 -0.3290
  101SAPE   O3110194   1.135   6.800   6.208 -0.0197  0.0238  0.3408
  101SAPE   C3110195   1.146   6.936   6.207  0.2616 -0.1567  0.9745
  101SAPE   O3210196   1.161   7.000   6.307 -0.6547 -0.2686 -0.0225
  101SAPE   C3210197   1.153   6.971   6.061 -0.3848  0.1361 -0.0390
  101SAPE   H2X10198   1.051   6.954   6.020 -0.2952  2.1453 -1.2730
  101SAPE   H2Y10199   1.224   6.898   6.016  1.3657  0.3112  2.2796
  101SAPE   C2310200   1.002   6.254   6.029  0.4198  0.2061  0.1558
  101SAPE   H3R10201   0.901   6.283   6.066  0.9705  0.3087  1.6329
  101SAPE   H3S10202   1.034   6.163   6.084 -2.0609 -0.5378  0.4911
  101SAPE   C2410203   1.009   6.228   5.880 -0.2894  0.1161  1.0203
  101SAPE   H4R10204   0.984   6.331   5.847 -0.2439  0.8234  3.0353
  101SAPE   H4S10205   0.926   6.156   5.866  0.0606  0.1567 -1.8676
  101SAPE   C2510206   1.132   6.164   5.833 -0.2176  0.0499 -0.1732
  101SAPE   H5R10207   1.230   6.177   5.881  0.2067  0.7493 -1.1873
  101SAPE   C2610208   1.147   6.106   5.712  0.4169  0.2046 -0.5310
  101SAPE   H6R10209   1.248   6.067   5.693  0.0583 -0.9407 -0.2057
  101SAPE   C2710210   1.044   6.096   5.600 -0.2554 -0.1618 -0.2923
  101SAPE   H7R10211   0.958   6.160   5.630  0.7788  1.6643 -1.0610
  101SAPE   H7S10212   0.998   5.995   5.607 -1.0520  0.2184  0.0324
  101SAPE   C2810213   1.099   6.120   5.465  0.3515  0.3477  0.3087
  101SAPE   H8R10214   1.170   6.047   5.421  0.5059  1.7986 -2.0149
  101SAPE   C2910215   1.084   6.220   5.381 -0.3086 -0.3752 -0.9497
  101SAPE   H9R10216   1.131   6.202   5.283 -2.0685 -1.5573 -1.6435
  101SAPE  C21010217   0.999   6.342   5.400 -0.3261 -0.1198 -0.0077
  101SAPE  H10R10218   0.947   6.337   5.498  2.3446  0.3673  1.5291
  101SAPE  H10S10219   0.919   6.345   5.322  1.1450  2.8468 -1.5919
  101SAPE  C21110220   1.079   6.474   5.392 -0.2381 -0.5003 -0.0391
  101SAPE  H11R10221   1.114   6.512   5.489  1.8258  0.3922 -1.0722
  101SAPE  C21210222   1.141   6.523   5.282 -0.4618 -0.3587 -0.0943
  101SAPE  H12R10223   1.214   6.603   5.300  0.3161 -1.3870  1.5522
  101SAPE  C21310224   1.140   6.457   5.149 -0.4180  0.3895 -0.5769
  101SAPE  H13R10225   1.074   6.368   5.157  0.7285 -0.2905  2.4242
  101SAPE  H13S10226   1.242   6.421   5.122 -0.9109 -2.3730  0.8637
  101SAPE  C21410227   1.077   6.558   5.055  0.3573  0.3613 -0.0296
  101SAPE  H14R10228   0.986   6.603   5.095 -0.3460 -1.6723  0.7979
  101SAPE  C21510229   1.132   6.602   4.942 -0.8007  0.1916 -0.9176
  101SAPE  H15R10230   1.087   6.691   4.894  2.2155  1.5502 -1.4631
  101SAPE  C21610231   1.256   6.555   4.872  0.5030 -0.4477  0.3163
  101SAPE  H16R10232   1.270   6.448   4.898 -0.7248 -1.6699 -3.4252
  101SAPE  H16S10233   1.343   6.609   4.917  0.3814 -1.3855  1.7465
  101SAPE  C21710234   1.263   6.570   4.718  0.2049  0.0607  0.6841
  101SAPE  H17R10235   1.236   6.674   4.688 -0.9196 -0.4628 -0.1545
  101SAPE  H17S10236   1.193   6.499   4.670 -0.1168 -0.1294  1.4258
  101SAPE  C21810237   1.410   6.540   4.668  0.4601  0.1666 -0.3181
  101SAPE  H18R10238   1.428   6.437   4.706 -0.6421  0.0557 -0.0607
  101SAPE  H18S10239   1.477   6.611   4.720  1.3709  0.3471 -1.6635
  101SAPE  C21910240   1.417   6.551   4.516 -0.5774  0.3576  0.2910
  101SAPE  H19R10241   1.408   6.657   4.486 -1.2334 -0.4281 -2.5349
  101SAPE  H19S10242   1.329   6.494   4.479 -1.0330  2.8890 -2.9545
  101SAPE  C22010243   1.545   6.492   4.457  0.0791 -0.2662  0.6601
  101SAPE  H20R10244   1.551   6.389   4.498 -2.7787 -0.1482  1.5420
  101SAPE  H20S10245   1.639   6.545   4.484  0.3762 -0.4605  0.0344
  101SAPE  H20T10246   1.541   6.485   4.346  0.0528  0.0184  0.6429
  101SAPE   C3310247   1.187   7.125   6.047 -0.4986  0.2091  0.0060
  101SAPE   H3X10248   1.295   7.147   6.060 -0.8083  0.7008  2.1086
  101SAPE   H3Y10249   1.123   7.173   6.125 -0.6978 -0.2887  0.1571
  101SAPE   C3410250   1.156   7.188   5.914  0.8921  0.0559  0.5485
  101SAPE   H4X10251   1.045   7.197   5.910  1.0076  2.5965  1.4673
  101SAPE   H4Y10252   1.195   7.126   5.830 -0.7412 -1.3154  0.7339
  101SAPE   C3510253   1.218   7.325   5.892  0.9656  0.4090  0.0149
  101SAPE   H5X10254   1.328   7.311   5.898  0.8222 -0.7916  0.1399
  101SAPE   H5Y10255   1.184   7.390   5.975 -1.4398  0.5955 -1.0273
  101SAPE   C3610256   1.164   7.388   5.763 -0.5404  0.9565 -0.0117
  101SAPE   H6X10257   1.158   7.495   5.793 -2.4618  0.6472  0.9047
  101SAPE   H6Y10258   1.067   7.364   5.715  0.8680  0.2833 -2.6844
  101SAPE   C3710259   1.258   7.360   5.648 -1.1846  0.0107 -0.0527
  101SAPE   H7X10260   1.283   7.252   5.664  0.8383 -0.0220 -2.7925
  101SAPE   H7Y10261   1.354   7.409   5.676 -1.5723  1.6021 -1.3737
  101SAPE   C3810262   1.207   7.388   5.503 -0.1509  0.1957 -1.4162
  101SAPE   H8X10263   1.178   7.494   5.488 -0.0904  0.5366  0.6220
  101SAPE   H8Y10264   1.124   7.318   5.480 -0.5563 -0.8120  2.4347
  101SAPE   C3910265   1.308   7.364   5.387  0.4440  0.6954 -0.5968
  101SAPE   H9X10266   1.341   7.259   5.396 -0.7320  0.4620  1.7884
  101SAPE   H9Y10267   1.400   7.427   5.395  1.5933 -0.9065 -0.7299
  101SAPE  C31010268   1.240   7.394   5.249  0.3132 -0.2088  0.1984
  101SAPE  H10X10269   1.133   7.401   5.280  0.9941  2.4089  2.3083
  101SAPE  H10Y10270   1.270   7.303   5.193  2.0050  0.5524 -0.1698
  101SAPE  C31110271   1.282   7.522   5.173  0.6618 -0.0901  0.3924
  101SAPE  H11X10272   1.393   7.530   5.181  0.8030 -1.0415 -0.5431
  101SAPE  H11Y10273   1.244   7.618   5.216 -0.8233 -1.0088  1.2050
  101SAPE  C31210274   1.234   7.501   5.029  0.5775  0.2085  0.1573
  101SAPE  H12X10275   1.124   7.492   5.032  0.4682  1.6324  1.5325
  101SAPE  H12Y10276   1.280   7.406   4.994  1.6997  1.9937 -3.7860
  101SAPE  C31310277   1.280   7.601   4.929 -0.0009  0.0153 -1.0110
  101SAPE  H13X10278   1.390   7.609   4.940 -0.2188 -0.4831  2.8781
  101SAPE  H13Y10279   1.240   7.702   4.953  2.0027  1.1607 -2.2227
  101SAPE  C31410280   1.252   7.576   4.779  0.2506  0.1963  0.1889
  101SAPE  H14X10281   1.143   7.568   4.760  0.1401  0.4626  0.6798
  101SAPE  H14Y10282   1.297   7.479   4.751 -0.8804 -1.1471  2.6750
  101SAPE  C31510283   1.306   7.687   4.693  0.9422 -0.6632  0.0928
  101SAPE  H15X10284   1.416   7.692   4.705  0.7648  0.0207  1.6716
  101SAPE  H15Y10285   1.266   7.786   4.724 -0.3934 -0.3316 -2.4122
  101SAPE  C31610286   1.264   7.666   4.544  0.3642  0.4348 -1.0748
  101SAPE  H16X10287   1.157   7.639   4.536  0.3760  0.7842 -2.6928
  101SAPE  H16Y10288   1.322   7.580   4.504 -0.1863 -0.3490 -0.2265
  101SAPE  C31710289   1.285   7.789   4.456  0.2226  0.4811 -0.0409
  101SAPE  H17X10290   1.375   7.841   4.494 -0.3685  0.4236  1.4847
  101SAPE  H17Y10291   1.194   7.853   4.454  0.8154  1.3770 -2.2633
  101SAPE  C31810292   1.320   7.758   4.308 -0.0771 -0.4295  0.3634
  101SAPE  H18X10293   1.263   7.665   4.285  2.8165 -2.7929  2.0082
  101SAPE  H18Y10294   1.430   7.741   4.303 -0.0450 -0.0037 -0.4422
  101SAPE  H18Z10295   1.294   7.845   4.244  0.2606  0.1140  0.9543
  102SAPE     N10296   0.339   5.878   6.444 -0.0634 -0.4302  0.3924
  102SAPE   HN110297   0.253   5.845   6.492 -0.3204 -1.7436 -0.8873
  102SAPE   HN210298   0.415   5.848   6.509  1.9474  1.0118 -1.1602
  102SAPE   HN310299   0.339   5.981   6.435  2.5844 -0.0629  2.9818
  102SAPE   C1210300   0.354   5.815   6.308  0.5498 -0.1737 -0.0982
  102SAPE  H12A10301   0.443   5.857   6.255  0.7842 -1.8409 -1.0997
  102SAPE  H12B10302   0.258   5.839   6.258 -0.0448 -0.1138  1.0513
  102SAPE   C1110303   0.363   5.663   6.325  0.9572 -0.6091 -0.5050
  102SAPE  H11A10304   0.361   5.616   6.225 -2.1741 -0.5919 -0.5422
  102SAPE  H11B10305   0.277   5.625   6.385  3.8852 -3.0062  2.6021
  102SAPE     P10306   0.551   5.487   6.397 -0.1597  0.3998  0.1043
  102SAPE   O1310307   0.659   5.487   6.498 -0.2022 -0.6889  0.1283
  102SAPE   O1410308   0.452   5.376   6.409 -0.0345 -0.0828 -0.4381
  102SAPE   O1210309   0.471   5.630   6.400 -0.2714  0.6642  0.0013
  102SAPE   O1110310   0.614   5.496   6.257 -0.7775 -0.3773 -0.2603
  102SAPE    C110311   0.666   5.610   6.198  0.9749 -0.7272 -0.0785
  102SAPE    HA10312   0.625   5.699   6.251  3.5066 -0.1140  1.0196
  102SAPE    HB10313   0.777   5.613   6.208  0.9784  2.8414 -0.1570
  102SAPE    C210314   0.629   5.623   6.040  0.0076 -0.1031 -0.4216
  102SAPE    HS10315   0.646   5.729   6.009 -0.7995 -0.1437 -1.0427
  102SAPE   O2110316   0.485   5.600   6.014  0.0281 -0.0212  0.1593
  102SAPE   C2110317   0.419   5.681   5.926  0.0916  0.8285 -0.0326
  102SAPE   O2210318   0.474   5.766   5.861  0.1140 -0.2346 -0.2487
  102SAPE   C2210319   0.263   5.637   5.915 -0.2833 -0.1348 -1.2144
  102SAPE   H2R10320   0.256   5.539   5.968 -2.3827 -0.3978 -1.8939
  102SAPE   H2S10321   0.196   5.704   5.974 -1.0889 -3.8222  2.5459
  102SAPE    C310322   0.714   5.536   5.950  0.2162  0.5531  0.7189
  102SAPE    HX10323   0.672   5.433   5.954  0.0360  0.4324 -2.2296
  102SAPE    HY10324   0.822   5.542   5.973  1.0495 -1.2707 -2.1963
  102SAPE   O3110325   0.694   5.576   5.809  0.1270  0.5983 -0.0299
  102SAPE   C3110326   0.766   5.679   5.756  0.2762 -0.1542  0.9913
  102SAPE   O3210327   0.845   5.744   5.819 -0.5938 -0.6751  0.2640
  102SAPE   C3210328   0.730   5.699   5.606  0.3424  0.5099 -0.4668
  102SAPE   H2X10329   0.741   5.806   5.578  2.5612  0.0397 -1.6306
  102SAPE   H2Y10330   0.620   5.684   5.599  0.2294  1.4711 -0.9905
  102SAPE   C2310331   0.209   5.622   5.775 -0.0393  0.2764  0.7619
  102SAPE   H3R10332   0.127   5.549   5.794  0.8708 -0.0258  4.1859
  102SAPE   H3S10333   0.291   5.573   5.718 -0.9161 -2.1319  1.4641
  102SAPE   C2410334   0.161   5.751   5.708  0.0112 -0.0548  0.4594
  102SAPE   H4R10335   0.246   5.819   5.686  1.4840 -1.2041  2.2854
  102SAPE   H4S10336   0.102   5.799   5.789  0.2551 -2.1614  1.9759
  102SAPE   C2510337   0.082   5.715   5.588 -0.2921  0.3980 -0.0769
  102SAPE   H5R10338  -0.028   5.716   5.601 -0.4888  0.8994 -1.5907
  102SAPE   C2610339   0.127   5.709   5.463  0.1712 -0.8752  0.0085
  102SAPE   H6R10340   0.066   5.679   5.377 -0.8863  2.8756 -0.7111
  102SAPE   C2710341   0.276   5.712   5.433  0.2575 -0.2921 -0.1147
  102SAPE   H7R10342   0.345   5.732   5.518 -1.9078 -1.1322  1.9585
  102SAPE   H7S10343   0.285   5.786   5.350  0.3587  0.7561  0.8086
  102SAPE   C2810344   0.319   5.577   5.394 -0.0336  1.0175 -0.4271
  102SAPE   H8R10345   0.332   5.513   5.483 -2.5327  2.8405  1.3934
  102SAPE   C2910346   0.355   5.530   5.268  0.0729 -0.0079 -0.0905
  102SAPE   H9R10347   0.382   5.424   5.252 -1.4548 -0.3322 -0.6838
  102SAPE  C21010348   0.355   5.613   5.145  0.5113 -0.2127 -0.2535
  102SAPE  H10R10349   0.391   5.715   5.169  0.2783 -0.8968  3.8087
  102SAPE  H10S10350   0.246   5.630   5.129  0.6541  3.0605  1.4879
  102SAPE  C21110351   0.440   5.553   5.038 -0.4615 -0.6277 -1.0592
  102SAPE  H11R10352   0.545   5.558   5.070 -1.1854 -0.7936  1.5638
  102SAPE  C21210353   0.408   5.482   4.932 -0.4636 -0.2779 -0.4625
  102SAPE  H12R10354   0.493   5.442   4.875  1.3365  1.7093  0.6659
  102SAPE  C21310355   0.272   5.453   4.890 -0.3056 -0.5343  0.3176
  102SAPE  H13R10356   0.201   5.425   4.971  0.7022  0.0923  1.4478
  102SAPE  H13S10357   0.276   5.369   4.817  3.4570 -0.7291  0.5747
  102SAPE  C21410358   0.207   5.574   4.822  0.8697  0.2968  0.2311
  102SAPE  H14R10359   0.258   5.619   4.736  0.3122 -3.0586 -2.0675
  102SAPE  C21510360   0.076   5.618   4.837  0.3208  0.0970  0.0717
  102SAPE  H15R10361   0.049   5.712   4.786  1.1571  0.7963  0.9032
  102SAPE  C21610362  -0.034   5.561   4.929 -1.2127 -0.2105  0.4614
  102SAPE  H16R10363   0.015   5.482   4.988 -0.7990  1.8752  3.0840
  102SAPE  H16S10364  -0.116   5.527   4.862 -1.6971  2.7967 -0.6614
  102SAPE  C21710365  -0.066   5.669   5.031 -0.2826 -0.2336  0.4740
  102SAPE  H17R10366  -0.129   5.751   4.991 -1.6334 -0.9826  0.9925
  102SAPE  H17S10367   0.022   5.712   5.082  0.1672 -2.5596  1.8259
  102SAPE  C21810368  -0.142   5.604   5.150 -0.1296  0.0193 -0.1637
  102SAPE  H18R10369  -0.075   5.532   5.202 -0.0936  0.4872  0.4493
  102SAPE  H18S10370  -0.226   5.540   5.115  1.4003 -2.3542  0.2290
  102SAPE  C21910371  -0.198   5.705   5.244  0.1399 -0.5099  0.4017
  102SAPE  H19R10372  -0.264   5.783   5.201  1.1588  1.1247  1.6320
  102SAPE  H19S10373  -0.112   5.764   5.284  0.5335  1.1993 -2.6425
  102SAPE  C22010374  -0.274   5.629   5.357 -0.3358 -0.4303 -0.3257
  102SAPE  H20R10375  -0.355   5.576   5.303  0.9128 -1.1366 -1.5736
  102SAPE  H20S10376  -0.327   5.700   5.424 -0.1383  0.5116 -1.1469
  102SAPE  H20T10377  -0.190   5.570   5.400  0.8198  1.3277 -0.0635
  102SAPE   C3310378   0.807   5.608   5.505  0.5304  0.2558 -0.0316
  102SAPE   H3X10379   0.754   5.597   5.408  0.9686 -0.6731 -0.1725
  102SAPE   H3Y10380   0.822   5.504   5.541  3.0239 -0.3201 -2.3712
  102SAPE   C3410381   0.941   5.670   5.464 -0.4445  0.6506  0.4344
  102SAPE   H4X10382   0.985   5.705   5.560 -3.4328  1.6285  1.5420
  102SAPE   H4Y10383   0.919   5.763   5.407 -0.4320  0.6039  0.3546
  102SAPE   C3510384   1.027   5.564   5.398 -0.3625  0.3737 -0.4360
  102SAPE   H5X10385   0.974   5.538   5.304 -0.3214  2.7720 -1.1722
  102SAPE   H5Y10386   1.039   5.472   5.460 -1.0204  0.1853 -0.5729
  102SAPE   C3610387   1.169   5.622   5.359 -0.0709 -0.4199 -0.9665
  102SAPE   H6X10388   1.231   5.649   5.448  2.3948 -1.5643 -2.2574
  102SAPE   H6Y10389   1.152   5.705   5.287 -0.3642  0.0031 -0.4197
  102SAPE   C3710390   1.249   5.502   5.294  0.6748 -0.1838 -0.2725
  102SAPE   H7X10391   1.196   5.466   5.204  0.0052  0.2341 -0.0492
  102SAPE   H7Y10392   1.249   5.428   5.377  0.8172 -0.0991 -0.1943
  102SAPE   C3810393   1.390   5.545   5.245  0.7765  0.1666  0.1770
  102SAPE   H8X10394   1.441   5.585   5.336  1.3492 -0.5275  0.1668
  102SAPE   H8Y10395   1.382   5.627   5.170 -2.3155  0.1405  0.3736
  102SAPE   C3910396   1.460   5.425   5.190 -0.8753  0.5829 -0.7809
  102SAPE   H9X10397   1.444   5.348   5.268 -0.8168 -0.2960 -1.6198
  102SAPE   H9Y10398   1.568   5.452   5.185 -0.2470 -1.5813 -0.0119
  102SAPE  C31010399   1.404   5.373   5.058 -1.3517  0.2980 -0.7577
  102SAPE  H10X10400   1.295   5.349   5.064 -1.9533  3.0373  2.1922
  102SAPE  H10Y10401   1.447   5.273   5.036  1.5550  1.5168 -1.0436
  102SAPE  C31110402   1.428   5.470   4.944  0.0039 -0.4488 -0.0483
  102SAPE  H11X10403   1.538   5.479   4.939  0.0343 -0.4347  0.5939
  102SAPE  H11Y10404   1.366   5.560   4.969 -1.0136 -1.3666  0.8391
  102SAPE  C31210405   1.380   5.420   4.807 -0.0338  0.4451 -0.4685
  102SAPE  H12X10406   1.274   5.390   4.820  0.3864 -0.3043  1.7149
  102SAPE  H12Y10407   1.435   5.325   4.788  0.1011  0.8324 -2.1179
  102SAPE  C31310408   1.408   5.510   4.691 -0.0608 -0.3096  0.3390
  102SAPE  H13X10409   1.495   5.465   4.638  1.2001  3.1369 -0.7597
  102SAPE  H13Y10410   1.420   5.616   4.723  0.4395 -0.4395  0.5968
  102SAPE  C31410411   1.302   5.505   4.578 -0.6733 -0.3994 -0.2912
  102SAPE  H14X10412   1.202   5.549   4.599  0.0564  1.4024 -0.4068
  102SAPE  H14Y10413   1.278   5.402   4.543 -1.9585  0.0242 -0.7316
  102SAPE  C31510414   1.359   5.573   4.450 -0.2062  0.2596  0.5754
  102SAPE  H15X10415   1.456   5.526   4.424 -1.2826 -0.5075 -2.4748
  102SAPE  H15Y10416   1.385   5.681   4.461 -0.9400  0.4525  0.4748
  102SAPE  C31610417   1.270   5.556   4.323  0.2577 -0.3076 -0.2946
  102SAPE  H16X10418   1.164   5.589   4.334 -0.9895 -3.6379 -1.1006
  102SAPE  H16Y10419   1.247   5.452   4.292 -0.8553 -0.6384  1.4796
  102SAPE  C31710420   1.333   5.624   4.200  0.2810 -0.1238 -0.3864
  102SAPE  H17X10421   1.431   5.573   4.193 -0.9536 -2.6680 -0.5246
  102SAPE  H17Y10422   1.348   5.731   4.224 -0.1751  0.4922 -2.5822
  102SAPE  C31810423   1.254   5.606   4.069 -0.1437 -0.7960 -0.1562
  102SAPE  H18X10424   1.146   5.614   4.091  0.4171  1.3100  2.3481
  102SAPE  H18Y10425   1.284   5.513   4.016  0.8878  0.1167 -1.2366
  102SAPE  H18Z10426   1.276   5.687   3.996 -0.2308 -0.0335  0.6478
  103SAPE     N10427   0.541   4.534   2.149 -0.3730  0.0164 -0.4086
  103SAPE   HN110428   0.452   4.585   2.165 -0.7984 -0.7499 -0.3130
  103SAPE   HN210429   0.624   4.596   2.156  1.2080 -2.0705  0.3867
  103SAPE   HN310430   0.537   4.494   2.053  1.2376 -2.7969  0.5994
  103SAPE   C1210431   0.550   4.411   2.240 -0.1891 -0.2003  0.0551
  103SAPE  H12A10432   0.638   4.353   2.204  0.6991 -0.8477  3.0302
  103SAPE  H12B10433   0.458   4.350   2.225  0.3314 -1.1501  0.6165
  103SAPE   C1110434   0.546   4.468   2.383 -0.1902 -0.2410  0.1519
  103SAPE  H11A10435   0.647   4.501   2.415 -0.7188 -0.8613  2.6725
  103SAPE  H11B10436   0.528   4.381   2.449 -0.0753 -1.2952 -1.1632
  103SAPE     P10437   0.483   4.719   2.433 -0.4276  0.0807  0.1067
  103SAPE   O1310438   0.572   4.769   2.323  0.0425 -0.3191 -0.5208
  103SAPE   O1410439   0.355   4.782   2.445  0.2530  0.3452 -0.1225
  103SAPE   O1210440   0.448   4.569   2.404  0.2922 -0.3095 -0.4398
  103SAPE   O1110441   0.561   4.732   2.574 -0.3014  0.9379  0.1419
  103SAPE    C110442   0.524   4.650   2.687 -0.3431  0.1773 -0.1121
  103SAPE    HA10443   0.468   4.557   2.663  2.0232 -1.0870 -1.1283
  103SAPE    HB10444   0.616   4.603   2.728 -0.4257  0.2634  0.1677
  103SAPE    C210445   0.449   4.735   2.787  0.1328 -0.6041 -0.3551
  103SAPE    HS10446   0.373   4.802   2.742 -1.3598 -1.6173  0.6075
  103SAPE   O2110447   0.540   4.818   2.864  0.0202 -0.2819  0.1008
  103SAPE   C2110448   0.567   4.942   2.824 -0.0598  0.1641 -0.0991
  103SAPE   O2210449   0.520   4.997   2.726  0.7093  0.0658 -0.0177
  103SAPE   C2210450   0.667   5.008   2.920 -0.1437 -0.0252  0.2881
  103SAPE   H2R10451   0.605   5.038   3.008  0.8939  2.7329  0.1733
  103SAPE   H2S10452   0.745   4.936   2.950 -0.1437 -0.8105 -1.5096
  103SAPE    C310453   0.357   4.658   2.877  0.5567 -0.0422 -0.1472
  103SAPE    HX10454   0.298   4.592   2.810 -0.1638  0.6414 -0.1893
  103SAPE    HY10455   0.282   4.722   2.928 -2.3528 -2.0829 -1.6007
  103SAPE   O3110456   0.432   4.570   2.969 -0.6883  0.1700  0.5296
  103SAPE   C3110457   0.450   4.622   3.093  0.9677  0.1499 -0.1029
  103SAPE   O3210458   0.401   4.727   3.130  0.0943  0.3093  0.4587
  103SAPE   C3210459   0.538   4.543   3.190 -0.7987  0.4435 -0.1829
  103SAPE   H2X10460   0.644   4.554   3.157 -0.4130 -1.5058  0.2915
  103SAPE   H2Y10461   0.514   4.436   3.177  3.9995 -0.6896 -1.9876
  103SAPE   C2310462   0.733   5.145   2.876  0.0262 -0.2473 -0.4621
  103SAPE   H3R10463   0.665   5.228   2.847 -1.4293  0.0957  3.3476
  103SAPE   H3S10464   0.802   5.119   2.793  0.9320 -0.0774  0.2241
  103SAPE   C2410465   0.818   5.197   2.993  0.0150 -0.1518  0.1085
  103SAPE   H4R10466   0.891   5.263   2.942 -1.7509  1.0687 -0.9616
  103SAPE   H4S10467   0.880   5.111   3.025 -0.0909 -0.6907 -1.0589
  103SAPE   C2510468   0.749   5.262   3.105  0.8309 -0.5564  0.2155
  103SAPE   H5R10469   0.711   5.361   3.077 -0.8764 -0.9343  1.0655
  103SAPE   C2610470   0.728   5.210   3.227  0.5017 -0.6272  0.1399
  103SAPE   H6R10471   0.659   5.259   3.297  0.9113  1.9520 -1.1642
  103SAPE   C2710472   0.766   5.072   3.267 -0.2058 -0.2448  0.6789
  103SAPE   H7R10473   0.874   5.074   3.297  0.2677  0.0832 -0.9746
  103SAPE   H7S10474   0.764   5.002   3.182  4.1517 -1.8672  1.6322
  103SAPE   C2810475   0.689   5.022   3.383 -0.1744 -0.5187  0.4279
  103SAPE   H8R10476   0.614   4.948   3.351  0.0497 -0.2320 -0.8268
  103SAPE   C2910477   0.693   5.053   3.511  0.0114 -0.1618  0.0662
  103SAPE   H9R10478   0.618   5.004   3.575 -0.5219  0.0927 -0.3558
  103SAPE  C21010479   0.785   5.141   3.588 -0.2410 -0.1732  0.3253
  103SAPE  H10R10480   0.737   5.230   3.634 -1.0132 -0.3833 -0.0644
  103SAPE  H10S10481   0.870   5.170   3.523  1.4357  2.1991  3.2906
  103SAPE  C21110482   0.846   5.054   3.692 -0.3822  0.2212  0.0555
  103SAPE  H11R10483   0.937   4.995   3.673 -0.6593 -0.6190  1.2746
  103SAPE  C21210484   0.799   5.040   3.819 -0.0569  1.1010  0.1216
  103SAPE  H12R10485   0.858   4.993   3.899  0.1632  3.5316  1.4772
  103SAPE  C21310486   0.672   5.108   3.877 -0.3567 -0.3943  0.2090
  103SAPE  H13R10487   0.621   5.026   3.932  2.0711 -0.7383  2.1464
  103SAPE  H13S10488   0.605   5.147   3.798  0.2154  2.6751  1.1008
  103SAPE  C21410489   0.701   5.228   3.970  0.4213  0.4210  0.1801
  103SAPE  H14R10490   0.721   5.319   3.911 -0.4696  0.0933 -0.6671
  103SAPE  C21510491   0.683   5.234   4.103 -0.6110  0.1729  0.3149
  103SAPE  H15R10492   0.721   5.325   4.153  0.5292 -0.1864  0.1075
  103SAPE  C21610493   0.660   5.123   4.202  0.6730 -0.9184  0.3945
  103SAPE  H16R10494   0.733   5.040   4.190  2.3276  0.3590  1.2441
  103SAPE  H16S10495   0.554   5.090   4.191  0.8970 -0.9052 -2.2966
  103SAPE  C21710496   0.686   5.168   4.348 -0.3188 -0.7501 -0.8764
  103SAPE  H17R10497   0.790   5.206   4.358  0.0520 -1.5301 -1.6284
  103SAPE  H17S10498   0.674   5.083   4.419  1.3094  1.7440  2.6783
  103SAPE  C21810499   0.581   5.270   4.392  0.7777  0.2259  0.2164
  103SAPE  H18R10500   0.484   5.243   4.345  1.8043 -0.4595 -1.6437
  103SAPE  H18S10501   0.596   5.371   4.350 -3.6699  1.1228  0.3074
  103SAPE  C21910502   0.558   5.280   4.541 -0.7995  0.4286 -0.4180
  103SAPE  H19R10503   0.542   5.176   4.579 -2.2459  1.4814  2.1270
  103SAPE  H19S10504   0.472   5.346   4.566 -0.3503  0.9865 -0.3241
  103SAPE  C22010505   0.677   5.337   4.624 -0.0006  0.2225  0.7970
  103SAPE  H20R10506   0.695   5.444   4.600 -0.4802  0.3989  1.2148
  103SAPE  H20S10507   0.771   5.288   4.589 -1.5029 -1.6202 -0.9112
  103SAPE  H20T10508   0.643   5.323   4.728 -2.8518 -1.5557 -0.2609
  103SAPE   C3310509   0.534   4.572   3.332  0.6243  0.2397 -0.2739
  103SAPE   H3X10510   0.435   4.538   3.368 -0.3171  1.6459 -1.4283
  103SAPE   H3Y10511   0.547   4.681   3.351 -1.4261  0.1945  2.0183
  103SAPE   C3410512   0.657   4.505   3.411  0.5808  0.3362 -0.1642
  103SAPE   H4X10513   0.734   4.579   3.382  3.0541 -1.4503  1.4856
  103SAPE   H4Y10514   0.676   4.407   3.363 -0.1745  0.6686 -1.1899
  103SAPE   C3510515   0.648   4.478   3.564  0.1512 -1.2244 -0.1447
  103SAPE   H5X10516   0.740   4.426   3.599  0.7312 -0.4712 -0.5388
  103SAPE   H5Y10517   0.566   4.403   3.571  0.9430 -2.0825  0.1299
  103SAPE   C3610518   0.624   4.603   3.655  0.4672 -0.3420  0.5164
  103SAPE   H6X10519   0.532   4.652   3.616  1.4152  0.5871 -0.6475
  103SAPE   H6Y10520   0.702   4.682   3.658  0.1832  0.0092 -0.6071
  103SAPE   C3710521   0.602   4.549   3.800  0.0777  0.5018 -0.7289
  103SAPE   H7X10522   0.707   4.524   3.828 -0.1831 -0.9835 -0.9735
  103SAPE   H7Y10523   0.538   4.458   3.799  1.9329 -0.8678 -0.7368
  103SAPE   C3810524   0.546   4.648   3.906 -0.0865 -0.3231  0.7970
  103SAPE   H8X10525   0.439   4.667   3.884  0.2016  0.9103  0.4002
  103SAPE   H8Y10526   0.584   4.752   3.902 -0.1324 -0.3201 -3.5029
  103SAPE   C3910527   0.562   4.582   4.043  0.2124 -0.3519  0.1126
  103SAPE   H9X10528   0.670   4.554   4.052  0.2099  0.1713  2.6707
  103SAPE   H9Y10529   0.502   4.489   4.039  0.4958 -0.5203 -0.3231
  103SAPE  C31010530   0.525   4.675   4.158 -0.4358  0.3294 -0.0764
  103SAPE  H10X10531   0.414   4.670   4.163 -0.3875 -0.2393  0.4973
  103SAPE  H10Y10532   0.552   4.782   4.144 -0.2677  0.1413 -1.3856
  103SAPE  C31110533   0.588   4.635   4.297  0.5081  0.0021  0.2796
  103SAPE  H11X10534   0.693   4.614   4.269  0.2351  0.6132 -1.2933
  103SAPE  H11Y10535   0.539   4.542   4.333  0.1661  0.2392  0.4387
  103SAPE  C31210536   0.578   4.750   4.405 -0.1302  0.5732 -0.3623
  103SAPE  H12X10537   0.478   4.763   4.450 -0.1943 -0.0504 -0.3200
  103SAPE  H12Y10538   0.596   4.845   4.350 -0.7282  1.7174  1.3240
  103SAPE  C31310539   0.669   4.725   4.523  0.5234  0.2515  0.0618
  103SAPE  H13X10540   0.771   4.733   4.478 -0.4137  2.4461 -1.9095
  103SAPE  H13Y10541   0.661   4.625   4.571 -0.2886 -0.0556 -0.6940
  103SAPE  C31410542   0.656   4.831   4.632 -0.3837 -0.0978  1.0074
  103SAPE  H14X10543   0.550   4.865   4.634 -0.0318  1.0228  1.7816
  103SAPE  H14Y10544   0.710   4.920   4.595 -2.0770  1.1857  1.4687
  103SAPE  C31510545   0.684   4.785   4.769 -0.0850 -0.0679 -0.6776
  103SAPE  H15X10546   0.794   4.795   4.783 -0.0811 -0.4860 -0.3939
  103SAPE  H15Y10547   0.668   4.676   4.778 -0.9052  0.1674  1.2593
  103SAPE  C31610548   0.610   4.857   4.880 -0.4079 -0.2087  0.2407
  103SAPE  H16X10549   0.605   4.966   4.859  0.4864  0.2157  1.9819
  103SAPE  H16Y10550   0.661   4.842   4.978 -0.2649  0.5198  0.2856
  103SAPE  C31710551   0.466   4.802   4.894  0.4072 -0.7077  0.4271
  103SAPE  H17X10552   0.468   4.692   4.915 -0.7105 -1.0926 -1.2944
  103SAPE  H17Y10553   0.419   4.825   4.796  2.0751  0.8864 -0.0389
  103SAPE  C31810554   0.382   4.865   5.006 -0.4140 -0.2384 -0.1307
  103SAPE  H18X10555   0.398   4.975   5.008  2.3414 -0.5901  2.0435
  103SAPE  H18Y10556   0.410   4.839   5.110 -2.0084 -2.1847 -0.1373
  103SAPE  H18Z10557   0.277   4.835   4.985 -0.5017  0.5925 -0.9478
  104SAPE     N10558   0.863   4.117   2.281 -0.0897 -0.3154 -0.7508
  104SAPE   HN110559   0.967   4.126   2.286 -0.0827 -1.0283  0.8381
  104SAPE   HN210560   0.826   4.022   2.262 -0.7710 -0.7586  2.3457
  104SAPE   HN310561   0.823   4.175   2.204 -2.9486  3.3691  3.0124
  104SAPE   C1210562   0.807   4.157   2.420 -0.3642 -0.2482 -0.3695
  104SAPE  H12A10563   0.817   4.069   2.488 -0.3471 -0.1713 -0.2717
  104SAPE  H12B10564   0.703   4.182   2.391  0.2280 -0.2369 -2.6723
  104SAPE   C1110565   0.889   4.278   2.475  0.2944  0.4402  0.5256
  104SAPE  H11A10566   0.991   4.240   2.496  1.6239  2.2653 -2.0022
  104SAPE  H11B10567   0.858   4.305   2.578  0.1066 -1.0535  0.8816
  104SAPE     P10568   0.992   4.481   2.364  0.0923 -0.5804 -0.2388
  104SAPE   O1310569   1.119   4.416   2.307  0.7214 -0.4598 -0.2742
  104SAPE   O1410570   0.947   4.598   2.284 -0.4496 -0.4738 -0.0053
  104SAPE   O1210571   0.878   4.378   2.379  0.0132  0.4201 -0.6193
  104SAPE   O1110572   1.003   4.527   2.515 -0.3581 -0.5014 -0.5291
  104SAPE    C110573   0.890   4.602   2.568 -0.5350  0.5182  0.0223
  104SAPE    HA10574   0.879   4.697   2.512  0.6427  0.3031 -0.5977
  104SAPE    HB10575   0.793   4.549   2.557 -0.1376 -0.5677  1.4970
  104SAPE    C210576   0.893   4.623   2.723 -0.3027  0.3138  0.1660
  104SAPE    HS10577   0.809   4.690   2.754  1.3394  1.5616  2.2009
  104SAPE   O2110578   1.014   4.684   2.754 -0.1523 -0.7598  0.2228
  104SAPE   C2110579   1.035   4.805   2.713  0.5537 -0.2491 -0.4388
  104SAPE   O2210580   0.951   4.882   2.660 -0.4682 -0.2360 -0.4906
  104SAPE   C2210581   1.183   4.843   2.720 -0.1316  0.0370 -0.6087
  104SAPE   H2R10582   1.241   4.758   2.762 -1.0215 -0.1624  0.2535
  104SAPE   H2S10583   1.211   4.848   2.612  0.6578 -1.7837 -0.5268
  104SAPE    C310584   0.863   4.490   2.795 -0.3976  0.4693 -0.1456
  104SAPE    HX10585   0.947   4.422   2.767  0.5583  1.2844  0.7025
  104SAPE    HY10586   0.773   4.438   2.755 -0.3885 -0.8867  1.4782
  104SAPE   O3110587   0.861   4.515   2.939 -0.4384 -0.3916 -0.0324
  104SAPE   C3110588   0.986   4.534   2.990  0.0350 -0.3054 -0.4821
  104SAPE   O3210589   1.088   4.492   2.948 -0.7303 -0.0101  0.0165
  104SAPE   C3210590   0.985   4.634   3.101 -0.0218 -0.1321 -0.2367
  104SAPE   H2X10591   0.902   4.708   3.088 -0.5674 -0.9013 -1.3135
  104SAPE   H2Y10592   1.084   4.683   3.091  0.0623 -0.2401  0.0686
  104SAPE   C2310593   1.222   4.967   2.800 -0.0989 -0.1612 -0.4543
  104SAPE   H3R10594   1.164   5.059   2.777  0.1370 -0.2479 -1.4423
  104SAPE   H3S10595   1.326   4.997   2.772  0.0373 -0.1424  0.0556
  104SAPE   C2410596   1.233   4.929   2.956 -0.3515 -0.2011  0.6107
  104SAPE   H4R10597   1.281   4.831   2.975  0.0040 -0.0116  0.7083
  104SAPE   H4S10598   1.128   4.928   2.993 -0.8224 -0.1419 -0.6931
  104SAPE   C2510599   1.312   5.033   3.028 -0.3968 -0.5196  0.5887
  104SAPE   H5R10600   1.402   5.080   2.986 -0.1638  0.6808  2.3474
  104SAPE   C2610601   1.285   5.063   3.159 -0.4086  0.1575 -0.6158
  104SAPE   H6R10602   1.355   5.132   3.208 -1.6547  0.2769  1.1028
  104SAPE   C2710603   1.171   5.011   3.240  0.9058  0.0679  0.4892
  104SAPE   H7R10604   1.195   4.912   3.284 -1.8324  0.3077  2.7556
  104SAPE   H7S10605   1.084   4.980   3.179  0.6064  1.0803  0.3833
  104SAPE   C2810606   1.136   5.112   3.338 -0.6756 -0.4778  0.1950
  104SAPE   H8R10607   1.062   5.184   3.298  0.3287  1.6558  1.9379
  104SAPE   C2910608   1.174   5.130   3.463 -1.2146  0.4728 -0.1327
  104SAPE   H9R10609   1.129   5.214   3.518 -1.0984  1.3149 -1.3002
  104SAPE  C21010610   1.277   5.041   3.536 -0.1837 -0.5010  0.5259
  104SAPE  H10R10611   1.310   4.957   3.471  0.6639  1.0773 -1.1865
  104SAPE  H10S10612   1.226   4.984   3.616  0.9164 -0.3236  1.3754
  104SAPE  C21110613   1.399   5.113   3.592  0.1791  0.3314  0.1460
  104SAPE  H11R10614   1.473   5.134   3.513  0.6967  1.5583  0.9220
  104SAPE  C21210615   1.426   5.160   3.716  0.3675 -0.3376  0.1317
  104SAPE  H12R10616   1.519   5.219   3.730  2.4068 -3.2131 -0.4274
  104SAPE  C21310617   1.340   5.139   3.842  0.7182 -0.5053 -0.1791
  104SAPE  H13R10618   1.392   5.183   3.930 -2.8354 -0.3698  2.0522
  104SAPE  H13S10619   1.315   5.031   3.855  1.4041 -0.8070 -1.2235
  104SAPE  C21410620   1.203   5.209   3.828 -0.2388 -0.7272  0.1974
  104SAPE  H14R10621   1.208   5.286   3.749 -1.8902 -0.9341 -0.1341
  104SAPE  C21510622   1.103   5.195   3.917  0.0921  0.0354  0.2723
  104SAPE  H15R10623   1.007   5.246   3.903  0.3225  0.4202  0.0977
  104SAPE  C21610624   1.106   5.099   4.037 -0.4614 -0.4194 -0.5541
  104SAPE  H16R10625   1.191   5.027   4.034 -0.6017 -0.6585  0.5534
  104SAPE  H16S10626   1.011   5.041   4.042 -1.7704  1.6822 -0.1695
  104SAPE  C21710627   1.117   5.180   4.167 -0.1629  0.4042 -0.0580
  104SAPE  H17R10628   1.039   5.258   4.157  1.4191  1.9358 -1.0246
  104SAPE  H17S10629   1.218   5.222   4.187  0.0497 -1.0422  2.2261
  104SAPE  C21810630   1.088   5.090   4.288 -0.0320 -0.6363 -0.3063
  104SAPE  H18R10631   1.167   5.012   4.283  1.1350  0.3778  1.4487
  104SAPE  H18S10632   0.995   5.033   4.265 -0.6361  1.1367 -2.6460
  104SAPE  C21910633   1.089   5.162   4.424 -0.2182 -0.4761 -0.9312
  104SAPE  H19R10634   1.009   5.239   4.421 -1.0286 -1.1173  1.6466
  104SAPE  H19S10635   1.192   5.206   4.430  1.0607 -3.2210 -1.2730
  104SAPE  C22010636   1.062   5.078   4.556 -0.0970  0.5287  0.5411
  104SAPE  H20R10637   0.956   5.044   4.555 -0.1256  0.6177 -0.5744
  104SAPE  H20S10638   1.074   5.133   4.651 -0.2666  0.1175  0.8048
  104SAPE  H20T10639   1.126   4.987   4.543 -1.1669  0.0519 -1.9987
  104SAPE   C3310640   0.988   4.564   3.236 -0.6297 -1.1451 -0.1677
  104SAPE   H3X10641   1.081   4.503   3.244  0.7241  0.9913  1.3314
  104SAPE   H3Y10642   0.898   4.500   3.255 -1.9216  0.7291  0.2599
  104SAPE   C3410643   1.015   4.672   3.349  0.1359  0.2205 -0.6774
  104SAPE   H4X10644   0.942   4.755   3.342 -0.1431 -0.0076 -0.4731
  104SAPE   H4Y10645   1.116   4.717   3.335  0.3604 -0.4941 -1.4511
  104SAPE   C3510646   1.011   4.611   3.491 -0.4220 -0.0535  0.2730
  104SAPE   H5X10647   1.082   4.527   3.481  0.4049  0.5463  0.9802
  104SAPE   H5Y10648   0.908   4.571   3.504 -0.5448  0.7473  1.9693
  104SAPE   C3610649   1.053   4.711   3.603 -0.3846 -0.2620  0.6974
  104SAPE   H6X10650   0.988   4.798   3.583 -1.3742 -0.9915  0.6602
  104SAPE   H6Y10651   1.157   4.747   3.593 -0.8712  1.1970  0.6957
  104SAPE   C3710652   1.031   4.650   3.736  0.4955  0.0110 -0.6173
  104SAPE   H7X10653   1.083   4.552   3.736  1.3994  0.4878 -0.5003
  104SAPE   H7Y10654   0.920   4.636   3.739  0.4627 -0.2859 -2.1865
  104SAPE   C3810655   1.071   4.728   3.858 -0.6435 -0.4481 -0.0217
  104SAPE   H8X10656   1.017   4.826   3.860 -1.0862 -0.6974  0.3849
  104SAPE   H8Y10657   1.179   4.753   3.857 -0.3393 -1.4706  2.1690
  104SAPE   C3910658   1.028   4.653   3.983 -0.3177  0.3444  0.2822
  104SAPE   H9X10659   1.028   4.544   3.964 -0.2859  0.4895 -0.6353
  104SAPE   H9Y10660   0.923   4.680   4.005 -0.7952  1.8589 -3.1873
  104SAPE  C31010661   1.122   4.678   4.100 -0.1031  0.3576 -0.3226
  104SAPE  H10X10662   1.148   4.786   4.107  2.2548 -0.1706  0.0585
  104SAPE  H10Y10663   1.212   4.617   4.078  0.2713  0.9746 -0.5417
  104SAPE  C31110664   1.060   4.637   4.234  0.4141 -0.1969  0.3536
  104SAPE  H11X10665   1.026   4.532   4.239 -0.7571  0.0148 -1.8900
  104SAPE  H11Y10666   0.972   4.704   4.245 -1.3713 -2.3525 -0.2089
  104SAPE  C31210667   1.143   4.670   4.356 -0.0223 -0.3510  0.8030
  104SAPE  H12X10668   1.185   4.772   4.348 -0.9605 -0.0855 -2.0668
  104SAPE  H12Y10669   1.232   4.604   4.347  0.2831  0.3137 -2.0448
  104SAPE  C31310670   1.080   4.657   4.490 -0.9658 -0.4603  1.0956
  104SAPE  H13X10671   1.023   4.747   4.521  0.9976  1.0678  0.4824
  104SAPE  H13Y10672   1.160   4.636   4.564 -0.2155  0.3395  0.5254
  104SAPE  C31410673   0.975   4.539   4.498 -0.4538  0.3444  0.0523
  104SAPE  H14X10674   1.031   4.457   4.447 -0.1168  0.8810 -0.4544
  104SAPE  H14Y10675   0.888   4.552   4.430 -0.4884 -1.2622 -0.2606
  104SAPE  C31510676   0.947   4.495   4.642 -0.2952  0.3802  0.0176
  104SAPE  H15X10677   0.879   4.572   4.684  1.4589  0.8456  2.2439
  104SAPE  H15Y10678   1.041   4.497   4.702  1.9241 -0.7117 -3.1256
  104SAPE  C31610679   0.887   4.356   4.648  0.0009 -0.1775 -0.2053
  104SAPE  H16X10680   0.951   4.272   4.614  1.5967  1.3700 -1.1747
  104SAPE  H16Y10681   0.795   4.349   4.585 -0.9163  2.1816  0.7544
  104SAPE  C31710682   0.834   4.314   4.790  0.4878  0.0334 -0.3671
  104SAPE  H17X10683   0.786   4.214   4.785  0.4960  0.0157 -0.0722
  104SAPE  H17Y10684   0.762   4.388   4.831  1.5386  0.8891 -0.0420
  104SAPE  C31810685   0.946   4.307   4.909 -0.1545 -0.2896 -0.1725
  104SAPE  H18X10686   1.006   4.401   4.910 -1.1575  0.4104  1.9097
  104SAPE  H18Y10687   1.005   4.216   4.885  0.7802  0.1525  0.3944
  104SAPE  H18Z10688   0.896   4.294   5.008 -0.9521 -2.1789 -0.7775
  105SAPE     N10689   3.703   3.133   1.828  0.6187  0.1430  0.2266
  105SAPE   HN110690   3.710   3.111   1.726 -0.2421 -3.2904  0.7956
  105SAPE   HN210691   3.627   3.203   1.834  0.4114 -0.2152  3.2286
  105SAPE   HN310692   3.789   3.178   1.865  0.0720  1.2772  0.1718
  105SAPE   C1210693   3.655   3.016   1.913 -0.1130 -0.0893  0.0145
  105SAPE  H12A10694   3.545   3.013   1.901 -0.0923 -2.0276  0.0558
  105SAPE  H12B10695   3.680   3.026   2.021  0.4224 -0.2826 -0.0864
  105SAPE   C1110696   3.711   2.883   1.861 -0.4358  0.3023  0.4846
  105SAPE  H11A10697   3.699   2.890   1.751  0.1321 -1.4508  0.2863
  105SAPE  H11B10698   3.646   2.809   1.913 -2.1507  0.5994 -1.1142
  105SAPE     P10699   3.932   2.746   1.895  0.1067  0.1735 -0.1759
  105SAPE   O1310700   3.921   2.685   1.757  0.5664 -0.3911 -0.1108
  105SAPE   O1410701   4.065   2.770   1.949 -0.4289  0.7209 -0.5450
  105SAPE   O1210702   3.846   2.880   1.902 -0.4686  0.0699  0.0355
  105SAPE   O1110703   3.857   2.648   1.993  0.3595 -0.1958  0.0643
  105SAPE    C110704   3.803   2.675   2.124  0.0289 -0.3165  0.3782
  105SAPE    HA10705   3.730   2.759   2.126 -1.2053 -1.3420 -0.0608
  105SAPE    HB10706   3.746   2.587   2.161 -2.1021  0.4489 -0.8651
  105SAPE    C210707   3.914   2.702   2.231  0.3011 -0.0493  0.3644
  105SAPE    HS10708   4.009   2.655   2.200  0.1306 -0.1053 -0.0901
  105SAPE   O2110709   3.861   2.653   2.359 -0.2699 -0.4032  0.2265
  105SAPE   C2110710   3.959   2.629   2.449 -0.1826 -0.4060 -0.2587
  105SAPE   O2210711   4.078   2.645   2.425 -0.5558 -0.5678  0.3833
  105SAPE   C2210712   3.911   2.581   2.581 -0.9037  0.3392  0.4649
  105SAPE   H2R10713   3.864   2.657   2.647 -0.0528  0.2496  1.1911
  105SAPE   H2S10714   3.836   2.503   2.560 -1.7380  1.2573 -0.0468
  105SAPE    C310715   3.940   2.851   2.242 -0.3301 -0.3212 -0.5999
  105SAPE    HX10716   3.884   2.912   2.167 -0.1702 -0.7864 -1.1031
  105SAPE    HY10717   4.047   2.873   2.218 -0.3552  0.2855 -0.1824
  105SAPE   O3110718   3.917   2.907   2.373 -0.0440 -0.0762 -0.2827
  105SAPE   C3110719   3.942   3.032   2.388 -0.4046  0.1926  0.3557
  105SAPE   O3210720   3.988   3.105   2.299 -0.8975  0.1538 -0.1207
  105SAPE   C3210721   3.902   3.077   2.527 -0.0117 -0.3302 -0.5455
  105SAPE   H2X10722   3.799   3.111   2.507 -0.5893 -1.8977 -0.3850
  105SAPE   H2Y10723   3.963   3.163   2.561  0.5198 -0.5035 -1.0459
  105SAPE   C2310724   4.025   2.525   2.672  0.7000 -0.8390 -0.5779
  105SAPE   H3R10725   4.096   2.468   2.608 -1.2340 -1.3917 -2.3180
  105SAPE   H3S10726   3.986   2.450   2.743 -2.4840  0.9822 -0.2124
  105SAPE   C2410727   4.097   2.637   2.744 -0.6246 -0.2526 -0.3554
  105SAPE   H4R10728   4.026   2.695   2.807  0.0197  0.5263 -0.3308
  105SAPE   H4S10729   4.135   2.706   2.665 -0.1678 -1.8383 -1.5542
  105SAPE   C2510730   4.211   2.576   2.837  0.7189  0.6796  0.1181
  105SAPE   H5R10731   4.309   2.580   2.788 -0.3350  3.2559 -2.0715
  105SAPE   C2610732   4.205   2.526   2.955  0.2141  0.1155 -0.0354
  105SAPE   H6R10733   4.287   2.489   3.020 -2.1165 -1.8634  1.9949
  105SAPE   C2710734   4.080   2.523   3.045 -0.2918 -0.5253  0.4388
  105SAPE   H7R10735   3.986   2.550   2.993 -0.6994 -2.5881  0.0191
  105SAPE   H7S10736   4.096   2.608   3.115 -0.1679  0.7338 -1.0784
  105SAPE   C2810737   4.075   2.391   3.116 -0.9115 -0.5963 -0.5249
  105SAPE   H8R10738   4.081   2.304   3.049 -0.2953 -0.6864 -0.3588
  105SAPE   C2910739   4.072   2.369   3.251 -1.0220 -0.4014  0.7575
  105SAPE   H9R10740   4.089   2.263   3.278  0.7405 -0.1539  0.7170
  105SAPE  C21010741   4.066   2.469   3.367 -1.1315  0.1793  0.3117
  105SAPE  H10R10742   4.033   2.565   3.322  0.0411  0.0088 -0.9979
  105SAPE  H10S10743   4.159   2.478   3.428 -0.9324 -0.8069  0.1673
  105SAPE  C21110744   3.948   2.444   3.459 -0.0658  0.1261  0.1551
  105SAPE  H11R10745   3.854   2.467   3.408 -0.7771 -2.5777  0.1186
  105SAPE  C21210746   3.944   2.379   3.570 -0.5505 -0.1993 -0.6456
  105SAPE  H12R10747   3.853   2.371   3.631  0.2685 -0.5448  0.5691
  105SAPE  C21310748   4.071   2.326   3.645  0.3593 -0.0757 -0.6568
  105SAPE  H13R10749   4.132   2.411   3.682  1.9200 -0.9104 -1.1989
  105SAPE  H13S10750   4.131   2.267   3.573  1.7580 -1.4650  1.5368
  105SAPE  C21410751   4.034   2.248   3.770 -0.1527  0.6770  0.5211
  105SAPE  H14R10752   3.986   2.306   3.849 -2.1966  2.0670 -1.5923
  105SAPE  C21510753   4.095   2.127   3.792  0.2981 -0.0319  0.6960
  105SAPE  H15R10754   4.056   2.069   3.877 -1.4102 -1.2569 -0.8413
  105SAPE  C21610755   4.195   2.044   3.706 -0.2520 -0.2118  0.0849
  105SAPE  H16R10756   4.181   2.058   3.596  2.6408 -2.5065 -0.6939
  105SAPE  H16S10757   4.185   1.939   3.740  0.4751 -0.8010 -1.4113
  105SAPE  C21710758   4.340   2.080   3.730 -0.3701 -0.2618  0.2609
  105SAPE  H17R10759   4.345   2.186   3.697  0.5997 -1.0570 -2.4173
  105SAPE  H17S10760   4.409   2.029   3.660 -0.8181 -2.7011  1.4766
  105SAPE  C21810761   4.390   2.064   3.877  0.0317 -0.5506  0.0244
  105SAPE  H18R10762   4.312   2.064   3.956  0.5043 -0.0478  0.4928
  105SAPE  H18S10763   4.460   2.148   3.898  0.6214 -1.1225  0.3965
  105SAPE  C21910764   4.473   1.926   3.895 -0.4501 -0.5458  0.6153
  105SAPE  H19R10765   4.540   1.939   3.807 -1.2877 -1.3088 -0.1540
  105SAPE  H19S10766   4.405   1.840   3.880 -2.3408  1.2480 -1.9477
  105SAPE  C22010767   4.554   1.905   4.025  0.3996  1.2192 -0.7335
  105SAPE  H20R10768   4.500   1.941   4.115 -1.3493  1.0817 -1.6991
  105SAPE  H20S10769   4.655   1.953   4.021  0.9617  0.1434  0.0262
  105SAPE  H20T10770   4.567   1.796   4.038 -0.0383  1.3010  0.5141
  105SAPE   C3310771   3.900   2.962   2.635  0.3686  0.4275 -0.9037
  105SAPE   H3X10772   4.001   2.916   2.641  0.2994  0.2953 -0.7507
  105SAPE   H3Y10773   3.831   2.882   2.599  1.4762  0.9901 -4.7201
  105SAPE   C3410774   3.854   3.013   2.774  0.3445  0.6936  0.3900
  105SAPE   H4X10775   3.763   3.076   2.762  1.2152  2.2258  1.4129
  105SAPE   H4Y10776   3.939   3.066   2.822  0.8455 -0.8941  1.3133
  105SAPE   C3510777   3.834   2.899   2.878  0.0895 -0.2331  0.7219
  105SAPE   H5X10778   3.922   2.836   2.905 -1.0599 -1.8428  0.9053
  105SAPE   H5Y10779   3.759   2.835   2.826  0.6464  0.0758 -0.4942
  105SAPE   C3610780   3.769   2.955   3.009 -0.4841 -0.2179 -1.3512
  105SAPE   H6X10781   3.708   2.874   3.054  0.9617 -1.2870 -1.2153
  105SAPE   H6Y10782   3.715   3.050   2.989 -1.3846  0.0137  1.6571
  105SAPE   C3710783   3.871   2.985   3.114 -0.9406  0.8052 -0.8751
  105SAPE   H7X10784   3.821   3.064   3.175 -0.4621  0.5153 -0.0960
  105SAPE   H7Y10785   3.970   3.020   3.078 -0.5242 -0.2382 -0.7629
  105SAPE   C3810786   3.893   2.859   3.205  0.4907 -0.1929 -0.1565
  105SAPE   H8X10787   3.902   2.773   3.135  3.5045 -1.6437  1.8045
  105SAPE   H8Y10788   3.801   2.839   3.263  0.5953  0.9407  0.4223
  105SAPE   C3910789   4.013   2.883   3.298 -0.4483 -0.4331 -0.3687
  105SAPE   H9X10790   4.097   2.912   3.231 -1.0449  0.6529 -0.6630
  105SAPE   H9Y10791   4.043   2.780   3.328  2.4001 -0.1592 -1.8769
  105SAPE  C31010792   3.996   2.979   3.414  0.2440 -0.3361  0.0842
  105SAPE  H10X10793   3.905   2.945   3.468 -1.2306  0.9149 -1.5151
  105SAPE  H10Y10794   3.977   3.079   3.371  0.0815  0.0238  0.9681
  105SAPE  C31110795   4.113   2.996   3.519 -0.5819 -0.0111  0.1061
  105SAPE  H11X10796   4.201   3.023   3.457  0.4601  3.1962  2.7319
  105SAPE  H11Y10797   4.135   2.898   3.568  2.1560  1.0277  1.1633
  105SAPE  C31210798   4.080   3.101   3.622 -0.1037 -0.0935  0.1818
  105SAPE  H12X10799   3.970   3.101   3.640 -0.5248 -1.5213 -2.0470
  105SAPE  H12Y10800   4.106   3.202   3.584 -2.3061  0.7398  0.6885
  105SAPE  C31310801   4.176   3.092   3.743 -0.3053 -0.4884  0.3016
  105SAPE  H13X10802   4.283   3.099   3.711 -0.1501  1.6478  1.0891
  105SAPE  H13Y10803   4.166   2.989   3.784  1.0390 -0.6732  0.2139
  105SAPE  C31410804   4.142   3.193   3.853  0.3677  0.2161 -0.5762
  105SAPE  H14X10805   4.039   3.228   3.834  0.1495  0.0559  0.2774
  105SAPE  H14Y10806   4.204   3.283   3.831 -0.2621  0.4701 -1.3573
  105SAPE  C31510807   4.139   3.140   4.000 -0.5311  0.6062  0.4819
  105SAPE  H15X10808   4.050   3.076   4.015 -1.1219  1.2955  0.0481
  105SAPE  H15Y10809   4.113   3.234   4.053  0.5025  1.7877 -0.9943
  105SAPE  C31610810   4.272   3.072   4.034  0.4876  0.1421  0.4676
  105SAPE  H16X10811   4.354   3.143   4.008 -1.2013  2.1679  0.4146
  105SAPE  H16Y10812   4.279   2.975   3.980  2.9793  0.6747 -0.3015
  105SAPE  C31710813   4.283   3.030   4.176 -0.3458  0.2685 -0.6232
  105SAPE  H17X10814   4.292   3.120   4.241  4.0805  1.5345 -2.5921
  105SAPE  H17Y10815   4.378   2.973   4.191 -0.2133  1.0037  1.6504
  105SAPE  C31810816   4.182   2.927   4.219  0.4525  0.2745  0.3577
  105SAPE  H18X10817   4.204   2.827   4.176 -2.0776  0.3628 -1.3709
  105SAPE  H18Y10818   4.080   2.958   4.189 -0.0595 -1.8014 -0.2152
  105SAPE  H18Z10819   4.193   2.906   4.327  2.7625  0.1829  0.1572
  106SAPE     N10820   5.235   5.332   2.150  0.4812 -0.3806 -0.1817
  106SAPE   HN110821   5.261   5.258   2.218  1.0916  0.2406  0.2689
  106SAPE   HN210822   5.178   5.289   2.074 -0.4141  1.2066 -0.4360
  106SAPE   HN310823   5.323   5.350   2.097 -0.2512  0.6975 -1.0772
  106SAPE   C1210824   5.164   5.449   2.205  0.0707  0.2839  0.0919
  106SAPE  H12A10825   5.119   5.505   2.121 -1.3121  0.4569  0.9157
  106SAPE  H12B10826   5.236   5.517   2.256 -2.2684  1.4418  2.0630
  106SAPE   C1110827   5.065   5.398   2.316 -0.4644 -0.3509 -0.6966
  106SAPE  H11A10828   5.005   5.483   2.354 -0.3625 -0.5381 -0.1104
  106SAPE  H11B10829   5.126   5.365   2.403  1.0214  0.8378 -1.2359
  106SAPE     P10830   4.828   5.297   2.246 -0.3085 -0.3371 -0.0157
  106SAPE   O1310831   4.807   5.427   2.183  0.0705  0.3051 -0.0615
  106SAPE   O1410832   4.779   5.174   2.177  0.1494  0.4519  0.4229
  106SAPE   O1210833   4.984   5.292   2.266 -0.3776  0.5340 -0.4088
  106SAPE   O1110834   4.774   5.293   2.395 -0.1108 -1.0732 -0.4128
  106SAPE    C110835   4.724   5.423   2.449  0.2203 -0.3218  0.2794
  106SAPE    HA10836   4.797   5.498   2.412  0.3527 -0.4309  0.3168
  106SAPE    HB10837   4.628   5.444   2.399  1.4306 -0.1789 -2.1374
  106SAPE    C210838   4.723   5.428   2.605  0.0698 -0.5063  0.1763
  106SAPE    HS10839   4.705   5.531   2.644  0.3896 -0.0771 -0.7931
  106SAPE   O2110840   4.851   5.388   2.656  0.3532  0.6783  0.0185
  106SAPE   C2110841   4.949   5.481   2.639  0.1797  0.5433  0.0362
  106SAPE   O2210842   4.936   5.589   2.588  0.1988 -0.3658 -0.4724
  106SAPE   C2210843   5.078   5.413   2.687  1.2644 -0.1936  0.2090
  106SAPE   H2R10844   5.076   5.407   2.798  1.9307  2.6291  0.4586
  106SAPE   H2S10845   5.075   5.307   2.654  2.0056 -0.0710 -0.2817
  106SAPE    C310846   4.608   5.350   2.667  0.4663 -0.3494  0.3087
  106SAPE    HX10847   4.611   5.246   2.628 -0.6272 -0.3528  0.2059
  106SAPE    HY10848   4.511   5.385   2.627  0.2584  1.4748  2.2423
  106SAPE   O3110849   4.628   5.349   2.811  0.5095 -0.2869 -0.5276
  106SAPE   C3110850   4.553   5.269   2.883 -0.3155  0.1763  0.1279
  106SAPE   O3210851   4.483   5.181   2.839  0.2615  0.3354 -0.3670
  106SAPE   C3210852   4.576   5.308   3.031  0.1708 -0.0588 -0.0959
  106SAPE   H2X10853   4.513   5.396   3.056  1.2384  1.1200 -1.4254
  106SAPE   H2Y10854   4.680   5.345   3.041 -0.9579  4.0266 -1.6192
  106SAPE   C2310855   5.214   5.484   2.638  0.2155  0.4250 -0.1262
  106SAPE   H3R10856   5.189   5.548   2.550  0.6923  0.5591 -0.1663
  106SAPE   H3S10857   5.286   5.414   2.591 -1.6260 -0.3849 -1.9080
  106SAPE   C2410858   5.267   5.570   2.754 -0.5150  0.1702  0.3980
  106SAPE   H4R10859   5.335   5.646   2.710  0.1204 -0.6074  0.0085
  106SAPE   H4S10860   5.341   5.510   2.811  0.7055  0.2218 -1.0721
  106SAPE   C2510861   5.169   5.646   2.837  0.2791  0.0620  0.4075
  106SAPE   H5R10862   5.127   5.729   2.779  0.7826  1.0354  1.3989
  106SAPE   C2610863   5.137   5.621   2.965  0.1303 -0.4952  0.8359
  106SAPE   H6R10864   5.060   5.685   3.010  0.0156  0.2922 -0.4281
  106SAPE   C2710865   5.198   5.518   3.052 -0.3193  0.5209 -0.2887
  106SAPE   H7R10866   5.296   5.550   3.092 -0.4696 -0.3359  0.8090
  106SAPE   H7S10867   5.231   5.432   2.991 -3.3892 -0.8965 -0.1480
  106SAPE   C2810868   5.121   5.464   3.171 -0.7720  0.1114  0.5630
  106SAPE   H8R10869   5.111   5.533   3.255 -2.9816  2.3903 -1.4410
  106SAPE   C2910870   5.069   5.346   3.181  0.6431  0.4490 -0.0661
  106SAPE   H9R10871   5.021   5.321   3.278  2.3385 -1.5992  0.3184
  106SAPE  C21010872   5.061   5.240   3.075 -0.1209 -0.5940 -0.3491
  106SAPE  H10R10873   5.133   5.162   3.106  1.4521  0.2733 -1.6529
  106SAPE  H10S10874   5.099   5.277   2.977  0.8898  1.1151  0.6493
  106SAPE  C21110875   4.925   5.181   3.063  0.1232 -0.0408 -0.0321
  106SAPE  H11R10876   4.856   5.237   2.998  0.3641 -0.1695 -0.3975
  106SAPE  C21210877   4.895   5.053   3.103 -0.1005 -0.2407 -0.0797
  106SAPE  H12R10878   4.793   5.012   3.094 -0.0906 -0.6924  1.5266
  106SAPE  C21310879   4.997   4.963   3.176  0.0136 -0.1147  0.4627
  106SAPE  H13R10880   5.042   5.015   3.263  0.8231 -2.3803  1.4716
  106SAPE  H13S10881   5.076   4.928   3.107  0.2870  1.0230  0.1705
  106SAPE  C21410882   4.931   4.843   3.242  0.5798  0.1261  0.4518
  106SAPE  H14R10883   4.896   4.772   3.165 -0.7916  1.7158 -0.4537
  106SAPE  C21510884   4.929   4.811   3.372  0.4615 -0.1744  0.4142
  106SAPE  H15R10885   4.870   4.724   3.405 -0.5731  0.2503 -0.2720
  106SAPE  C21610886   5.003   4.890   3.481 -0.6924  0.3450  0.2728
  106SAPE  H16R10887   4.945   4.906   3.575 -0.4808 -1.6978  0.8150
  106SAPE  H16S10888   5.032   4.992   3.448 -1.4172  0.0077 -1.5179
  106SAPE  C21710889   5.119   4.811   3.541 -0.0089 -0.1854 -0.1985
  106SAPE  H17R10890   5.192   4.787   3.461  2.4796  2.0252  1.2037
  106SAPE  H17S10891   5.091   4.717   3.592 -0.2946  0.0253  0.0406
  106SAPE  C21810892   5.210   4.895   3.630  0.7119  0.9677 -0.3758
  106SAPE  H18R10893   5.156   4.900   3.727 -0.1171  1.5051 -0.8474
  106SAPE  H18S10894   5.215   4.999   3.591  1.1171  0.5969 -1.3419
  106SAPE  C21910895   5.347   4.836   3.654 -0.7293  0.0635  0.0831
  106SAPE  H19R10896   5.389   4.802   3.557 -1.3902  0.9811 -0.5403
  106SAPE  H19S10897   5.330   4.754   3.727 -0.2704  1.1469  1.4721
  106SAPE  C22010898   5.451   4.933   3.710  0.2553 -0.4822  0.3111
  106SAPE  H20R10899   5.423   4.968   3.812  0.3140  2.3346 -0.5372
  106SAPE  H20S10900   5.461   5.020   3.642  0.8432 -0.7159  0.0985
  106SAPE  H20T10901   5.552   4.891   3.724 -0.2455 -1.2297  2.0421
  106SAPE   C3310902   4.523   5.188   3.117 -0.0081  0.1373  0.1169
  106SAPE   H3X10903   4.581   5.096   3.093  1.7262  0.6788  1.9989
  106SAPE   H3Y10904   4.418   5.165   3.088 -0.1049 -1.5348  1.6285
  106SAPE   C3410905   4.535   5.211   3.273  0.3734 -0.1857 -0.4714
  106SAPE   H4X10906   4.515   5.116   3.326  2.9074 -0.7853 -0.4967
  106SAPE   H4Y10907   4.472   5.294   3.312  0.5819  0.3698 -1.2925
  106SAPE   C3510908   4.674   5.258   3.317 -0.4309  0.1773 -0.2360
  106SAPE   H5X10909   4.677   5.359   3.269  1.4099  1.3946  2.1998
  106SAPE   H5Y10910   4.751   5.193   3.270 -2.3809 -1.9885 -0.5737
  106SAPE   C3610911   4.683   5.273   3.468 -0.0195 -0.0876 -0.0676
  106SAPE   H6X10912   4.608   5.348   3.501  0.1463  0.9701 -1.9454
  106SAPE   H6Y10913   4.784   5.310   3.498  0.5073 -2.0379  0.6746
  106SAPE   C3710914   4.667   5.138   3.545 -0.6816  0.1720  0.3136
  106SAPE   H7X10915   4.696   5.045   3.491  0.9533  0.0422  1.3539
  106SAPE   H7Y10916   4.564   5.116   3.581 -1.2753  0.2157 -1.2942
  106SAPE   C3810917   4.749   5.142   3.676 -0.0505  0.4260  0.1964
  106SAPE   H8X10918   4.718   5.232   3.733 -0.7311  1.8856 -2.3411
  106SAPE   H8Y10919   4.856   5.145   3.649 -0.1773 -1.6649 -0.7329
  106SAPE   C3910920   4.726   5.019   3.772  0.3354  0.4528 -0.0453
  106SAPE   H9X10921   4.736   4.938   3.697  0.4305  0.5738 -0.1646
  106SAPE   H9Y10922   4.631   5.027   3.829 -0.0098 -0.3476 -0.4954
  106SAPE  C31010923   4.839   5.001   3.873 -0.6619  0.4002 -0.1207
  106SAPE  H10X10924   4.821   5.057   3.967 -0.6346  1.0504 -0.4973
  106SAPE  H10Y10925   4.932   5.052   3.838 -1.1767  0.4607 -1.4707
  106SAPE  C31110926   4.852   4.861   3.918 -0.6829 -0.4159 -0.0340
  106SAPE  H11X10927   4.871   4.803   3.825  0.5940  0.0753 -0.1020
  106SAPE  H11Y10928   4.760   4.826   3.969 -1.0478 -0.3861 -0.6731
  106SAPE  C31210929   4.974   4.835   4.008  0.1756 -0.8797  0.0802
  106SAPE  H12X10930   4.940   4.898   4.093  1.9067 -0.5342  0.5555
  106SAPE  H12Y10931   5.065   4.875   3.958 -1.2437  0.8266 -1.2985
  106SAPE  C31310932   5.000   4.694   4.051 -0.0634 -0.5316 -0.2112
  106SAPE  H13X10933   5.004   4.637   3.955  0.4414  0.6478 -0.9113
  106SAPE  H13Y10934   4.915   4.653   4.109 -0.1162  1.1372  0.9368
  106SAPE  C31410935   5.135   4.685   4.120 -0.0641  0.2414 -0.9734
  106SAPE  H14X10936   5.124   4.622   4.211  2.2731 -0.3942 -1.0807
  106SAPE  H14Y10937   5.168   4.781   4.163 -0.2818  0.6734 -1.7423
  106SAPE  C31510938   5.243   4.637   4.021  0.6946  0.8198 -0.0725
  106SAPE  H15X10939   5.235   4.694   3.926  0.3768  1.8036  0.5320
  106SAPE  H15Y10940   5.224   4.530   3.998 -0.1753  0.0500  3.5693
  106SAPE  C31610941   5.386   4.643   4.062 -0.0802 -0.0849  0.0524
  106SAPE  H16X10942   5.460   4.612   3.985  0.0406 -0.4206  0.2986
  106SAPE  H16Y10943   5.402   4.563   4.138  1.0314 -0.9065 -0.9967
  106SAPE  C31710944   5.422   4.781   4.116 -0.0262 -0.1006  0.8454
  106SAPE  H17X10945   5.375   4.790   4.217 -2.5057  1.2136 -0.3548
  106SAPE  H17Y10946   5.381   4.859   4.049 -1.6457 -2.5524 -1.1882
  106SAPE  C31810947   5.578   4.798   4.128 -0.2539 -0.1359  0.3872
  106SAPE  H18X10948   5.614   4.758   4.225  1.6858  0.8788  0.1552
  106SAPE  H18Y10949   5.589   4.908   4.137 -0.7227  0.0557 -1.1142
  106SAPE  H18Z10950   5.644   4.753   4.051 -1.6034 -4.2552  1.4073
  107SAPE     N10951   1.179   2.568   1.859 -0.0313  0.7611  0.4531
  107SAPE   HN110952   1.218   2.569   1.955  0.3294 -3.9846  0.5673
  107SAPE   HN210953   1.249   2.595   1.787  0.6787  2.1578  1.6109
  107SAPE   HN310954   1.106   2.642   1.857  0.2476  1.0322 -0.2648
  107SAPE   C1210955   1.122   2.431   1.831  0.0129 -0.0042 -0.0543
  107SAPE  H12A10956   1.181   2.389   1.747  1.6534 -0.9213  1.4824
  107SAPE  H12B10957   1.014   2.443   1.809 -0.9691 -1.7339  3.1041
  107SAPE   C1110958   1.127   2.342   1.954  0.2813 -0.0474 -0.4247
  107SAPE  H11A10959   1.237   2.339   1.970  0.5342  2.9062 -0.9341
  107SAPE  H11B10960   1.098   2.238   1.931  0.1257 -0.2751  0.7023
  107SAPE     P10961   0.920   2.338   2.111  0.5397  0.3186  0.0545
  107SAPE   O1310962   0.817   2.416   2.042 -0.4938 -0.2271  0.2256
  107SAPE   O1410963   0.922   2.192   2.086 -0.1723 -0.0646  0.1992
  107SAPE   O1210964   1.058   2.393   2.066 -0.2569 -0.2533  0.5450
  107SAPE   O1110965   0.902   2.359   2.273 -0.4257 -0.6228  0.3550
  107SAPE    C110966   0.981   2.471   2.323 -0.3184 -0.2408  0.2046
  107SAPE    HA10967   1.086   2.443   2.343 -0.6742 -0.1835  2.4329
  107SAPE    HB10968   0.981   2.556   2.251  0.4263  0.7891  1.3758
  107SAPE    C210969   0.916   2.517   2.454 -0.0153 -0.3870 -0.2704
  107SAPE    HS10970   0.971   2.604   2.495  0.2375 -1.6999  2.4126
  107SAPE   O2110971   0.889   2.405   2.547  0.1697 -0.6024  0.0325
  107SAPE   C2110972   0.950   2.424   2.667  0.5733 -0.1292  0.1951
  107SAPE   O2210973   1.009   2.523   2.705  0.3896  0.2942 -0.0174
  107SAPE   C2210974   0.929   2.292   2.747 -0.7297 -0.3377  0.8030
  107SAPE   H2R10975   0.860   2.229   2.686  0.1383  0.1051 -0.6848
  107SAPE   H2S10976   1.028   2.242   2.754 -1.0281 -0.7825  2.2445
  107SAPE    C310977   0.777   2.572   2.418 -0.3623  0.1630 -0.0879
  107SAPE    HX10978   0.722   2.485   2.379 -0.0614 -0.3882  0.6811
  107SAPE    HY10979   0.783   2.655   2.344 -3.2702  0.1639 -0.4204
  107SAPE   O3110980   0.711   2.619   2.537 -0.2875 -0.1442  0.3373
  107SAPE   C3110981   0.591   2.655   2.532  0.0413  0.1826 -0.0420
  107SAPE   O3210982   0.520   2.647   2.435  0.4392 -0.1476 -0.9663
  107SAPE   C3210983   0.541   2.691   2.670 -0.9067 -0.0304 -0.3043
  107SAPE   H2X10984   0.599   2.778   2.707  0.9091 -1.0896 -0.5303
  107SAPE   H2Y10985   0.579   2.613   2.740  4.2722  3.7776  1.8489
  107SAPE   C2310986   0.865   2.315   2.884  0.1598  0.3549 -0.0160
  107SAPE   H3R10987   0.792   2.232   2.895 -1.1874  1.2110 -1.8253
  107SAPE   H3S10988   0.807   2.410   2.888  0.3656  0.4590  0.5613
  107SAPE   C2410989   0.963   2.304   3.005 -0.3372  0.7680 -0.4840
  107SAPE   H4R10990   1.051   2.237   2.991  1.2485  1.7428  3.5013
  107SAPE   H4S10991   0.908   2.247   3.081  1.3520  0.9324  0.9280
  107SAPE   C2510992   1.010   2.441   3.054 -0.2504 -0.1153  1.0117
  107SAPE   H5R10993   1.047   2.508   2.976 -2.0146 -0.8272 -0.5082
  107SAPE   C2610994   1.004   2.481   3.180  0.4920  0.0695 -0.0138
  107SAPE   H6R10995   1.034   2.582   3.211 -1.5287 -0.0730  2.7754
  107SAPE   C2710996   0.935   2.405   3.297 -0.3184 -0.1329 -0.2386
  107SAPE   H7R10997   0.993   2.311   3.314  0.2542  0.5514  2.0076
  107SAPE   H7S10998   0.834   2.366   3.275 -0.7537  0.3191  0.8664
  107SAPE   C2810999   0.928   2.488   3.419 -0.1559  0.1531 -0.3344
  107SAPE   H8R11000   0.992   2.577   3.425 -0.1237  0.0479  1.0920
  107SAPE   C2911001   0.852   2.472   3.531 -0.1685 -0.5255  0.8458
  107SAPE   H9R11002   0.856   2.555   3.603  1.4900  0.9903 -0.8987
  107SAPE  C21011003   0.741   2.371   3.547 -0.3126 -0.6579 -0.4782
  107SAPE  H10R11004   0.739   2.334   3.651 -1.7489 -0.0757 -0.2744
  107SAPE  H10S11005   0.764   2.278   3.491  2.7279 -1.1670  1.4164
  107SAPE  C21111006   0.606   2.421   3.504  0.4575  0.0595 -0.0611
  107SAPE  H11R11007   0.596   2.472   3.407 -1.5716 -0.0613  0.0283
  107SAPE  C21211008   0.492   2.412   3.578 -0.0773  0.5528  0.7460
  107SAPE  H12R11009   0.393   2.446   3.545  0.2592  0.4430 -0.4340
  107SAPE  C21311010   0.486   2.354   3.715  0.5728 -0.3727  0.2619
  107SAPE  H13R11011   0.409   2.411   3.772  1.2413  0.6081  0.2135
  107SAPE  H13S11012   0.578   2.379   3.772  1.1505 -0.0843 -0.7729
  107SAPE  C21411013   0.460   2.211   3.723  0.1327 -0.0744  0.1971
  107SAPE  H14R11014   0.468   2.163   3.625 -2.4178  0.3057 -0.2841
  107SAPE  C21511015   0.438   2.136   3.835  0.5082  0.0981  0.3320
  107SAPE  H15R11016   0.434   2.026   3.828 -1.2761  0.1495  0.0637
  107SAPE  C21611017   0.438   2.188   3.978 -0.2062  0.0882 -0.2183
  107SAPE  H16R11018   0.341   2.183   4.032 -0.5204  0.7609 -0.6962
  107SAPE  H16S11019   0.437   2.299   3.985 -0.6675  0.2622 -2.2656
  107SAPE  C21711020   0.559   2.143   4.063  0.3597 -0.0399 -0.4087
  107SAPE  H17R11021   0.649   2.197   4.026 -0.4893  0.4012 -1.9180
  107SAPE  H17S11022   0.580   2.034   4.061  0.9739  0.0665 -0.0757
  107SAPE  C21811023   0.548   2.172   4.217 -0.5102  0.0713 -0.0205
  107SAPE  H18R11024   0.452   2.139   4.264 -0.7896  2.6380  1.4000
  107SAPE  H18S11025   0.546   2.282   4.229 -1.0319  0.0656 -0.0182
  107SAPE  C21911026   0.664   2.108   4.289  0.3013  0.5974 -0.9584
  107SAPE  H19R11027   0.651   1.998   4.286  0.2170  0.6164 -1.5157
  107SAPE  H19S11028   0.656   2.134   4.396  1.6860  0.2147 -0.7380
  107SAPE  C22011029   0.809   2.139   4.246 -0.1179 -0.1819 -0.4163
  107SAPE  H20R11030   0.837   2.091   4.150  3.3555  1.1764 -0.2249
  107SAPE  H20S11031   0.885   2.106   4.319 -1.1055  1.3857  1.4300
  107SAPE  H20T11032   0.823   2.248   4.231 -0.6186  0.6647  3.9051
  107SAPE   C3311033   0.394   2.728   2.668 -0.5337  0.5345 -0.3040
  107SAPE   H3X11034   0.327   2.640   2.654  1.1736 -0.5300 -2.2545
  107SAPE   H3Y11035   0.369   2.801   2.588  1.9789 -0.0068 -1.6727
  107SAPE   C3411036   0.357   2.792   2.808 -0.1935  1.2947  0.2197
  107SAPE   H4X11037   0.443   2.847   2.853 -0.0040 -0.0301  1.5311
  107SAPE   H4Y11038   0.325   2.711   2.877  0.8936 -0.6937 -1.5237
  107SAPE   C3511039   0.263   2.907   2.802  0.1032  0.2535  0.2103
  107SAPE   H5X11040   0.162   2.874   2.769 -1.0412  1.7093  2.0564
  107SAPE   H5Y11041   0.310   2.978   2.731 -1.5930 -0.0138 -1.2480
  107SAPE   C3611042   0.238   2.989   2.928  0.2889  0.1006 -0.7353
  107SAPE   H6X11043   0.163   3.068   2.906  0.5190  0.9352  1.2525
  107SAPE   H6Y11044   0.330   3.036   2.969 -0.0782  1.3167 -1.2557
  107SAPE   C3711045   0.170   2.903   3.042  0.1459 -0.1044  0.2590
  107SAPE   H7X11046   0.235   2.816   3.066 -1.3822 -1.0699  1.0773
  107SAPE   H7Y11047   0.079   2.855   2.998  0.2333  0.7443 -0.8939
  107SAPE   C3811048   0.124   2.978   3.166  0.3641 -0.2453 -0.1883
  107SAPE   H8X11049   0.079   3.076   3.140 -0.0804  0.4283  2.7492
  107SAPE   H8Y11050   0.212   2.995   3.232  0.9251 -0.0297 -0.9869
  107SAPE   C3911051   0.015   2.904   3.246 -0.0730 -0.3974 -0.5375
  107SAPE   H9X11052  -0.080   2.915   3.189 -1.2881 -0.6061  1.3483
  107SAPE   H9Y11053  -0.001   2.963   3.338 -0.9972  1.2199 -1.6921
  107SAPE  C31011054   0.038   2.758   3.275  0.4825 -0.1451 -1.1158
  107SAPE  H10X11055   0.053   2.701   3.181  2.2106 -1.0029 -0.3555
  107SAPE  H10Y11056  -0.060   2.723   3.313  1.1759  1.2991  2.3734
  107SAPE  C31111057   0.152   2.733   3.376  0.1187  0.2175 -0.2613
  107SAPE  H11X11058   0.240   2.765   3.316  1.5443 -1.8886  0.6379
  107SAPE  H11Y11059   0.168   2.626   3.399  2.4496  0.3487 -1.0019
  107SAPE  C31211060   0.126   2.795   3.512 -0.2319 -0.5817 -0.1298
  107SAPE  H12X11061   0.028   2.756   3.547 -0.2462 -0.9419 -0.5743
  107SAPE  H12Y11062   0.117   2.904   3.490  2.9256 -0.3373 -0.8103
  107SAPE  C31311063   0.240   2.772   3.613 -0.1026 -0.2840  0.3591
  107SAPE  H13X11064   0.245   2.664   3.639  0.6650 -0.1651  0.7264
  107SAPE  H13Y11065   0.225   2.822   3.710  4.7927 -0.4149  1.4681
  107SAPE  C31411066   0.382   2.791   3.551 -0.1008 -0.3731  0.4416
  107SAPE  H14X11067   0.393   2.894   3.510  0.8406 -0.3494  0.7391
  107SAPE  H14Y11068   0.402   2.715   3.472 -0.7250 -0.3236  0.2332
  107SAPE  C31511069   0.492   2.760   3.653 -0.3716  0.1189 -0.1002
  107SAPE  H15X11070   0.498   2.653   3.682 -0.4505 -0.0836 -0.8181
  107SAPE  H15Y11071   0.471   2.828   3.738  1.4248 -1.7861  2.0025
  107SAPE  C31611072   0.637   2.800   3.624  0.8948 -0.6793  0.2946
  107SAPE  H16X11073   0.638   2.910   3.609 -0.7907 -0.7645 -0.6224
  107SAPE  H16Y11074   0.661   2.755   3.525  1.1661 -0.1273  0.1059
  107SAPE  C31711075   0.728   2.744   3.730 -0.2083 -0.3759  0.0457
  107SAPE  H17X11076   0.725   2.634   3.739  1.0364 -0.3816  0.5367
  107SAPE  H17Y11077   0.683   2.783   3.825 -1.9323 -0.8225 -0.5490
  107SAPE  C31811078   0.874   2.800   3.712  0.2209 -0.2476  0.3198
  107SAPE  H18X11079   0.920   2.768   3.807 -0.3896  0.5928  0.9143
  107SAPE  H18Y11080   0.870   2.911   3.711 -2.8493 -0.2801 -0.1310
  107SAPE  H18Z11081   0.931   2.772   3.620  1.5545 -0.3691  1.1566
  108SAPE     N11082   4.990   3.558   2.236  0.1683 -0.0268  0.2887
  108SAPE   HN111083   4.978   3.455   2.228 -2.0161  0.2943 -1.7380
  108SAPE   HN211084   4.903   3.613   2.217 -0.4285 -1.3844 -1.0384
  108SAPE   HN311085   5.054   3.584   2.159  1.6529 -0.0416  1.4596
  108SAPE   C1211086   5.047   3.606   2.358  0.3683  0.3977 -0.5844
  108SAPE  H12A11087   5.005   3.542   2.438 -1.9296  0.6168 -1.5523
  108SAPE  H12B11088   5.040   3.717   2.369  3.7750  0.5791  1.1986
  108SAPE   C1111089   5.195   3.579   2.358 -0.6166 -0.5012  0.5487
  108SAPE  H11A11090   5.208   3.471   2.336 -2.0134 -0.2805 -1.7177
  108SAPE  H11B11091   5.235   3.602   2.459  0.0679  0.2721  0.1081
  108SAPE     P11092   5.415   3.619   2.211 -0.3045 -0.1198 -0.1490
  108SAPE   O1311093   5.407   3.547   2.080  0.6540  0.0677  0.8602
  108SAPE   O1411094   5.497   3.740   2.209  0.7088  0.3701 -0.3576
  108SAPE   O1211095   5.265   3.654   2.256 -0.7118 -0.3540  0.4767
  108SAPE   O1111096   5.461   3.527   2.335 -0.1317  0.7198 -0.0818
  108SAPE    C111097   5.603   3.509   2.363  0.2807  0.7652  0.0794
  108SAPE    HA11098   5.651   3.457   2.278 -0.1170  0.3154  0.1213
  108SAPE    HB11099   5.641   3.610   2.386 -0.0219  0.9338 -0.1632
  108SAPE    C211100   5.625   3.406   2.484  0.4606  0.2865  0.8161
  108SAPE    HS11101   5.598   3.310   2.434  0.3078  0.7568 -0.0120
  108SAPE   O2111102   5.546   3.431   2.599 -0.3363  0.5629 -0.1006
  108SAPE   C2111103   5.523   3.336   2.679  0.0534  1.2481 -0.3097
  108SAPE   O2211104   5.526   3.217   2.650  0.0892  0.2336 -0.1303
  108SAPE   C2211105   5.469   3.400   2.805  0.5248 -0.0488  0.3971
  108SAPE   H2R11106   5.545   3.470   2.846 -0.4485  0.8936  0.6537
  108SAPE   H2S11107   5.373   3.455   2.796  0.5405 -0.1995 -0.8454
  108SAPE    C311108   5.769   3.398   2.529 -0.2609  0.1314  0.5719
  108SAPE    HX11109   5.830   3.396   2.436 -1.5376 -0.7014 -0.2884
  108SAPE    HY11110   5.787   3.300   2.577  0.3858  0.0245  0.1221
  108SAPE   O3111111   5.802   3.516   2.611  0.0575 -0.0990 -0.4528
  108SAPE   C3111112   5.806   3.505   2.742 -0.4353 -0.2480  0.1946
  108SAPE   O3211113   5.802   3.406   2.812 -1.1407 -0.4627  0.1807
  108SAPE   C3211114   5.816   3.650   2.802  0.2907  0.6736 -0.1286
  108SAPE   H2X11115   5.742   3.717   2.753  0.9732  0.6782 -1.1867
  108SAPE   H2Y11116   5.917   3.688   2.777  0.2634 -0.0885 -1.4829
  108SAPE   C2311117   5.458   3.290   2.914 -0.6089  0.1125 -0.8019
  108SAPE   H3R11118   5.553   3.233   2.920 -1.2869 -0.8926  0.9438
  108SAPE   H3S11119   5.371   3.231   2.877 -1.3982  1.2748 -0.8805
  108SAPE   C2411120   5.425   3.349   3.049 -0.1152  0.3581 -0.0363
  108SAPE   H4R11121   5.380   3.265   3.107 -0.3192  1.5130  1.5264
  108SAPE   H4S11122   5.350   3.431   3.046 -0.3848  0.1172 -0.0069
  108SAPE   C2511123   5.545   3.382   3.128 -0.4217  0.3856 -0.4371
  108SAPE   H5R11124   5.608   3.460   3.083 -1.0016  1.6084  0.7577
  108SAPE   C2611125   5.608   3.320   3.229 -0.1439  0.1273 -0.9383
  108SAPE   H6R11126   5.700   3.356   3.278 -2.0264 -0.1584  3.2319
  108SAPE   C2711127   5.560   3.189   3.289 -0.3260 -0.4290 -0.0674
  108SAPE   H7R11128   5.648   3.127   3.316  0.5722  0.6420 -0.4676
  108SAPE   H7S11129   5.521   3.131   3.202  0.8456  0.4036 -1.1781
  108SAPE   C2811130   5.452   3.188   3.392 -0.3910 -0.0593 -0.0703
  108SAPE   H8R11131   5.347   3.186   3.360 -0.9671  0.9706  1.6049
  108SAPE   C2911132   5.471   3.198   3.527 -0.5068 -0.3397  0.0117
  108SAPE   H9R11133   5.389   3.200   3.599 -0.6521  1.2933 -0.1474
  108SAPE  C21011134   5.601   3.221   3.591 -0.4817  0.2562 -0.6868
  108SAPE  H10R11135   5.685   3.184   3.528  2.3276  1.8367  1.8986
  108SAPE  H10S11136   5.612   3.166   3.686  0.2017  4.1247  1.6742
  108SAPE  C21111137   5.610   3.366   3.614  0.1923 -1.2078  0.9982
  108SAPE  H11R11138   5.630   3.418   3.520 -0.4751 -0.1213  1.4428
  108SAPE  C21211139   5.596   3.444   3.728 -0.2443  0.2421  0.0176
  108SAPE  H12R11140   5.596   3.551   3.703  0.9078  0.2354 -0.0858
  108SAPE  C21311141   5.577   3.409   3.871  0.4963  0.1326  0.0717
  108SAPE  H13R11142   5.548   3.303   3.892  0.5733  0.5755  2.7200
  108SAPE  H13S11143   5.498   3.478   3.907 -0.0286 -0.1629 -0.4821
  108SAPE  C21411144   5.704   3.432   3.948  0.0514  0.4069 -0.7700
  108SAPE  H14R11145   5.801   3.425   3.896  1.0852  0.4459  1.0956
  108SAPE  C21511146   5.706   3.447   4.090 -0.2285 -0.1999  0.6188
  108SAPE  H15R11147   5.801   3.462   4.144 -0.2412 -1.7040  1.0926
  108SAPE  C21611148   5.590   3.424   4.182 -0.1435  0.1215  0.0902
  108SAPE  H16R11149   5.599   3.318   4.215 -0.0855 -0.4787 -1.7574
  108SAPE  H16S11150   5.491   3.434   4.133 -0.5616  3.1899  1.3107
  108SAPE  C21711151   5.603   3.513   4.307 -0.2324  0.7906  0.2039
  108SAPE  H17R11152   5.596   3.619   4.275 -0.7646  0.2843 -1.4620
  108SAPE  H17S11153   5.703   3.500   4.354  0.5880 -0.8904 -1.7797
  108SAPE  C21811154   5.486   3.481   4.395 -0.1530 -0.1678  0.3104
  108SAPE  H18R11155   5.482   3.370   4.405 -0.2097 -0.2220 -0.2885
  108SAPE  H18S11156   5.392   3.508   4.343 -0.5260  0.0545  1.0772
  108SAPE  C21911157   5.497   3.535   4.537 -0.4478 -0.8079 -0.5589
  108SAPE  H19R11158   5.508   3.645   4.528  0.9977 -0.9278 -0.5528
  108SAPE  H19S11159   5.591   3.498   4.583 -0.4012 -1.5355 -1.2175
  108SAPE  C22011160   5.377   3.504   4.633  0.1525 -0.0044  0.5713
  108SAPE  H20R11161   5.280   3.540   4.592  0.1592 -0.0136  0.5485
  108SAPE  H20S11162   5.394   3.573   4.719  1.9199  1.2403 -0.7094
  108SAPE  H20T11163   5.373   3.395   4.654  2.5198 -0.2306  0.0826
  108SAPE   C3311164   5.769   3.663   2.953 -0.3542  0.5092  0.4975
  108SAPE   H3X11165   5.668   3.619   2.961 -0.4277 -0.5439 -3.8773
  108SAPE   H3Y11166   5.773   3.772   2.974  0.1236  0.6577 -0.3159
  108SAPE   C3411167   5.872   3.609   3.046 -0.1560  0.3798 -0.6331
  108SAPE   H4X11168   5.976   3.642   3.026  0.1966 -0.1068  0.3034
  108SAPE   H4Y11169   5.863   3.498   3.050  1.7559  0.1874 -0.2982
  108SAPE   C3511170   5.850   3.659   3.189  0.8871  0.1379 -0.5528
  108SAPE   H5X11171   5.874   3.767   3.195  0.8152  0.1702 -0.8485
  108SAPE   H5Y11172   5.741   3.661   3.211  1.0319  1.9877  0.2191
  108SAPE   C3611173   5.924   3.566   3.292 -0.0566  0.4123  0.1901
  108SAPE   H6X11174   6.030   3.553   3.261  0.1734 -1.8617  1.6716
  108SAPE   H6Y11175   5.876   3.465   3.293  2.0588 -0.7350 -1.9630
  108SAPE   C3711176   5.916   3.621   3.435  0.4045  0.2770  0.9379
  108SAPE   H7X11177   5.813   3.628   3.477  0.1335 -2.3166  0.8120
  108SAPE   H7Y11178   5.968   3.719   3.434  0.3556  0.3417  2.3455
  108SAPE   C3811179   6.011   3.546   3.529  0.1832  0.0745  0.0751
  108SAPE   H8X11180   6.010   3.600   3.626 -0.9015  1.6915 -0.7852
  108SAPE   H8Y11181   6.111   3.563   3.483  0.5546  1.5858  1.3685
  108SAPE   C3911182   5.985   3.395   3.545 -0.4811 -0.4607 -0.7663
  108SAPE   H9X11183   6.030   3.342   3.459  0.9715 -2.1249  0.9177
  108SAPE   H9Y11184   5.877   3.367   3.537 -0.4903 -0.7596  0.2178
  108SAPE  C31011185   6.043   3.352   3.682  0.0017 -0.2722  0.0390
  108SAPE  H10X11186   5.999   3.416   3.761  0.8756 -0.3629  0.6299
  108SAPE  H10Y11187   6.154   3.365   3.686 -0.1910  2.0369 -0.9171
  108SAPE  C31111188   6.011   3.212   3.713 -0.1691 -0.4178 -0.4292
  108SAPE  H11X11189   6.037   3.154   3.622 -1.7195 -0.8189 -0.6599
  108SAPE  H11Y11190   5.908   3.184   3.746 -0.1269 -0.1030 -0.0182
  108SAPE  C31211191   6.099   3.156   3.828  0.2132 -0.2709  0.0682
  108SAPE  H12X11192   6.090   3.228   3.912 -0.5489 -1.3828  0.9624
  108SAPE  H12Y11193   6.198   3.168   3.778 -0.0544 -1.7633 -0.8629
  108SAPE  C31311194   6.073   3.018   3.871  0.1054  0.3023  0.5621
  108SAPE  H13X11195   6.061   2.958   3.778  2.2764  0.0166  0.3979
  108SAPE  H13Y11196   5.989   2.999   3.941  0.3900 -1.0316  0.5807
  108SAPE  C31411197   6.194   2.952   3.941  0.0032 -0.2614  0.9179
  108SAPE  H14X11198   6.276   2.941   3.867 -0.4917  2.8808 -0.2072
  108SAPE  H14Y11199   6.171   2.848   3.975 -0.2345 -0.4981  0.0471
  108SAPE  C31511200   6.247   3.025   4.065  0.2947  0.2727  0.1494
  108SAPE  H15X11201   6.171   3.030   4.146 -1.4225  0.3573 -1.4003
  108SAPE  H15Y11202   6.271   3.129   4.035 -0.1946  0.3541  0.0354
  108SAPE  C31611203   6.376   2.949   4.116  0.0127 -0.6509 -0.1362
  108SAPE  H16X11204   6.438   2.937   4.024  0.5685  1.0604 -0.0136
  108SAPE  H16Y11205   6.355   2.846   4.152  4.5362 -1.6592  0.2252
  108SAPE  C31711206   6.451   3.028   4.220  0.2639 -0.4474  0.0522
  108SAPE  H17X11207   6.374   3.051   4.298  0.2741  2.5976 -0.7100
  108SAPE  H17Y11208   6.484   3.123   4.174 -0.2912  0.0163  0.5941
  108SAPE  C31811209   6.573   2.951   4.273  0.4421  0.3824 -0.3450
  108SAPE  H18X11210   6.535   2.855   4.314  0.1960  0.5866 -0.0890
  108SAPE  H18Y11211   6.629   3.008   4.349  0.0797  0.4105 -0.0963
  108SAPE  H18Z11212   6.647   2.925   4.194 -0.7328 -1.0236 -1.0336
  109SAPE     N11213   3.505   1.134   1.922  0.0886 -0.5041 -0.4379
  109SAPE   HN111214   3.566   1.073   1.863  1.1022  1.6358 -1.7018
  109SAPE   HN211215   3.501   1.226   1.875  3.7700  0.0767  0.1089
  109SAPE   HN311216   3.549   1.152   2.014  0.0088 -0.2370 -0.4522
  109SAPE   C1211217   3.375   1.072   1.937  0.1105 -0.0115  0.0209
  109SAPE  H12A11218   3.370   0.988   2.010 -1.1615 -0.1840 -0.2444
  109SAPE  H12B11219   3.349   1.033   1.837  0.3771 -0.2450  0.0398
  109SAPE   C1111220   3.275   1.179   1.975  0.0084 -0.5712 -0.3075
  109SAPE  H11A11221   3.188   1.130   2.023 -0.7385 -0.0326 -1.0864
  109SAPE  H11B11222   3.242   1.226   1.880 -2.7927 -3.2298 -0.8014
  109SAPE     P11223   3.252   1.418   2.076  0.2070 -0.2565  1.1112
  109SAPE   O1311224   3.354   1.512   2.123 -0.3606 -0.7748  0.3530
  109SAPE   O1411225   3.181   1.447   1.947 -0.0524  0.4123 -0.0038
  109SAPE   O1211226   3.329   1.280   2.062 -0.1703 -0.0450 -0.7535
  109SAPE   O1111227   3.144   1.388   2.181  0.6787 -0.3970 -0.0938
  109SAPE    C111228   3.172   1.296   2.289  0.4353  0.0115  0.0541
  109SAPE    HA11229   3.153   1.192   2.254 -0.8458  0.3479 -0.2924
  109SAPE    HB11230   3.274   1.321   2.328 -0.1730  0.1600  1.6213
  109SAPE    C211231   3.088   1.324   2.417  0.0922 -0.4917  0.6304
  109SAPE    HS11232   2.984   1.308   2.380 -0.8207  1.0267  2.3977
  109SAPE   O2111233   3.098   1.462   2.447  0.0715 -0.2751 -0.2484
  109SAPE   C2111234   2.997   1.526   2.501  0.9638 -0.4023  0.2696
  109SAPE   O2211235   2.884   1.477   2.505 -0.0482 -0.2525  0.0750
  109SAPE   C2211236   3.037   1.665   2.554 -0.2198 -0.5350 -0.6392
  109SAPE   H2R11237   3.120   1.705   2.492 -1.1529 -0.5551 -1.9512
  109SAPE   H2S11238   2.954   1.740   2.555 -0.8978 -1.2787 -0.5421
  109SAPE    C311239   3.122   1.226   2.534  0.4370 -0.2263 -0.2618
  109SAPE    HX11240   3.231   1.210   2.538  0.4482 -0.7556 -1.9907
  109SAPE    HY11241   3.083   1.127   2.501 -0.7957  1.1083 -3.2278
  109SAPE   O3111242   3.071   1.280   2.654  0.1568  0.1993 -0.0422
  109SAPE   C3111243   3.102   1.222   2.761 -0.1343 -0.0259  0.3669
  109SAPE   O3211244   3.177   1.127   2.768 -0.1802 -0.5620  0.1027
  109SAPE   C3211245   3.018   1.284   2.874  0.3141  0.1146 -0.1539
  109SAPE   H2X11246   2.926   1.337   2.840  0.5706  0.1533 -0.8090
  109SAPE   H2Y11247   3.073   1.374   2.911 -0.2999  1.9808 -3.3640
  109SAPE   C2311248   3.096   1.664   2.695  0.8445  0.2405  0.3107
  109SAPE   H3R11249   3.157   1.572   2.708  0.8228 -0.2789 -2.6667
  109SAPE   H3S11250   3.009   1.668   2.764  0.7867  6.0663  0.3927
  109SAPE   C2411251   3.176   1.799   2.723  0.0231 -1.0106 -0.9587
  109SAPE   H4R11252   3.179   1.824   2.831 -0.0703  3.1121 -1.7632
  109SAPE   H4S11253   3.113   1.874   2.671  1.7530 -0.8167 -2.9299
  109SAPE   C2511254   3.314   1.805   2.661 -0.4608 -0.4123 -0.1657
  109SAPE   H5R11255   3.321   1.815   2.551 -0.0275 -0.3966 -0.1382
  109SAPE   C2611256   3.429   1.807   2.724 -0.1888  0.1281 -0.5360
  109SAPE   H6R11257   3.517   1.813   2.659  0.6266  2.9767  0.6826
  109SAPE   C2711258   3.448   1.809   2.871 -0.0947 -0.5515 -0.2802
  109SAPE   H7R11259   3.549   1.772   2.898  0.2995  0.1738 -0.7258
  109SAPE   H7S11260   3.387   1.726   2.912  0.5805 -1.0227 -0.2197
  109SAPE   C2811261   3.417   1.950   2.924  0.5929 -0.0136 -0.7189
  109SAPE   H8R11262   3.407   2.028   2.847  1.3175 -1.3293 -2.2198
  109SAPE   C2911263   3.385   1.979   3.046  0.1315  0.1698 -0.9045
  109SAPE   H9R11264   3.343   2.074   3.081 -0.8719 -1.1018  1.5821
  109SAPE  C21011265   3.381   1.875   3.155 -0.2464  0.5058 -0.4681
  109SAPE  H10R11266   3.294   1.810   3.136 -0.7054  0.7860  0.5905
  109SAPE  H10S11267   3.336   1.928   3.241 -1.0898 -0.9370  0.0146
  109SAPE  C21111268   3.494   1.787   3.199 -0.1941 -0.2960  0.5206
  109SAPE  H11R11269   3.586   1.798   3.139  1.1733 -1.4341  2.2781
  109SAPE  C21211270   3.488   1.702   3.305 -0.2151 -0.0973 -0.6276
  109SAPE  H12R11271   3.571   1.633   3.328 -0.0728  0.8538  2.0315
  109SAPE  C21311272   3.369   1.685   3.397  0.5450  0.0680 -0.4821
  109SAPE  H13R11273   3.351   1.788   3.432  0.4359 -0.5811  1.4674
  109SAPE  H13S11274   3.399   1.623   3.484 -0.3604 -1.0188 -0.9138
  109SAPE  C21411275   3.251   1.611   3.334 -1.0869 -0.3235  0.1327
  109SAPE  H14R11276   3.270   1.537   3.255  2.3252 -1.1546  1.5791
  109SAPE  C21511277   3.126   1.651   3.358 -0.5545 -0.9360 -0.0594
  109SAPE  H15R11278   3.044   1.603   3.303 -1.4223  0.8105 -0.3561
  109SAPE  C21611279   3.083   1.762   3.461  0.0875  0.2914  0.6153
  109SAPE  H16R11280   2.980   1.793   3.434  0.0014 -0.0751  0.5179
  109SAPE  H16S11281   3.138   1.858   3.452  0.8775 -0.2091 -0.0362
  109SAPE  C21711282   3.070   1.702   3.602  0.5859  0.0724  0.7233
  109SAPE  H17R11283   3.169   1.682   3.648  1.0088  0.5064  0.0023
  109SAPE  H17S11284   3.005   1.612   3.597  0.8189 -0.1158  1.0394
  109SAPE  C21811285   3.019   1.798   3.709  0.2390  0.3048 -0.9240
  109SAPE  H18R11286   2.909   1.812   3.714  0.2598  1.2684 -2.6145
  109SAPE  H18S11287   3.058   1.898   3.681 -3.1803  1.6754 -1.2369
  109SAPE  C21911288   3.071   1.754   3.853  0.1350  0.3728  0.5307
  109SAPE  H19R11289   3.092   1.853   3.899 -0.5315  0.1000  1.4557
  109SAPE  H19S11290   3.156   1.683   3.845 -0.7179 -0.6766  0.5557
  109SAPE  C22011291   2.965   1.690   3.937 -0.2133 -0.5489  0.0154
  109SAPE  H20R11292   2.996   1.645   4.034 -0.0385  2.7462  1.6288
  109SAPE  H20S11293   2.916   1.613   3.874 -0.2252 -1.5307  1.1875
  109SAPE  H20T11294   2.892   1.763   3.976 -0.9687 -0.4977 -1.4230
  109SAPE   C3311295   2.986   1.179   2.983 -0.3841  0.0107  0.1018
  109SAPE   H3X11296   3.078   1.120   3.002 -0.7631  0.2687  3.4650
  109SAPE   H3Y11297   2.921   1.103   2.934  1.5177 -1.1656 -0.6752
  109SAPE   C3411298   2.932   1.230   3.119  0.3082 -0.5716  0.4862
  109SAPE   H4X11299   3.007   1.294   3.170  0.4358 -0.2844 -0.0521
  109SAPE   H4Y11300   2.925   1.139   3.183  0.0667  0.2117  1.6032
  109SAPE   C3511301   2.813   1.323   3.110  0.8665  0.2171  0.2730
  109SAPE   H5X11302   2.726   1.262   3.075  0.8367 -0.2635  1.1496
  109SAPE   H5Y11303   2.838   1.403   3.038 -0.5419  1.2930  0.9338
  109SAPE   C3611304   2.766   1.384   3.244  0.4629 -0.9065  0.2732
  109SAPE   H6X11305   2.665   1.431   3.236  1.1660  0.4383 -1.1622
  109SAPE   H6Y11306   2.831   1.471   3.268 -2.0438  0.6548  1.9267
  109SAPE   C3711307   2.767   1.286   3.360 -0.5287  0.4436 -0.1059
  109SAPE   H7X11308   2.870   1.251   3.383 -0.1805  2.6860  2.3427
  109SAPE   H7Y11309   2.689   1.210   3.336 -1.3078  0.9766  0.6510
  109SAPE   C3811310   2.715   1.356   3.495  0.8465  0.1062  0.1906
  109SAPE   H8X11311   2.622   1.406   3.461 -1.1587 -3.4466 -0.0787
  109SAPE   H8Y11312   2.797   1.414   3.540  0.5408 -0.6043  1.7207
  109SAPE   C3911313   2.665   1.255   3.597  0.6400  0.1453  0.3787
  109SAPE   H9X11314   2.578   1.197   3.558 -0.8590  0.7256  2.6305
  109SAPE   H9Y11315   2.624   1.314   3.682 -0.3971  1.1822 -0.8100
  109SAPE  C31011316   2.766   1.154   3.651 -0.2465 -0.5807 -0.9237
  109SAPE  H10X11317   2.840   1.209   3.713 -2.0291 -1.9527  2.6902
  109SAPE  H10Y11318   2.823   1.105   3.569 -0.2146  0.2105 -1.3936
  109SAPE  C31111319   2.712   1.043   3.747  0.7701  0.6064 -0.0294
  109SAPE  H11X11320   2.669   1.085   3.840  0.5754 -1.3688  0.8276
  109SAPE  H11Y11321   2.795   0.975   3.774  0.0858 -0.3413 -0.2548
  109SAPE  C31211322   2.602   0.957   3.674  0.2200 -0.1486  0.1928
  109SAPE  H12X11323   2.640   0.926   3.574 -1.6238 -2.5976  0.1696
  109SAPE  H12Y11324   2.514   1.023   3.657  1.9026  2.1839 -0.0628
  109SAPE  C31311325   2.560   0.840   3.757 -0.1182 -0.5588  0.5983
  109SAPE  H13X11326   2.538   0.876   3.860 -2.5509 -0.6936  0.1768
  109SAPE  H13Y11327   2.640   0.763   3.755 -0.4486 -0.9053 -1.0644
  109SAPE  C31411328   2.447   0.758   3.686 -0.0218 -0.3801  0.6244
  109SAPE  H14X11329   2.488   0.735   3.586  1.1917  0.0983  0.9964
  109SAPE  H14Y11330   2.365   0.828   3.659  1.4650  0.2613 -2.7336
  109SAPE  C31511331   2.419   0.631   3.754  0.3675  0.6144 -1.0003
  109SAPE  H15X11332   2.506   0.561   3.751 -2.4886 -3.1987 -2.0428
  109SAPE  H15Y11333   2.340   0.579   3.697 -1.7313 -0.3180  2.4336
  109SAPE  C31611334   2.383   0.639   3.907  0.1431 -0.0899 -0.4075
  109SAPE  H16X11335   2.297   0.707   3.922  1.2087  1.4190 -0.9254
  109SAPE  H16Y11336   2.474   0.683   3.953  1.0438 -0.9668 -1.2995
  109SAPE  C31711337   2.367   0.495   3.968 -0.1858 -0.3509  0.4704
  109SAPE  H17X11338   2.401   0.499   4.074 -1.2385 -2.1517  0.9223
  109SAPE  H17Y11339   2.440   0.428   3.919  0.1883  0.6507 -0.3603
  109SAPE  C31811340   2.229   0.424   3.943  0.1609  0.1571 -0.3778
  109SAPE  H18X11341   2.212   0.398   3.836  0.4719  0.7028 -0.5621
  109SAPE  H18Y11342   2.146   0.488   3.979  1.3658  1.2784  0.5032
  109SAPE  H18Z11343   2.228   0.336   4.011 -2.0116  0.2414 -0.2068
  110SAPE     N11344   2.527   6.051   2.177  0.0874  0.1065  0.0733
  110SAPE   HN111345   2.554   6.142   2.134  0.2118 -1.0179 -2.4144
  110SAPE   HN211346   2.568   6.044   2.273  0.1578  0.7912  0.0948
  110SAPE   HN311347   2.562   5.974   2.117 -0.1270 -1.7775  2.2120
  110SAPE   C1211348   2.376   6.049   2.190 -0.7133  0.3569  0.5876
  110SAPE  H12A11349   2.352   6.095   2.288 -3.9558 -1.5475  0.8430
  110SAPE  H12B11350   2.339   5.946   2.209  0.5072 -0.0525  0.8652
  110SAPE   C1111351   2.313   6.124   2.078  0.5726 -0.2176  0.5116
  110SAPE  H11A11352   2.351   6.228   2.078 -0.6246  0.2644  2.4182
  110SAPE  H11B11353   2.203   6.136   2.087  0.6151 -0.5081  1.5388
  110SAPE     P11354   2.235   6.017   1.849 -0.1002 -0.0384  0.2413
  110SAPE   O1311355   2.155   6.139   1.815  0.2862 -0.3890 -0.1529
  110SAPE   O1411356   2.295   5.940   1.739  0.4854  0.0589  0.9907
  110SAPE   O1211357   2.349   6.054   1.953  0.1276  0.7056 -0.5517
  110SAPE   O1111358   2.143   5.923   1.927 -0.5688  0.6827 -0.2204
  110SAPE    C111359   2.196   5.792   1.970  0.2693  0.4771 -0.4425
  110SAPE    HA11360   2.208   5.726   1.882  0.0880  0.6070 -0.5649
  110SAPE    HB11361   2.300   5.789   2.011 -0.4534 -3.3907  1.5809
  110SAPE    C211362   2.103   5.733   2.073  0.6182  0.1625  0.2837
  110SAPE    HS11363   2.002   5.726   2.027  1.2425 -0.7769 -0.9803
  110SAPE   O2111364   2.101   5.816   2.189 -0.0688 -0.4439 -0.3035
  110SAPE   C2111365   1.987   5.831   2.248  0.3755  0.0371  0.0820
  110SAPE   O2211366   1.886   5.766   2.211 -0.8687  0.3199 -0.4931
  110SAPE   C2211367   2.000   5.943   2.347 -0.1445 -0.5429 -0.0344
  110SAPE   H2R11368   2.089   5.926   2.412  1.3193 -0.2160 -1.8877
  110SAPE   H2S11369   2.026   6.029   2.283  0.7820 -1.4141 -0.8642
  110SAPE    C311370   2.143   5.592   2.118 -0.6665  0.2549 -0.0749
  110SAPE    HX11371   2.068   5.568   2.197 -1.0884  0.5583 -0.3744
  110SAPE    HY11372   2.123   5.514   2.042  0.1772 -0.4040  0.3639
  110SAPE   O3111373   2.278   5.588   2.170 -0.1012 -0.2816 -0.1814
  110SAPE   C3111374   2.371   5.522   2.101  0.6431  0.0022  0.2789
  110SAPE   O3211375   2.357   5.477   1.983  0.0557 -0.2556 -0.6256
  110SAPE   C3211376   2.507   5.507   2.162 -0.6601  1.0649  0.6685
  110SAPE   H2X11377   2.587   5.530   2.089  0.9766 -3.3315  0.8185
  110SAPE   H2Y11378   2.520   5.398   2.180 -1.2814  1.2230  2.2253
  110SAPE   C2311379   1.871   5.972   2.431  0.4680  1.3329 -0.3096
  110SAPE   H3R11380   1.854   5.875   2.482  1.7740  0.2463 -1.8314
  110SAPE   H3S11381   1.780   5.997   2.373  0.7557  0.4089 -1.1745
  110SAPE   C2411382   1.898   6.086   2.535  0.1819  0.3033  0.3515
  110SAPE   H4R11383   1.990   6.070   2.596 -0.3270  0.0304  1.0650
  110SAPE   H4S11384   1.811   6.107   2.601  0.8235  3.0332  0.4503
  110SAPE   C2511385   1.911   6.216   2.448 -0.6288 -0.1383 -0.0946
  110SAPE   H5R11386   1.883   6.215   2.341  0.4746 -2.0281 -0.4258
  110SAPE   C2611387   1.966   6.331   2.491  0.1819 -0.0780 -0.3916
  110SAPE   H6R11388   1.963   6.421   2.427 -0.2573  0.1513 -0.0567
  110SAPE   C2711389   2.013   6.363   2.625  0.8395 -0.1251  0.2304
  110SAPE   H7R11390   2.087   6.446   2.623  0.3983  0.2965  0.8246
  110SAPE   H7S11391   2.072   6.287   2.680  0.3396 -0.9115 -0.3043
  110SAPE   C2811392   1.898   6.411   2.710 -0.5255 -0.6013 -0.3715
  110SAPE   H8R11393   1.815   6.461   2.656  0.6325  1.2143 -0.5729
  110SAPE   C2911394   1.881   6.416   2.842 -0.8308 -0.5340  0.2389
  110SAPE   H9R11395   1.791   6.461   2.885  0.6449  1.6348  1.2542
  110SAPE  C21011396   1.987   6.358   2.942  1.0301  0.4711  0.2586
  110SAPE  H10R11397   2.049   6.284   2.888  0.7902  1.8538 -2.0346
  110SAPE  H10S11398   1.929   6.301   3.018  1.7495  0.3458  0.7262
  110SAPE  C21111399   2.067   6.463   3.004  0.2861 -0.6543  0.0332
  110SAPE  H11R11400   2.053   6.565   2.963 -1.1681 -0.9201 -0.1776
  110SAPE  C21211401   2.142   6.438   3.112 -0.3867 -0.4139  0.0489
  110SAPE  H12R11402   2.196   6.513   3.172 -1.6967  0.1030  0.6243
  110SAPE  C21311403   2.165   6.300   3.159  0.3718 -0.5574  0.5547
  110SAPE  H13R11404   2.132   6.221   3.088 -0.3377  1.4125 -1.4114
  110SAPE  H13S11405   2.092   6.281   3.241  0.7227 -0.0137  1.0010
  110SAPE  C21411406   2.299   6.285   3.220 -0.0981  0.4482  0.2743
  110SAPE  H14R11407   2.386   6.261   3.156 -0.3061  0.9293 -0.2003
  110SAPE  C21511408   2.335   6.292   3.346 -0.5267  0.0489  0.0868
  110SAPE  H15R11409   2.441   6.281   3.374 -0.3660  1.5695  0.1581
  110SAPE  C21611410   2.242   6.307   3.468 -0.1136  0.4763 -0.6433
  110SAPE  H16R11411   2.139   6.344   3.447 -0.4613 -0.5261 -0.7310
  110SAPE  H16S11412   2.277   6.396   3.525 -1.4028 -0.5093  1.8317
  110SAPE  C21711413   2.245   6.176   3.552  0.0982  0.1933 -0.7710
  110SAPE  H17R11414   2.352   6.147   3.565 -0.0727  0.6353  2.3069
  110SAPE  H17S11415   2.199   6.090   3.498  0.9987 -1.4050  0.8872
  110SAPE  C21811416   2.179   6.181   3.699 -0.6311  0.0678 -0.3479
  110SAPE  H18R11417   2.079   6.228   3.708 -1.2087 -1.3507  1.1423
  110SAPE  H18S11418   2.255   6.255   3.733  0.5430 -0.7803 -1.0278
  110SAPE  C21911419   2.173   6.053   3.781 -0.4995  0.8708 -0.1545
  110SAPE  H19R11420   2.101   5.981   3.735  0.3034  0.3783 -0.6533
  110SAPE  H19S11421   2.130   6.079   3.880  0.9618  0.7280  0.5312
  110SAPE  C22011422   2.306   5.991   3.816 -0.3831 -0.3123  0.6330
  110SAPE  H20R11423   2.291   5.900   3.878  0.2119  1.0862  2.9499
  110SAPE  H20S11424   2.368   6.064   3.871 -0.1695 -0.6005  0.7796
  110SAPE  H20T11425   2.369   5.950   3.733  1.1706 -0.3796  1.7937
  110SAPE   C3311426   2.534   5.591   2.292 -0.5267 -0.3563  0.3863
  110SAPE   H3X11427   2.449   5.584   2.362 -3.0459  1.0654 -2.2823
  110SAPE   H3Y11428   2.540   5.696   2.255 -0.1674 -0.2775  0.6632
  110SAPE   C3411429   2.666   5.555   2.374  0.2448  0.3367 -0.0450
  110SAPE   H4X11430   2.747   5.548   2.299  0.9969  0.5163  0.7371
  110SAPE   H4Y11431   2.658   5.454   2.421  0.3997  0.1568 -0.3988
  110SAPE   C3511432   2.687   5.657   2.484 -0.0858  0.0933 -0.4287
  110SAPE   H5X11433   2.628   5.751   2.476 -0.3851 -0.0430  0.1138
  110SAPE   H5Y11434   2.796   5.679   2.490  0.1411 -1.3045  1.9336
  110SAPE   C3611435   2.656   5.590   2.621  0.0930  0.4506  0.3058
  110SAPE   H6X11436   2.678   5.481   2.616  2.4100  0.8554  0.3511
  110SAPE   H6Y11437   2.547   5.598   2.643 -0.2770  3.2404 -1.9320
  110SAPE   C3711438   2.747   5.639   2.741  0.6464 -0.0300 -0.0911
  110SAPE   H7X11439   2.739   5.749   2.752  2.1669  0.0502  0.3744
  110SAPE   H7Y11440   2.851   5.620   2.709  1.2982  2.2317  0.5225
  110SAPE   C3811441   2.714   5.572   2.874  0.1859 -0.8321 -0.5829
  110SAPE   H8X11442   2.716   5.462   2.854  1.0502 -0.9918  0.2749
  110SAPE   H8Y11443   2.608   5.583   2.903 -0.0873  1.1284 -2.1904
  110SAPE   C3911444   2.815   5.596   2.985 -0.1223  0.2262 -0.0868
  110SAPE   H9X11445   2.825   5.706   2.999  0.3872  0.2000 -0.2333
  110SAPE   H9Y11446   2.916   5.561   2.956  0.0394  2.3891 -2.4972
  110SAPE  C31011447   2.774   5.523   3.116  0.1145  0.0311 -0.3623
  110SAPE  H10X11448   2.767   5.415   3.091 -1.2245  0.2842 -1.1897
  110SAPE  H10Y11449   2.670   5.558   3.135  1.0218  2.1091  1.1181
  110SAPE  C31111450   2.874   5.558   3.223  0.8697  0.6924 -0.0672
  110SAPE  H11X11451   2.895   5.667   3.223  1.5182  0.6385 -2.5854
  110SAPE  H11Y11452   2.967   5.502   3.199 -0.4495 -1.8056  0.2831
  110SAPE  C31211453   2.836   5.521   3.370  0.1642 -0.0185 -0.2798
  110SAPE  H12X11454   2.772   5.430   3.372  0.4275 -0.2679  3.2281
  110SAPE  H12Y11455   2.784   5.611   3.411  1.0461  1.2968 -1.9181
  110SAPE  C31311456   2.965   5.492   3.460 -0.0757 -0.0517  0.1926
  110SAPE  H13X11457   3.028   5.583   3.469 -1.3315  0.7960  0.7913
  110SAPE  H13Y11458   3.028   5.419   3.405  2.8735  1.6286  1.1375
  110SAPE  C31411459   2.919   5.457   3.596  0.1964 -0.6075  0.6758
  110SAPE  H14X11460   2.829   5.391   3.590 -0.0362 -0.1997 -0.7649
  110SAPE  H14Y11461   2.868   5.543   3.645 -0.6673  0.2772 -1.6036
  110SAPE  C31511462   3.040   5.405   3.684  0.0271 -0.0822 -0.2965
  110SAPE  H15X11463   3.111   5.489   3.695  1.8217 -1.5134 -0.3698
  110SAPE  H15Y11464   3.099   5.333   3.623 -0.2757 -0.2591 -0.3825
  110SAPE  C31611465   3.000   5.339   3.813  0.2902 -0.4538  0.2432
  110SAPE  H16X11466   3.084   5.337   3.886 -0.0105 -1.4415  0.5824
  110SAPE  H16Y11467   2.963   5.236   3.796 -0.9379 -0.0817  0.4935
  110SAPE  C31711468   2.871   5.387   3.887 -0.0726  0.2015  0.4097
  110SAPE  H17X11469   2.787   5.346   3.827  0.8161  1.5876 -1.8995
  110SAPE  H17Y11470   2.858   5.498   3.887 -5.4648 -0.1439 -1.0578
  110SAPE  C31811471   2.864   5.342   4.036 -0.3037 -0.6702  0.4008
  110SAPE  H18X11472   2.910   5.420   4.100  2.3973 -1.8644  0.0454
  110SAPE  H18Y11473   2.929   5.253   4.052  1.4914  0.6274  0.4834
  110SAPE  H18Z11474   2.760   5.327   4.074 -0.1164  0.9530  1.6577
  111SAPE     N11475   2.464   0.447   2.048  0.2749 -0.2709 -0.0704
  111SAPE   HN111476   2.436   0.403   2.138 -1.3408 -2.2679 -1.4491
  111SAPE   HN211477   2.518   0.375   1.996 -0.9433 -1.8279  0.7432
  111SAPE   HN311478   2.526   0.528   2.066  0.4625 -0.4013 -0.1260
  111SAPE   C1211479   2.352   0.498   1.971 -1.0559  0.1357 -0.1385
  111SAPE  H12A11480   2.288   0.410   1.946 -1.4635  0.0970  1.0043
  111SAPE  H12B11481   2.401   0.539   1.880 -1.4387  2.4597  0.6433
  111SAPE   C1111482   2.293   0.623   2.041  0.5331  0.1782  0.6758
  111SAPE  H11A11483   2.213   0.663   1.976 -0.9323 -1.3690  1.4671
  111SAPE  H11B11484   2.372   0.696   2.071  1.9121 -0.0309 -2.0947
  111SAPE     P11485   2.110   0.638   2.223 -0.0960  0.0882 -0.0369
  111SAPE   O1311486   2.012   0.665   2.115 -0.1914 -0.0878  0.5284
  111SAPE   O1411487   2.075   0.547   2.335 -0.2470 -0.8721  0.5652
  111SAPE   O1211488   2.235   0.580   2.155 -0.3097  0.1057 -0.7449
  111SAPE   O1111489   2.140   0.778   2.277  0.0210  0.2342 -0.4389
  111SAPE    C111490   2.264   0.807   2.349 -0.1037  0.0053 -0.7207
  111SAPE    HA11491   2.335   0.723   2.362  0.2584  0.4724  0.3721
  111SAPE    HB11492   2.312   0.902   2.316 -1.2116  0.5753 -0.7610
  111SAPE    C211493   2.237   0.845   2.497  0.5746 -0.2233  0.1699
  111SAPE    HS11494   2.337   0.872   2.538 -0.7498  3.9104  1.1074
  111SAPE   O2111495   2.181   0.735   2.573  0.9231 -0.2972 -0.0696
  111SAPE   C2111496   2.257   0.625   2.596  0.6826  0.5400  0.4830
  111SAPE   O2211497   2.379   0.628   2.574 -0.2544 -0.5637 -0.1758
  111SAPE   C2211498   2.171   0.519   2.667  0.2096  0.3285  0.0361
  111SAPE   H2R11499   2.068   0.516   2.625  0.1630 -2.1422  0.2076
  111SAPE   H2S11500   2.211   0.418   2.647 -1.4116 -0.2607 -0.4033
  111SAPE    C311501   2.161   0.974   2.501  0.2104 -0.3096 -0.3333
  111SAPE    HX11502   2.083   0.964   2.422  0.3874  0.0614 -0.5592
  111SAPE    HY11503   2.233   1.053   2.470  0.3206  0.3988  1.6024
  111SAPE   O3111504   2.107   1.003   2.632  0.2027  0.4350  0.3337
  111SAPE   C3111505   1.976   0.968   2.652 -1.0714 -0.7433 -0.4135
  111SAPE   O3211506   1.903   0.911   2.569 -0.1093 -0.0621 -0.2458
  111SAPE   C3211507   1.933   1.018   2.789 -0.7793 -0.4852 -0.5967
  111SAPE   H2X11508   1.948   1.128   2.792  1.3281 -0.7483 -0.0745
  111SAPE   H2Y11509   1.997   0.982   2.872 -0.9481  0.9243  0.1680
  111SAPE   C2311510   2.175   0.531   2.819  0.9491  0.4344 -0.1412
  111SAPE   H3R11511   2.274   0.501   2.859  0.1386 -0.1830  1.5051
  111SAPE   H3S11512   2.108   0.455   2.866  2.8381 -0.4481  1.2715
  111SAPE   C2411513   2.121   0.666   2.877  0.4675 -0.8416  0.1615
  111SAPE   H4R11514   2.180   0.751   2.836  0.5373 -0.6591  0.6260
  111SAPE   H4S11515   2.148   0.655   2.985  0.2352 -3.1608  0.0294
  111SAPE   C2511516   1.972   0.686   2.858  0.0989  0.4602  0.3064
  111SAPE   H5R11517   1.939   0.699   2.754  0.5403 -0.8077 -0.0122
  111SAPE   C2611518   1.881   0.691   2.959  0.0139  0.3085  0.5170
  111SAPE   H6R11519   1.773   0.704   2.942 -0.3122 -0.6200  1.7415
  111SAPE   C2711520   1.908   0.689   3.109  0.1998 -0.4535  0.5693
  111SAPE   H7R11521   1.859   0.776   3.158  1.1634 -0.1553  1.0389
  111SAPE   H7S11522   2.012   0.722   3.133 -0.2387  1.4104  0.1306
  111SAPE   C2811523   1.863   0.564   3.185 -0.1367 -0.3869  0.3190
  111SAPE   H8R11524   1.760   0.539   3.157 -0.5957  2.3544 -0.7921
  111SAPE   C2911525   1.928   0.510   3.286  0.0345 -0.0107 -0.0505
  111SAPE   H9R11526   1.877   0.421   3.326  0.5769  0.2219  1.2044
  111SAPE  C21011527   2.064   0.548   3.345 -0.2822 -0.4680  0.3657
  111SAPE  H10R11528   2.105   0.634   3.287 -1.4122 -1.3809 -1.9278
  111SAPE  H10S11529   2.141   0.472   3.319  1.7997  1.5725  0.1827
  111SAPE  C21111530   2.076   0.585   3.484  0.0035 -0.3185 -1.1281
  111SAPE  H11R11531   2.068   0.691   3.513  1.2590 -0.6349  0.5757
  111SAPE  C21211532   2.103   0.505   3.593 -0.3098  0.6763  0.5609
  111SAPE  H12R11533   2.130   0.545   3.692  0.9928  0.4628  0.3108
  111SAPE  C21311534   2.123   0.357   3.568  0.1972  0.0604  0.1115
  111SAPE  H13R11535   2.063   0.322   3.482  0.1677 -0.8162  0.4777
  111SAPE  H13S11536   2.081   0.308   3.658 -1.9546  2.3488  0.4617
  111SAPE  C21411537   2.263   0.319   3.546  0.1171  0.6398 -0.2449
  111SAPE  H14R11538   2.336   0.396   3.518  1.8771 -0.5892  0.7648
  111SAPE  C21511539   2.310   0.198   3.573  0.4567  0.0473 -0.2789
  111SAPE  H15R11540   2.419   0.184   3.575  0.3398 -1.3159 -1.4704
  111SAPE  C21611541   2.223   0.087   3.618  0.2842 -0.0386  0.8488
  111SAPE  H16R11542   2.258  -0.009   3.575 -1.0845 -0.0012 -0.4557
  111SAPE  H16S11543   2.119   0.102   3.581  0.3647 -0.4783  0.4394
  111SAPE  C21711544   2.226   0.076   3.768 -0.7467  0.1293 -0.6958
  111SAPE  H17R11545   2.188   0.169   3.814  2.3232  0.4590  1.4982
  111SAPE  H17S11546   2.332   0.076   3.801 -0.6159  2.6617 -0.9201
  111SAPE  C21811547   2.145  -0.044   3.812  1.2318 -1.0593 -0.1397
  111SAPE  H18R11548   2.175  -0.136   3.758  0.0723 -0.9429 -0.9878
  111SAPE  H18S11549   2.039  -0.025   3.788  1.5505  0.7583 -0.2643
  111SAPE  C21911550   2.161  -0.068   3.960  0.2169  0.4896 -0.1270
  111SAPE  H19R11551   2.142   0.026   4.016  1.6167  1.9825 -2.0157
  111SAPE  H19S11552   2.267  -0.090   3.985 -0.1120 -0.0410  0.8254
  111SAPE  C22011553   2.080  -0.189   4.005 -0.0457  0.0745  0.7497
  111SAPE  H20R11554   2.116  -0.228   4.102 -0.9981 -0.3757  0.9359
  111SAPE  H20S11555   2.082  -0.263   3.923 -1.7222 -0.5521  1.2334
  111SAPE  H20T11556   1.973  -0.157   4.014 -0.5191 -1.5986  1.3289
  111SAPE   C3311557   1.781   0.989   2.824 -0.1828  0.3650  0.4159
  111SAPE   H3X11558   1.761   0.882   2.803 -3.5717  0.8855  0.3483
  111SAPE   H3Y11559   1.732   1.047   2.743  1.0127  2.5187  1.1536
  111SAPE   C3411560   1.743   1.024   2.973 -0.3998 -0.0685 -0.0090
  111SAPE   H4X11561   1.823   0.979   3.036 -0.0792 -0.2247 -0.5226
  111SAPE   H4Y11562   1.644   0.978   2.995  0.5070 -1.1572  2.0681
  111SAPE   C3511563   1.751   1.170   2.987  0.0545 -0.3993 -0.1132
  111SAPE   H5X11564   1.686   1.220   2.912  1.7981 -0.1701 -1.5355
  111SAPE   H5Y11565   1.855   1.205   2.971  0.0736 -0.9686 -1.3191
  111SAPE   C3611566   1.708   1.239   3.120 -0.0400 -0.3808 -0.2808
  111SAPE   H6X11567   1.597   1.236   3.122 -0.0147 -1.6164  1.3850
  111SAPE   H6Y11568   1.755   1.340   3.121  1.5714 -0.9759 -3.2897
  111SAPE   C3711569   1.750   1.168   3.244  0.0946  0.0549  0.1249
  111SAPE   H7X11570   1.859   1.148   3.238  0.0034 -0.1202 -1.3871
  111SAPE   H7Y11571   1.696   1.071   3.237  1.1124 -0.5179  0.0491
  111SAPE   C3811572   1.724   1.237   3.379 -0.2230 -0.6148 -0.3960
  111SAPE   H8X11573   1.627   1.291   3.373 -1.4734 -2.7388 -0.1550
  111SAPE   H8Y11574   1.801   1.317   3.387 -1.6461  0.8488 -0.8269
  111SAPE   C3911575   1.712   1.134   3.489  0.4061  0.3441 -0.8035
  111SAPE   H9X11576   1.809   1.085   3.513  0.0164 -0.0913 -0.0640
  111SAPE   H9Y11577   1.646   1.056   3.446 -1.1808  0.3047  1.5133
  111SAPE  C31011578   1.655   1.196   3.621 -0.1652  0.4330  1.2844
  111SAPE  H10X11579   1.631   1.115   3.692  0.1293 -1.5531 -0.7752
  111SAPE  H10Y11580   1.568   1.260   3.595 -0.1191 -0.4766 -1.3829
  111SAPE  C31111581   1.750   1.297   3.689  0.0652 -0.0750  0.2457
  111SAPE  H11X11582   1.693   1.392   3.703  0.7068  0.2771  0.5225
  111SAPE  H11Y11583   1.837   1.311   3.621 -0.1366  3.3601  0.5366
  111SAPE  C31211584   1.811   1.251   3.820  0.2761  0.0242 -0.1034
  111SAPE  H12X11585   1.885   1.326   3.856 -0.6518  1.9246 -1.9296
  111SAPE  H12Y11586   1.869   1.156   3.812  0.2264 -0.1968  1.8630
  111SAPE  C31311587   1.707   1.219   3.930  0.6963 -0.4819  0.0859
  111SAPE  H13X11588   1.752   1.191   4.028  0.5239  2.1027  0.9953
  111SAPE  H13Y11589   1.651   1.128   3.901  0.5633 -0.5701  0.6028
  111SAPE  C31411590   1.595   1.331   3.951  0.7306 -0.3913  0.2605
  111SAPE  H14X11591   1.521   1.279   4.015 -1.4583 -0.8476 -2.4317
  111SAPE  H14Y11592   1.536   1.360   3.861  0.4928  0.2855  0.6249
  111SAPE  C31511593   1.654   1.457   4.013 -0.1950 -0.7035 -0.7295
  111SAPE  H15X11594   1.580   1.540   4.023  0.8532  0.1440  0.3059
  111SAPE  H15Y11595   1.733   1.500   3.949 -0.8559  4.4238  1.3781
  111SAPE  C31611596   1.706   1.431   4.154  0.2162  0.4257  0.6778
  111SAPE  H16X11597   1.701   1.320   4.167 -2.7603  0.6980  2.9748
  111SAPE  H16Y11598   1.630   1.470   4.225 -1.8310 -2.2404  0.1517
  111SAPE  C31711599   1.842   1.481   4.180 -0.1620 -0.1995  0.7796
  111SAPE  H17X11600   1.848   1.586   4.144 -1.8662 -0.5039 -0.5394
  111SAPE  H17Y11601   1.908   1.424   4.113 -0.5897  0.9599 -0.6891
  111SAPE  C31811602   1.877   1.467   4.325  0.4193  0.6923 -0.2464
  111SAPE  H18X11603   1.880   1.361   4.358  0.6138  1.2790  1.7718
  111SAPE  H18Y11604   1.801   1.513   4.392  0.4291  0.2421  0.0809
  111SAPE  H18Z11605   1.967   1.522   4.361  0.9880  0.3980 -1.1574
  112SAPE     N11606   6.177   6.241   2.446  0.1419  0.3229 -0.0792
  112SAPE   HN111607   6.205   6.149   2.407  1.8285  1.1393 -0.9153
  112SAPE   HN211608   6.257   6.293   2.488  0.6730 -1.0692  0.6757
  112SAPE   HN311609   6.110   6.233   2.525  0.2133  3.0955  0.3684
  112SAPE   C1211610   6.113   6.325   2.335  0.1725  0.0438 -0.0466
  112SAPE  H12A11611   6.193   6.379   2.280  1.5786 -1.6653  0.2261
  112SAPE  H12B11612   6.048   6.401   2.382 -0.2990  0.3694 -1.1881
  112SAPE   C1111613   6.038   6.238   2.235  0.0365  0.5712  0.2219
  112SAPE  H11A11614   6.092   6.150   2.195  1.5243  1.4518  0.2101
  112SAPE  H11B11615   6.006   6.297   2.146 -0.2963 -1.2663 -0.9271
  112SAPE     P11616   5.781   6.241   2.292  0.0191 -0.5945 -0.4260
  112SAPE   O1311617   5.782   6.385   2.341 -0.0438  0.2327  0.2298
  112SAPE   O1411618   5.738   6.221   2.158  0.1649 -0.0352 -0.0667
  112SAPE   O1211619   5.922   6.182   2.303 -0.0334 -0.1595 -0.0025
  112SAPE   O1111620   5.690   6.150   2.392  0.1955 -0.1105 -0.3268
  112SAPE    C111621   5.742   6.093   2.514  0.1802 -0.1692 -0.8074
  112SAPE    HA11622   5.674   6.009   2.541 -0.2371 -0.0604 -1.4743
  112SAPE    HB11623   5.847   6.061   2.500 -0.3064 -1.9843 -0.5668
  112SAPE    C211624   5.743   6.189   2.641 -0.1929  0.2345 -0.7983
  112SAPE    HS11625   5.774   6.289   2.603  1.5393 -1.1005 -3.1934
  112SAPE   O2111626   5.824   6.129   2.739  0.1378 -0.3052  0.3044
  112SAPE   C2111627   5.954   6.157   2.741  0.1208  0.2414 -0.2344
  112SAPE   O2211628   6.015   6.229   2.662  0.1242 -0.0508  0.1542
  112SAPE   C2211629   6.023   6.078   2.858 -0.1308  0.1592 -0.3469
  112SAPE   H2R11630   5.950   6.008   2.904 -0.7076  0.7673 -0.3181
  112SAPE   H2S11631   6.109   6.019   2.820 -0.2816  0.0035 -0.4471
  112SAPE    C311632   5.607   6.208   2.717  0.1316 -0.9342  0.0099
  112SAPE    HX11633   5.567   6.107   2.738  0.2615 -1.4787 -2.1301
  112SAPE    HY11634   5.538   6.263   2.649  2.5088  0.2217 -1.6061
  112SAPE   O3111635   5.622   6.275   2.847 -0.2001 -0.4241  0.0171
  112SAPE   C3111636   5.648   6.406   2.837  0.1993 -0.7261  0.1241
  112SAPE   O3211637   5.689   6.459   2.737  0.1903  0.3583  0.1711
  112SAPE   C3211638   5.620   6.474   2.973 -0.3611  0.1368  0.4175
  112SAPE   H2X11639   5.541   6.551   2.958  0.4212  0.8689 -0.0427
  112SAPE   H2Y11640   5.702   6.544   3.001  0.2779 -0.8775  1.1117
  112SAPE   C2311641   6.090   6.169   2.960 -0.5463  0.3581 -0.2830
  112SAPE   H3R11642   6.155   6.237   2.902 -0.6572  0.4169 -0.3384
  112SAPE   H3S11643   6.163   6.113   3.023  0.6246  1.7148 -0.4064
  112SAPE   C2411644   5.998   6.242   3.059  0.8029 -0.0695  0.3727
  112SAPE   H4R11645   5.942   6.312   2.993  1.9104  0.1965 -0.3014
  112SAPE   H4S11646   6.064   6.307   3.120  2.8666 -1.4740 -0.2487
  112SAPE   C2511647   5.904   6.167   3.154 -0.4343 -0.5820  0.9654
  112SAPE   H5R11648   5.852   6.079   3.112 -0.8596 -0.1471  0.5619
  112SAPE   C2611649   5.863   6.207   3.278  0.5803  0.7764 -0.0563
  112SAPE   H6R11650   5.779   6.149   3.318  0.2710  1.5852  0.4838
  112SAPE   C2711651   5.895   6.321   3.364 -0.0670  0.2050  0.7892
  112SAPE   H7R11652   5.802   6.357   3.413 -0.7696  0.6002 -0.7625
  112SAPE   H7S11653   5.922   6.405   3.296 -0.2693 -1.8865 -2.0405
  112SAPE   C2811654   6.003   6.285   3.462 -0.3038 -0.3463 -0.6328
  112SAPE   H8R11655   6.101   6.271   3.414  0.3330 -1.6779  0.9419
  112SAPE   C2911656   5.980   6.245   3.584 -0.2249  0.4356  0.6307
  112SAPE   H9R11657   6.059   6.205   3.651 -1.2698 -1.9762  0.5262
  112SAPE  C21011658   5.852   6.232   3.651 -0.3007 -0.3848 -0.8577
  112SAPE  H10R11659   5.847   6.137   3.709  2.1699  0.2863  0.5813
  112SAPE  H10S11660   5.765   6.222   3.582 -0.8414 -2.3973  0.0501
  112SAPE  C21111661   5.835   6.361   3.733  0.0936 -0.5329  0.3347
  112SAPE  H11R11662   5.800   6.451   3.680 -1.3453 -2.0858 -1.5065
  112SAPE  C21211663   5.853   6.360   3.864 -0.5124  0.1178 -0.8219
  112SAPE  H12R11664   5.857   6.463   3.904 -0.3477  0.1349 -0.8788
  112SAPE  C21311665   5.892   6.245   3.961  0.4270 -0.2394  0.2679
  112SAPE  H13R11666   5.895   6.150   3.904  1.8013  0.7203 -1.3497
  112SAPE  H13S11667   5.810   6.252   4.036  0.9872 -1.1906  0.9794
  112SAPE  C21411668   6.021   6.276   4.028 -0.1247 -0.3159 -0.4972
  112SAPE  H14R11669   6.085   6.348   3.976  0.5369 -0.6828 -0.2062
  112SAPE  C21511670   6.074   6.215   4.138  0.0088 -0.0228  0.3539
  112SAPE  H15R11671   6.163   6.254   4.190 -0.0777 -0.6461  0.9810
  112SAPE  C21611672   6.000   6.105   4.214  0.4525 -0.3383  0.3633
  112SAPE  H16R11673   6.064   6.064   4.294 -0.0458 -0.2408  0.8207
  112SAPE  H16S11674   5.962   6.029   4.143 -0.5507  1.0545 -0.6644
  112SAPE  C21711675   5.877   6.164   4.294 -0.4148 -0.7243 -0.1549
  112SAPE  H17R11676   5.815   6.080   4.332  0.4185 -1.5110 -0.4993
  112SAPE  H17S11677   5.814   6.238   4.239 -0.1436 -1.4978 -1.5704
  112SAPE  C21811678   5.924   6.235   4.427  0.0104 -0.3481 -0.2332
  112SAPE  H18R11679   5.995   6.312   4.390 -0.4261  0.4923  0.6314
  112SAPE  H18S11680   5.974   6.164   4.495  1.3608 -0.2800 -1.1203
  112SAPE  C21911681   5.799   6.288   4.497  0.5611  0.2258  0.1379
  112SAPE  H19R11682   5.744   6.357   4.429 -1.1105  1.7418  2.8376
  112SAPE  H19S11683   5.827   6.354   4.582 -0.1434  0.9536 -0.1794
  112SAPE  C22011684   5.707   6.171   4.539  0.5823  0.0881  0.2454
  112SAPE  H20R11685   5.622   6.214   4.596  0.3445  0.2607 -0.2313
  112SAPE  H20S11686   5.756   6.097   4.606 -0.0878 -0.9594 -0.3770
  112SAPE  H20T11687   5.651   6.121   4.457  1.7079  0.2355 -0.6333
  112SAPE   C3311688   5.572   6.374   3.089 -0.5357 -0.8993 -0.0409
  112SAPE   H3X11689   5.643   6.291   3.104  1.5689  0.9136  0.6033
  112SAPE   H3Y11690   5.482   6.316   3.057 -1.6438 -1.1272  3.1276
  112SAPE   C3411691   5.542   6.439   3.227  0.1634 -0.4882  0.2788
  112SAPE   H4X11692   5.451   6.502   3.213 -1.2839 -2.3758  0.7505
  112SAPE   H4Y11693   5.621   6.509   3.262 -1.5838 -0.0287  3.6831
  112SAPE   C3511694   5.519   6.347   3.344 -0.1539 -0.3548  0.4381
  112SAPE   H5X11695   5.609   6.283   3.356  1.2394  1.1048 -1.3791
  112SAPE   H5Y11696   5.438   6.281   3.308  0.4274 -1.8262  1.7299
  112SAPE   C3611697   5.474   6.420   3.465 -0.0475  0.6310 -0.7806
  112SAPE   H6X11698   5.381   6.476   3.441 -1.7600 -1.3156  0.9103
  112SAPE   H6Y11699   5.550   6.500   3.478  2.6774 -1.8940 -0.1973
  112SAPE   C3711700   5.477   6.334   3.595 -0.0292 -0.2518  0.4345
  112SAPE   H7X11701   5.573   6.279   3.598 -1.5381 -3.0812 -0.2941
  112SAPE   H7Y11702   5.396   6.259   3.589 -1.2402  0.8924  1.6445
  112SAPE   C3811703   5.449   6.409   3.729  0.3456  0.1993  0.3732
  112SAPE   H8X11704   5.360   6.474   3.719 -0.0803 -0.5640 -0.9547
  112SAPE   H8Y11705   5.532   6.482   3.743  0.6981 -0.0557 -0.3548
  112SAPE   C3911706   5.449   6.313   3.853 -0.0543 -0.8628  0.1553
  112SAPE   H9X11707   5.555   6.279   3.859  0.2185 -0.7415 -2.5775
  112SAPE   H9Y11708   5.384   6.228   3.825  0.7519 -1.6189  0.5334
  112SAPE  C31011709   5.412   6.381   3.992 -0.2409 -0.6255 -0.5777
  112SAPE  H10X11710   5.326   6.449   3.975 -0.5403 -0.9045 -0.1997
  112SAPE  H10Y11711   5.491   6.457   4.013 -0.4486 -0.5252 -0.1433
  112SAPE  C31111712   5.386   6.280   4.104 -0.7702  0.5208  0.6498
  112SAPE  H11X11713   5.469   6.206   4.101  0.6149  1.9545 -3.3946
  112SAPE  H11Y11714   5.297   6.221   4.072 -0.8428  1.5696 -1.1904
  112SAPE  C31211715   5.364   6.345   4.239 -0.1887  0.6128 -0.3703
  112SAPE  H12X11716   5.292   6.427   4.222 -0.4038  0.0142 -2.7310
  112SAPE  H12Y11717   5.458   6.400   4.262  0.0670  1.1316 -2.4409
  112SAPE  C31311718   5.305   6.252   4.349  0.6556  0.0619 -0.2056
  112SAPE  H13X11719   5.395   6.210   4.399 -0.2784 -0.8289  0.7740
  112SAPE  H13Y11720   5.252   6.169   4.297  0.5203  0.9686 -1.5795
  112SAPE  C31411721   5.220   6.316   4.461 -0.2385 -0.2888 -0.0328
  112SAPE  H14X11722   5.175   6.404   4.410  1.6701  1.0498  0.4317
  112SAPE  H14Y11723   5.290   6.361   4.535  4.1995 -2.0820 -2.7035
  112SAPE  C31511724   5.115   6.224   4.532 -1.1601  0.5904 -0.3553
  112SAPE  H15X11725   5.033   6.212   4.458  0.1898  3.1923 -2.4669
  112SAPE  H15Y11726   5.074   6.281   4.618  0.5961 -0.3791  1.1963
  112SAPE  C31611727   5.176   6.088   4.580  0.5496  0.3651 -0.2755
  112SAPE  H16X11728   5.199   6.024   4.493  1.3543  1.9792 -1.2899
  112SAPE  H16Y11729   5.098   6.040   4.644  1.0298 -0.1988 -0.1033
  112SAPE  C31711730   5.299   6.095   4.671 -0.2697  0.3847  0.1902
  112SAPE  H17X11731   5.376   6.151   4.614 -0.6811 -0.4403 -1.2361
  112SAPE  H17Y11732   5.327   5.990   4.693 -1.5516  0.1160  0.6687
  112SAPE  C31811733   5.270   6.172   4.795 -0.8917 -0.1094 -0.2261
  112SAPE  H18X11734   5.189   6.126   4.855 -0.6191  0.6008  0.7023
  112SAPE  H18Y11735   5.251   6.279   4.768 -2.0557 -0.1628  0.3611
  112SAPE  H18Z11736   5.358   6.186   4.861  0.8252  0.6875 -2.5308
  113SAPE     N11737   5.833   4.354   2.006  0.0786 -0.2511  0.7341
  113SAPE   HN111738   5.736   4.376   2.039 -0.8013 -2.8174  0.0697
  113SAPE   HN211739   5.858   4.417   1.927 -3.8283 -0.4670 -0.9235
  113SAPE   HN311740   5.828   4.261   1.960 -0.9257  0.2175 -0.1742
  113SAPE   C1211741   5.935   4.356   2.117 -0.2413  0.1762 -0.1764
  113SAPE  H12A11742   6.035   4.341   2.071  0.0595 -1.6945  0.9903
  113SAPE  H12B11743   5.913   4.270   2.183 -2.6841  1.7154  1.1413
  113SAPE   C1111744   5.912   4.488   2.200  0.3006  0.3218 -0.0114
  113SAPE  H11A11745   5.916   4.568   2.124 -0.6389 -1.1302 -1.6489
  113SAPE  H11B11746   6.001   4.502   2.266  3.3309 -1.2808 -3.3965
  113SAPE     P11747   5.731   4.634   2.327  0.0740 -0.1216 -0.0830
  113SAPE   O1311748   5.831   4.742   2.305  0.3304  0.5616 -0.1443
  113SAPE   O1411749   5.605   4.661   2.261 -0.2863  0.0306  1.0777
  113SAPE   O1211750   5.788   4.490   2.279  0.5644 -0.3886 -0.1877
  113SAPE   O1111751   5.713   4.622   2.484 -0.3248  0.1588  0.6860
  113SAPE    C111752   5.732   4.504   2.568  0.2799 -0.4768  0.5171
  113SAPE    HA11753   5.635   4.472   2.613  1.0111  0.0529  2.5784
  113SAPE    HB11754   5.774   4.422   2.505  0.9400 -0.2581  0.6664
  113SAPE    C211755   5.825   4.521   2.694  0.9313  0.6298 -0.6306
  113SAPE    HS11756   5.775   4.590   2.766  0.3598 -1.4243  1.0619
  113SAPE   O2111757   5.955   4.564   2.649  0.0286 -0.2547 -0.7118
  113SAPE   C2111758   5.965   4.693   2.631  0.1403 -0.1530 -0.6769
  113SAPE   O2211759   5.886   4.777   2.675  0.5068 -0.5685 -0.5732
  113SAPE   C2211760   6.089   4.724   2.547 -0.1021 -0.5670 -0.3274
  113SAPE   H2R11761   6.163   4.641   2.550 -0.1373 -0.5750  0.6835
  113SAPE   H2S11762   6.045   4.736   2.446 -0.7764  3.0993  0.2774
  113SAPE    C311763   5.851   4.389   2.777 -0.4947  0.5652 -0.6330
  113SAPE    HX11764   5.915   4.407   2.867  1.6394  0.8396 -2.1265
  113SAPE    HY11765   5.902   4.314   2.714  0.3329  2.2409 -2.0684
  113SAPE   O3111766   5.726   4.338   2.827 -0.1836  1.1785  0.4530
  113SAPE   C3111767   5.733   4.239   2.913 -0.5512  0.8840  0.1105
  113SAPE   O3211768   5.840   4.185   2.945 -0.9464 -0.2729 -0.0169
  113SAPE   C3211769   5.596   4.190   2.966 -0.0205  0.3850 -0.0887
  113SAPE   H2X11770   5.600   4.079   2.965  2.9457  0.3947 -2.1282
  113SAPE   H2Y11771   5.519   4.233   2.899  1.1056 -0.9525 -2.3676
  113SAPE   C2311772   6.155   4.860   2.595 -0.2377  0.4908 -0.2459
  113SAPE   H3R11773   6.082   4.941   2.613  0.0663  0.4762  1.2161
  113SAPE   H3S11774   6.226   4.896   2.518  1.9892 -0.4294  1.2859
  113SAPE   C2411775   6.230   4.844   2.726  0.1410  0.2018  0.2954
  113SAPE   H4R11776   6.311   4.770   2.708  0.8339  0.7183  1.1993
  113SAPE   H4S11777   6.159   4.802   2.801  0.7669  1.7894  1.8686
  113SAPE   C2511778   6.288   4.974   2.774  0.5891  0.1049  0.6555
  113SAPE   H5R11779   6.314   5.037   2.688 -3.7405 -2.9331 -3.4002
  113SAPE   C2611780   6.311   5.009   2.903  1.1162 -0.0783  0.4420
  113SAPE   H6R11781   6.360   5.104   2.927  0.0379  0.9088 -1.0842
  113SAPE   C2711782   6.278   4.920   3.020  0.3289  0.1582 -0.5548
  113SAPE   H7R11783   6.216   4.833   2.985  0.9994  0.0800 -1.5998
  113SAPE   H7S11784   6.209   4.972   3.089  0.6606  0.2438 -0.2872
  113SAPE   C2811785   6.396   4.864   3.090 -0.0876  0.6484 -1.0831
  113SAPE   H8R11786   6.477   4.826   3.025 -0.1794 -0.8181 -0.3679
  113SAPE   C2911787   6.434   4.847   3.215  0.4105 -0.0812  1.0569
  113SAPE   H9R11788   6.537   4.808   3.220  0.3907 -0.5260 -1.1116
  113SAPE  C21011789   6.349   4.875   3.335  0.1007 -0.1128 -0.1306
  113SAPE  H10R11790   6.263   4.941   3.315  0.2421  1.0914  2.7101
  113SAPE  H10S11791   6.404   4.941   3.405  0.6056  0.6462 -1.2048
  113SAPE  C21111792   6.298   4.748   3.394  0.4430  0.7387 -0.1589
  113SAPE  H11R11793   6.280   4.671   3.317 -0.1259 -2.8017  3.1746
  113SAPE  C21211794   6.287   4.710   3.525  0.3204 -0.2674 -0.0939
  113SAPE  H12R11795   6.257   4.608   3.554 -1.7683  0.3375  0.0810
  113SAPE  C21311796   6.324   4.811   3.638 -0.0752 -0.0357 -0.1552
  113SAPE  H13R11797   6.290   4.775   3.737 -1.0955 -0.1550 -0.5330
  113SAPE  H13S11798   6.260   4.899   3.617  1.3965  1.2955  0.6976
  113SAPE  C21411799   6.463   4.872   3.651 -0.2095  0.3995 -0.0726
  113SAPE  H14R11800   6.524   4.850   3.562  0.6138 -0.2123  0.6261
  113SAPE  C21511801   6.529   4.934   3.751  0.4289 -0.1879 -0.2864
  113SAPE  H15R11802   6.621   4.990   3.727 -1.6097  3.0667 -1.0951
  113SAPE  C21611803   6.475   4.964   3.889  0.5919 -0.3436 -0.0910
  113SAPE  H16R11804   6.373   4.920   3.899  0.6395 -0.0682  1.9377
  113SAPE  H16S11805   6.462   5.073   3.911 -0.4316 -0.5390  0.3548
  113SAPE  C21711806   6.566   4.902   4.000  0.6165 -0.3251  0.8419
  113SAPE  H17R11807   6.524   4.937   4.096 -0.3102  0.4833  0.1608
  113SAPE  H17S11808   6.662   4.957   3.995  0.5918 -0.3506 -0.1022
  113SAPE  C21811809   6.585   4.750   4.005 -0.3647 -0.6248  0.0597
  113SAPE  H18R11810   6.693   4.731   3.987 -0.3064 -1.7951  1.4233
  113SAPE  H18S11811   6.531   4.706   3.919  2.4377 -2.2547 -1.0004
  113SAPE  C21911812   6.562   4.683   4.145  0.2674 -0.0406  0.7678
  113SAPE  H19R11813   6.617   4.750   4.214  1.1583 -0.6883  0.6886
  113SAPE  H19S11814   6.597   4.578   4.151 -1.7841 -0.8535 -0.2945
  113SAPE  C22011815   6.414   4.675   4.183 -0.1548  0.1423 -0.1499
  113SAPE  H20R11816   6.342   4.646   4.104  0.1437 -0.4431 -0.2065
  113SAPE  H20S11817   6.385   4.772   4.229  1.6244  0.2002  0.9302
  113SAPE  H20T11818   6.414   4.591   4.256  3.8720  0.4199  0.3917
  113SAPE   C3311819   5.573   4.241   3.112  0.2198  0.4081 -0.1503
  113SAPE   H3X11820   5.466   4.258   3.138  0.3238  1.2318 -0.2154
  113SAPE   H3Y11821   5.622   4.341   3.116 -2.6834  2.0614 -2.0753
  113SAPE   C3411822   5.647   4.153   3.209 -0.0484  0.7049 -0.3841
  113SAPE   H4X11823   5.756   4.166   3.188  0.1028  1.2967  0.7022
  113SAPE   H4Y11824   5.606   4.053   3.184 -1.1429  1.2341 -0.7896
  113SAPE   C3511825   5.633   4.196   3.359  0.3325 -0.6804  1.3490
  113SAPE   H5X11826   5.526   4.193   3.391 -0.9610 -0.7478 -2.4643
  113SAPE   H5Y11827   5.653   4.305   3.350 -0.4819 -0.6860 -1.5700
  113SAPE   C3611828   5.725   4.116   3.441 -0.3711 -0.6950  0.4595
  113SAPE   H6X11829   5.771   4.178   3.521  1.9964 -0.6044 -0.8550
  113SAPE   H6Y11830   5.810   4.098   3.371 -1.0787  0.3279 -0.7145
  113SAPE   C3711831   5.672   3.987   3.497 -1.0260 -0.5455  0.6872
  113SAPE   H7X11832   5.638   3.913   3.422 -0.1796 -0.4831  0.2346
  113SAPE   H7Y11833   5.579   4.013   3.552 -1.7124 -1.0829 -0.2055
  113SAPE   C3811834   5.763   3.908   3.594  0.6585  0.3466 -0.3808
  113SAPE   H8X11835   5.731   3.801   3.602 -1.6418  1.0344  0.2869
  113SAPE   H8Y11836   5.870   3.917   3.567  1.4159 -1.3932  1.7309
  113SAPE   C3911837   5.725   3.947   3.739 -0.1023 -0.3202  0.0183
  113SAPE   H9X11838   5.619   3.921   3.759  0.4681 -0.7212  2.9806
  113SAPE   H9Y11839   5.735   4.057   3.753  0.5417 -0.5358  1.5044
  113SAPE  C31011840   5.816   3.872   3.834  0.3268 -0.5095  0.3685
  113SAPE  H10X11841   5.922   3.894   3.808 -0.2588  1.0195 -0.8391
  113SAPE  H10Y11842   5.802   3.762   3.840  1.7984 -0.8891 -1.7627
  113SAPE  C31111843   5.794   3.922   3.977  0.1267  0.3463  0.4895
  113SAPE  H11X11844   5.686   3.914   4.001 -0.2157  1.2931 -0.6881
  113SAPE  H11Y11845   5.830   4.026   3.988  1.1451 -0.0702  1.3662
  113SAPE  C31211846   5.876   3.834   4.076 -0.1583 -0.0832  0.3065
  113SAPE  H12X11847   5.982   3.862   4.064 -0.7813  1.7762 -1.4933
  113SAPE  H12Y11848   5.857   3.727   4.054 -1.6722 -0.2197  2.0444
  113SAPE  C31311849   5.830   3.834   4.229  0.0604  0.1985 -0.3850
  113SAPE  H13X11850   5.725   3.800   4.234 -0.3751  1.4209 -0.7442
  113SAPE  H13Y11851   5.823   3.941   4.257 -3.5133  0.0814 -0.4125
  113SAPE  C31411852   5.922   3.752   4.330  0.5029  0.3887  1.0861
  113SAPE  H14X11853   6.009   3.819   4.347 -0.3452  2.2117 -1.1927
  113SAPE  H14Y11854   5.956   3.662   4.275 -1.3011  0.1925  0.2073
  113SAPE  C31511855   5.859   3.723   4.465 -0.3172  0.7017  0.5098
  113SAPE  H15X11856   5.842   3.615   4.481 -1.4476  1.0615  2.0327
  113SAPE  H15Y11857   5.757   3.769   4.472 -0.7415 -0.1964  0.3195
  113SAPE  C31611858   5.938   3.765   4.590  0.0869 -0.1822  0.3607
  113SAPE  H16X11859   5.940   3.876   4.588  0.5643 -0.1786 -2.2855
  113SAPE  H16Y11860   6.041   3.727   4.606 -1.0562 -2.9567  1.8961
  113SAPE  C31711861   5.853   3.732   4.715 -0.0794 -0.5820  0.4135
  113SAPE  H17X11862   5.808   3.631   4.708 -1.8324  0.2575 -1.1334
  113SAPE  H17Y11863   5.775   3.812   4.726 -0.1105 -0.5087 -0.3418
  113SAPE  C31811864   5.935   3.735   4.846  0.3034  0.1849 -0.6943
  113SAPE  H18X11865   6.018   3.808   4.832  1.6322 -0.7175  1.7928
  113SAPE  H18Y11866   5.980   3.639   4.879  0.4206  0.5945  0.3805
  113SAPE  H18Z11867   5.869   3.776   4.925  0.7432 -0.0246 -0.2050
  114SAPE     N11868   1.684   5.985   1.609 -0.3425  0.2207 -0.4323
  114SAPE   HN111869   1.670   5.979   1.506  0.7760 -2.2403 -0.5101
  114SAPE   HN211870   1.782   5.962   1.633 -0.2787  1.3822  0.5209
  114SAPE   HN311871   1.618   5.918   1.653  0.7332 -0.3788  0.3008
  114SAPE   C1211872   1.626   6.121   1.652 -0.3386  0.7600  0.8604
  114SAPE  H12A11873   1.516   6.106   1.643 -0.3036 -0.8653  2.6369
  114SAPE  H12B11874   1.655   6.198   1.577 -0.0321  0.5395  0.7506
  114SAPE   C1111875   1.661   6.157   1.791 -0.0040  0.1957 -0.1616
  114SAPE  H11A11876   1.639   6.264   1.813 -0.5439 -0.0702  0.6586
  114SAPE  H11B11877   1.770   6.141   1.803 -0.0176 -0.7426 -1.1965
  114SAPE     P11878   1.645   6.047   2.027 -0.1803 -0.0485 -0.0900
  114SAPE   O1311879   1.579   5.921   2.074  0.3793 -0.8740 -0.2572
  114SAPE   O1411880   1.791   6.042   2.012  0.4115  0.3790  0.1271
  114SAPE   O1211881   1.585   6.083   1.884 -0.7411 -0.1744 -0.3507
  114SAPE   O1111882   1.610   6.174   2.123 -0.1816  0.3662  0.5923
  114SAPE    C111883   1.481   6.178   2.184 -0.1649 -0.6616  0.4126
  114SAPE    HA11884   1.407   6.207   2.107  0.7841  0.9636  0.0670
  114SAPE    HB11885   1.452   6.082   2.231  0.8695 -0.6641  1.0736
  114SAPE    C211886   1.479   6.281   2.306 -0.4653  0.0358  0.8529
  114SAPE    HS11887   1.370   6.299   2.315 -0.7090 -0.9608  0.1230
  114SAPE   O2111888   1.560   6.389   2.277  0.7043 -0.2365  0.1980
  114SAPE   C2111889   1.522   6.502   2.330 -0.8387 -0.2557  0.3467
  114SAPE   O2211890   1.414   6.522   2.387  0.1785 -0.8236  0.0027
  114SAPE   C2211891   1.636   6.609   2.316  0.3799 -0.0011  0.0117
  114SAPE   H2R11892   1.731   6.564   2.353  0.3393  0.4436  0.6818
  114SAPE   H2S11893   1.631   6.629   2.207 -2.9809 -1.2937 -0.1999
  114SAPE    C311894   1.526   6.214   2.434 -0.2794 -0.0267  0.8621
  114SAPE    HX11895   1.633   6.190   2.418 -0.3498 -1.5097  2.2534
  114SAPE    HY11896   1.482   6.113   2.451 -0.0558 -0.1096  0.9492
  114SAPE   O3111897   1.526   6.297   2.551  1.1950 -0.0241  0.0897
  114SAPE   C3111898   1.409   6.283   2.626 -0.7953 -0.2740  1.1866
  114SAPE   O3211899   1.323   6.202   2.602  0.2086  0.2536 -0.3296
  114SAPE   C3211900   1.415   6.381   2.745  0.1931 -0.3641 -0.5645
  114SAPE   H2X11901   1.342   6.462   2.725  0.1413 -0.0585  0.8352
  114SAPE   H2Y11902   1.520   6.419   2.739 -0.2312  0.7455 -1.2814
  114SAPE   C2311903   1.610   6.737   2.394 -0.0580 -0.8117  0.6065
  114SAPE   H3R11904   1.585   6.690   2.492 -0.7224 -0.6342  0.5245
  114SAPE   H3S11905   1.522   6.793   2.357  0.0189  1.3788  3.3509
  114SAPE   C2411906   1.732   6.832   2.408  0.5676 -0.4335 -1.3022
  114SAPE   H4R11907   1.701   6.936   2.430  1.9117 -0.3965  0.6678
  114SAPE   H4S11908   1.773   6.839   2.305  0.1726 -1.5446 -1.5478
  114SAPE   C2511909   1.838   6.775   2.498  0.0030  0.1776  0.5391
  114SAPE   H5R11910   1.916   6.720   2.443 -0.6257  1.1993 -1.4655
  114SAPE   C2611911   1.844   6.791   2.630 -0.0019  0.0859 -0.4719
  114SAPE   H6R11912   1.932   6.747   2.679 -0.3108 -0.0254 -0.0134
  114SAPE   C2711913   1.745   6.855   2.714  0.2713  0.9605 -0.4132
  114SAPE   H7R11914   1.718   6.786   2.798 -0.0798  0.8616 -0.6061
  114SAPE   H7S11915   1.649   6.867   2.659 -1.4029 -1.3716  1.7101
  114SAPE   C2811916   1.783   6.986   2.758 -0.2189 -0.3347 -0.8384
  114SAPE   H8R11917   1.822   7.058   2.686 -1.6608  1.0880 -0.2731
  114SAPE   C2911918   1.750   7.031   2.883 -0.6545 -0.3309 -0.1288
  114SAPE   H9R11919   1.781   7.131   2.917  1.6210 -1.7096  2.3331
  114SAPE  C21011920   1.676   6.963   2.989 -0.2815 -0.3441 -0.6201
  114SAPE  H10R11921   1.629   6.864   2.967 -2.8043  0.6066  0.1757
  114SAPE  H10S11922   1.594   7.028   3.027  1.7389  1.9085  0.1229
  114SAPE  C21111923   1.775   6.931   3.100  0.3268  0.0936  0.3888
  114SAPE  H11R11924   1.866   6.877   3.073  0.8164  0.6234  0.9535
  114SAPE  C21211925   1.768   6.969   3.227 -0.6235 -0.8857  0.0471
  114SAPE  H12R11926   1.854   6.944   3.290 -0.1732 -0.8101 -0.5311
  114SAPE  C21311927   1.643   7.034   3.289 -0.4039  0.1540 -0.2443
  114SAPE  H13R11928   1.556   7.040   3.222 -1.6678 -1.4642  1.1521
  114SAPE  H13S11929   1.672   7.140   3.304  2.0435 -0.5656  0.6331
  114SAPE  C21411930   1.601   6.956   3.411  0.2979 -0.5336 -0.2489
  114SAPE  H14R11931   1.517   6.886   3.396  1.7300 -1.9930 -1.8894
  114SAPE  C21511932   1.646   6.956   3.535  0.3024  0.3524 -0.0868
  114SAPE  H15R11933   1.591   6.895   3.608  0.2190 -0.4089 -0.7734
  114SAPE  C21611934   1.756   7.035   3.596 -0.2476 -0.3078 -0.1159
  114SAPE  H16R11935   1.737   7.142   3.573 -0.7359 -0.5548 -0.8858
  114SAPE  H16S11936   1.851   7.005   3.546 -0.6884 -1.7301 -0.1543
  114SAPE  C21711937   1.772   7.023   3.750  0.1033  0.0857 -0.2671
  114SAPE  H17R11938   1.847   7.101   3.775  0.3592 -0.7797  1.8254
  114SAPE  H17S11939   1.812   6.923   3.776 -1.1097 -0.2672  0.3017
  114SAPE  C21811940   1.651   7.054   3.839  0.3620  0.7059  0.4963
  114SAPE  H18R11941   1.573   6.976   3.852  0.2423  0.5430 -0.9675
  114SAPE  H18S11942   1.600   7.139   3.789  0.8758  1.8090  1.7947
  114SAPE  C21911943   1.703   7.117   3.968  0.4628 -0.2939 -1.1788
  114SAPE  H19R11944   1.614   7.152   4.025  1.0350  1.0381 -1.0495
  114SAPE  H19S11945   1.778   7.199   3.960  2.9622 -2.2407  0.8037
  114SAPE  C22011946   1.785   7.008   4.045 -0.5861 -0.5417 -0.5775
  114SAPE  H20R11947   1.713   6.925   4.063  1.6989 -2.7844 -1.2280
  114SAPE  H20S11948   1.830   7.045   4.139 -0.0898  0.3037 -1.1263
  114SAPE  H20T11949   1.872   6.966   3.990  1.0647 -2.2610  3.0710
  114SAPE   C3311950   1.380   6.301   2.877 -0.1190 -0.0516  0.4287
  114SAPE   H3X11951   1.461   6.233   2.911  0.3628 -0.6759 -1.8070
  114SAPE   H3Y11952   1.282   6.249   2.867 -0.1631  0.1399 -0.1768
  114SAPE   C3411953   1.362   6.398   2.993  0.2691 -0.5241  0.5775
  114SAPE   H4X11954   1.272   6.460   2.971 -0.6992 -2.6979 -2.2005
  114SAPE   H4Y11955   1.451   6.464   2.990  0.2237 -0.4941 -1.6626
  114SAPE   C3511956   1.334   6.325   3.122  0.2905 -0.4876 -0.5275
  114SAPE   H5X11957   1.414   6.255   3.154 -0.0350 -0.4875  0.3142
  114SAPE   H5Y11958   1.241   6.266   3.116  0.5368 -1.0130  0.5907
  114SAPE   C3611959   1.311   6.412   3.241  0.8247 -0.3035  0.2178
  114SAPE   H6X11960   1.213   6.461   3.218  1.3920  1.0001  0.4723
  114SAPE   H6Y11961   1.387   6.493   3.240  0.7851 -0.2172  1.5314
  114SAPE   C3711962   1.307   6.327   3.369  0.5994 -0.2456  0.1780
  114SAPE   H7X11963   1.402   6.274   3.393 -0.2998 -1.6753  0.7734
  114SAPE   H7Y11964   1.234   6.244   3.351  2.0788 -2.3167  2.8377
  114SAPE   C3811965   1.256   6.404   3.492 -0.4057 -0.0002  0.3039
  114SAPE   H8X11966   1.230   6.326   3.568  3.2000 -0.4733  1.2148
  114SAPE   H8Y11967   1.162   6.455   3.461  0.3080  0.3547 -1.3163
  114SAPE   C3911968   1.372   6.487   3.550  0.0324 -0.7023 -0.4353
  114SAPE   H9X11969   1.430   6.541   3.472  0.9439 -1.5699 -0.3663
  114SAPE   H9Y11970   1.444   6.415   3.595 -0.3460 -2.7113 -2.8560
  114SAPE  C31011971   1.334   6.600   3.645 -0.1879  0.2704 -0.4675
  114SAPE  H10X11972   1.259   6.671   3.602 -0.8435 -1.1604 -1.7883
  114SAPE  H10Y11973   1.420   6.666   3.672  0.8622 -0.1342 -2.6021
  114SAPE  C31111974   1.276   6.545   3.779 -0.3537  0.3023  0.1535
  114SAPE  H11X11975   1.347   6.474   3.826  1.0335  0.1149 -2.0792
  114SAPE  H11Y11976   1.189   6.483   3.750  0.7630 -0.8975 -0.7345
  114SAPE  C31211977   1.243   6.663   3.871  0.9405 -0.3728  0.5124
  114SAPE  H12X11978   1.160   6.729   3.837  1.8446  1.3171  1.4350
  114SAPE  H12Y11979   1.333   6.729   3.882  1.3681 -1.1173  1.6757
  114SAPE  C31311980   1.205   6.606   4.009  1.0868 -0.5196  0.3882
  114SAPE  H13X11981   1.285   6.537   4.045  2.5768  2.0607  2.3972
  114SAPE  H13Y11982   1.113   6.546   3.996  0.2692  1.0762 -1.6724
  114SAPE  C31411983   1.169   6.721   4.114 -0.2756 -0.4407  1.2364
  114SAPE  H14X11984   1.103   6.787   4.054  1.9504  1.5819  0.8692
  114SAPE  H14Y11985   1.258   6.786   4.128  0.6992 -1.4261 -0.1347
  114SAPE  C31511986   1.110   6.671   4.251 -0.4051 -0.6880  0.5665
  114SAPE  H15X11987   1.191   6.608   4.294  0.1736  0.0057  0.5157
  114SAPE  H15Y11988   1.024   6.604   4.229 -0.8490 -0.1616  0.6806
  114SAPE  C31611989   1.077   6.788   4.340 -0.7197  0.6987 -0.0753
  114SAPE  H16X11990   1.016   6.859   4.280 -2.7822 -0.4874  0.5106
  114SAPE  H16Y11991   1.175   6.837   4.359 -0.8794  1.2066 -0.5429
  114SAPE  C31711992   1.012   6.761   4.474 -0.1042 -0.5648 -0.2515
  114SAPE  H17X11993   1.080   6.703   4.540  1.8466 -1.4476 -2.8339
  114SAPE  H17Y11994   0.921   6.703   4.449 -1.0230  0.5007  0.5432
  114SAPE  C31811995   0.983   6.891   4.541  0.5960 -0.1265 -0.5140
  114SAPE  H18X11996   0.987   6.886   4.652 -0.2439  0.8442 -0.4305
  114SAPE  H18Y11997   0.879   6.922   4.518  0.0555 -1.7137 -0.3292
  114SAPE  H18Z11998   1.060   6.970   4.533  1.8217 -0.8876  2.3958
  115SAPE     N11999   6.006   0.362   2.429  1.1903  0.0787 -0.6439
  115SAPE   HN112000   5.921   0.308   2.455  2.4847 -0.9102  1.8004
  115SAPE   HN212001   6.069   0.368   2.511  0.7591  1.3151 -0.3689
  115SAPE   HN312002   5.974   0.459   2.407  2.0507  0.9720  1.6902
  115SAPE   C1212003   6.076   0.283   2.319 -0.5225  0.3562  0.7091
  115SAPE  H12A12004   6.013   0.291   2.228 -0.4184  0.5735  0.6548
  115SAPE  H12B12005   6.078   0.177   2.354 -2.0147 -0.4689 -1.5105
  115SAPE   C1112006   6.219   0.346   2.300  0.0462  0.2402 -1.0854
  115SAPE  H11A12007   6.205   0.452   2.270  1.8706  0.3867 -1.5490
  115SAPE  H11B12008   6.274   0.292   2.219 -1.5635 -2.2984 -0.6231
  115SAPE     P12009   6.421   0.393   2.431 -0.2301  0.2493 -0.1389
  115SAPE   O1312010   6.476   0.348   2.560 -0.4268 -0.5573 -0.2110
  115SAPE   O1412011   6.499   0.363   2.314  0.3304  0.2570  0.4631
  115SAPE   O1212012   6.286   0.339   2.426  0.1738 -0.6102  0.1189
  115SAPE   O1112013   6.385   0.549   2.437 -0.7527 -0.2005 -0.5277
  115SAPE    C112014   6.302   0.612   2.531  0.5525  0.1529 -0.6996
  115SAPE    HA12015   6.251   0.698   2.482 -1.3567 -0.3320  0.3372
  115SAPE    HB12016   6.229   0.537   2.569  2.0016 -0.2291  1.4893
  115SAPE    C212017   6.376   0.660   2.657 -0.1380 -0.1352 -0.4131
  115SAPE    HS12018   6.407   0.566   2.707 -1.4997 -0.1114  0.5327
  115SAPE   O2112019   6.292   0.742   2.737  0.3826  0.3952  0.5446
  115SAPE   C2112020   6.210   0.680   2.813 -0.2080 -0.2807 -0.0636
  115SAPE   O2212021   6.182   0.561   2.810  0.2754 -0.6111 -0.4919
  115SAPE   C2212022   6.138   0.792   2.903  0.5059  0.5741  0.2936
  115SAPE   H2R12023   6.185   0.890   2.883  1.9777 -0.0212  0.7488
  115SAPE   H2S12024   6.028   0.799   2.886  0.8014  1.5591 -1.4741
  115SAPE    C312025   6.507   0.738   2.618  0.0411  0.0947 -0.6013
  115SAPE    HX12026   6.470   0.820   2.553 -0.0408  0.7296  0.2314
  115SAPE    HY12027   6.572   0.670   2.559 -2.1127 -1.7767 -0.9221
  115SAPE   O3112028   6.576   0.788   2.734 -0.3892 -0.5461 -0.0502
  115SAPE   C3112029   6.650   0.699   2.805 -0.6529 -0.6250 -0.8099
  115SAPE   O3212030   6.651   0.582   2.792  0.4988 -0.2295  0.2870
  115SAPE   C3212031   6.730   0.778   2.908 -0.1572  0.0965 -0.2678
  115SAPE   H2X12032   6.719   0.888   2.896  1.5049  0.4671  1.1793
  115SAPE   H2Y12033   6.833   0.742   2.890 -0.9054 -1.8532 -0.9356
  115SAPE   C2312034   6.155   0.752   3.051 -0.5052  0.2330  0.0200
  115SAPE   H3R12035   6.259   0.733   3.082 -1.1571  0.0751  2.2644
  115SAPE   H3S12036   6.103   0.660   3.086  0.7666 -0.0508  1.2630
  115SAPE   C2412037   6.118   0.861   3.154  0.7171 -0.4193 -0.3289
  115SAPE   H4R12038   6.008   0.875   3.146  0.9195  0.7268 -1.4769
  115SAPE   H4S12039   6.155   0.959   3.119  1.6272 -0.1023  1.4375
  115SAPE   C2512040   6.154   0.830   3.296  0.2641  0.1998 -0.3456
  115SAPE   H5R12041   6.241   0.763   3.301  1.5011  1.7687  0.0417
  115SAPE   C2612042   6.093   0.868   3.405  0.1926 -0.0709 -0.2548
  115SAPE   H6R12043   6.131   0.834   3.502 -1.3629 -1.3339 -0.0575
  115SAPE   C2712044   5.972   0.965   3.412  0.0080 -0.2717  0.0607
  115SAPE   H7R12045   5.879   0.907   3.395 -1.2311  1.6456 -0.0809
  115SAPE   H7S12046   5.985   1.039   3.329 -1.9443  1.0127  0.8193
  115SAPE   C2812047   5.965   1.023   3.554  0.2420  0.2952 -0.3335
  115SAPE   H8R12048   6.059   1.066   3.590  0.3304 -0.8662  0.9180
  115SAPE   C2912049   5.874   1.015   3.646  0.3303  0.0251 -0.4385
  115SAPE   H9R12050   5.897   1.054   3.746 -0.4185  0.2108 -0.3356
  115SAPE  C21012051   5.743   0.932   3.636  0.2064  0.8497 -0.9925
  115SAPE  H10R12052   5.714   0.908   3.531 -0.5090 -0.1696 -0.5807
  115SAPE  H10S12053   5.650   0.984   3.669 -0.2601 -0.3375 -0.3820
  115SAPE  C21112054   5.770   0.805   3.710 -0.5651 -0.6777  0.0904
  115SAPE  H11R12055   5.813   0.721   3.654 -1.9039 -0.7919 -0.7959
  115SAPE  C21212056   5.737   0.779   3.838 -0.4405  0.3240  0.2507
  115SAPE  H12R12057   5.776   0.689   3.888  0.1761  1.7822  2.5365
  115SAPE  C21312058   5.685   0.881   3.933 -0.7168  0.4688 -0.4330
  115SAPE  H13R12059   5.576   0.900   3.918 -0.9084  0.6778  1.0758
  115SAPE  H13S12060   5.730   0.979   3.907  0.8231  0.2734  1.3563
  115SAPE  C21412061   5.712   0.859   4.079  0.6547 -0.9489  0.7261
  115SAPE  H14R12062   5.805   0.910   4.108 -0.8185  1.7687  0.9539
  115SAPE  C21512063   5.654   0.771   4.169  0.2951 -0.4336  0.0021
  115SAPE  H15R12064   5.686   0.770   4.274  0.1441 -0.5968  0.0469
  115SAPE  C21612065   5.544   0.678   4.131  0.0868  0.2633 -0.8526
  115SAPE  H16R12066   5.493   0.717   4.041 -0.8505  0.7634 -0.1251
  115SAPE  H16S12067   5.466   0.671   4.210 -0.2938 -1.4416 -1.3591
  115SAPE  C21712068   5.601   0.537   4.106  0.2783 -0.1147  0.0841
  115SAPE  H17R12069   5.678   0.536   4.026  0.7494  0.2975  0.5212
  115SAPE  H17S12070   5.519   0.482   4.056  1.1816 -0.2445 -1.2920
  115SAPE  C21812071   5.653   0.463   4.226 -0.2737 -0.3940  0.2895
  115SAPE  H18R12072   5.667   0.549   4.294  0.0242  1.3443 -1.8528
  115SAPE  H18S12073   5.749   0.422   4.188 -0.3415  0.2312 -0.6018
  115SAPE  C21912074   5.570   0.351   4.281  0.1847 -0.6047  0.0141
  115SAPE  H19R12075   5.565   0.262   4.214 -0.9689 -0.3041 -0.3375
  115SAPE  H19S12076   5.467   0.391   4.298 -0.2807 -1.2551 -1.1390
  115SAPE  C22012077   5.621   0.287   4.413  0.4865  0.1299  0.1498
  115SAPE  H20R12078   5.730   0.269   4.404  0.1101 -1.9439 -0.8455
  115SAPE  H20S12079   5.566   0.201   4.456  4.0467 -1.2578  2.3786
  115SAPE  H20T12080   5.604   0.358   4.497 -0.9994  0.9529 -0.7983
  115SAPE   C3312081   6.687   0.735   3.054 -0.3014 -0.1264  0.0645
  115SAPE   H3X12082   6.764   0.774   3.124 -0.7277 -1.1580  1.1529
  115SAPE   H3Y12083   6.687   0.623   3.054 -0.1249 -0.1301  1.1420
  115SAPE   C3412084   6.532   0.775   3.075 -0.1733 -0.1583 -0.0593
  115SAPE   H4X12085   6.467   0.685   3.073 -2.1159  1.1833 -0.7460
  115SAPE   H4Y12086   6.497   0.828   2.984 -0.1345 -0.7106 -0.4045
  115SAPE   C3512087   6.520   0.862   3.200 -0.5719  0.3920 -0.4067
  115SAPE   H5X12088   6.419   0.907   3.190 -0.1975  1.1533 -0.8156
  115SAPE   H5Y12089   6.591   0.946   3.184  0.0322  0.0391  0.3271
  115SAPE   C3612090   6.542   0.782   3.331  0.4756  0.9858  0.9966
  115SAPE   H6X12091   6.649   0.759   3.347  0.3641 -1.2624 -0.9850
  115SAPE   H6Y12092   6.492   0.683   3.333 -1.6145  1.9376 -0.4088
  115SAPE   C3712093   6.481   0.850   3.445  0.6682 -0.6812  0.3385
  115SAPE   H7X12094   6.370   0.853   3.435  0.8651  2.5373 -2.7772
  115SAPE   H7Y12095   6.517   0.955   3.448  2.0036 -1.1498  1.9378
  115SAPE   C3812096   6.532   0.795   3.570  0.0963  0.5262 -0.3665
  115SAPE   H8X12097   6.642   0.807   3.567  0.1886 -0.2050 -0.2441
  115SAPE   H8Y12098   6.519   0.684   3.574 -2.2994  0.7793  1.2112
  115SAPE   C3912099   6.477   0.856   3.701  0.3105  0.2865 -0.3622
  115SAPE   H9X12100   6.499   0.965   3.708 -0.6346  0.4446  0.4446
  115SAPE   H9Y12101   6.518   0.792   3.782 -2.1836 -2.6147 -1.2356
  115SAPE  C31012102   6.328   0.836   3.711  0.2717 -0.2146 -0.4292
  115SAPE  H10X12103   6.300   0.733   3.681 -1.0986  0.6365 -2.2729
  115SAPE  H10Y12104   6.284   0.905   3.636 -0.6893 -0.4705 -0.1120
  115SAPE  C31112105   6.253   0.862   3.845 -0.2186  0.3455  0.3455
  115SAPE  H11X12106   6.297   0.801   3.927 -0.3958 -1.9190 -1.1672
  115SAPE  H11Y12107   6.144   0.837   3.841 -0.5321  1.1776  2.3046
  115SAPE  C31212108   6.259   1.018   3.880  0.5622  0.2860  0.2370
  115SAPE  H12X12109   6.188   1.064   3.807  1.0839 -0.8960 -1.0656
  115SAPE  H12Y12110   6.355   1.074   3.879  0.1269  1.0496 -0.4077
  115SAPE  C31312111   6.216   1.040   4.025 -0.7838 -0.5907 -0.4081
  115SAPE  H13X12112   6.279   0.984   4.098  1.6442  2.1851 -0.1820
  115SAPE  H13Y12113   6.115   0.998   4.043 -1.4767  1.1131 -0.1261
  115SAPE  C31412114   6.207   1.194   4.049  0.2208 -0.1567 -1.0974
  115SAPE  H14X12115   6.157   1.236   3.959 -0.7152 -0.2306 -0.6184
  115SAPE  H14Y12116   6.309   1.238   4.055  0.1041  0.0233 -0.2699
  115SAPE  C31512117   6.125   1.234   4.176 -0.3531 -0.5666 -0.0038
  115SAPE  H15X12118   6.024   1.188   4.189 -1.0907  1.1164  0.4862
  115SAPE  H15Y12119   6.108   1.343   4.169 -0.3689 -0.5777 -0.1577
  115SAPE  C31612120   6.200   1.189   4.300 -0.1406 -0.3299 -0.4837
  115SAPE  H16X12121   6.307   1.217   4.281  0.3078 -1.6665 -0.0057
  115SAPE  H16Y12122   6.198   1.079   4.314  0.9655 -0.3730 -0.5399
  115SAPE  C31712123   6.175   1.264   4.427 -0.5402 -0.0518 -0.5891
  115SAPE  H17X12124   6.240   1.215   4.504  0.7159  0.8060 -1.0669
  115SAPE  H17Y12125   6.073   1.250   4.469  0.2627 -2.4001  0.8000
  115SAPE  C31812126   6.209   1.415   4.419  0.1552  0.3240 -0.0149
  115SAPE  H18X12127   6.319   1.422   4.399  0.8034 -0.0275  2.9541
  115SAPE  H18Y12128   6.179   1.449   4.520 -3.1664  1.8036 -1.3733
  115SAPE  H18Z12129   6.141   1.470   4.351  1.2411  0.9349 -0.6365
  116SAPE     N12130   5.877   1.910   2.194 -0.4782 -0.0600 -0.2327
  116SAPE   HN112131   5.929   1.855   2.266  1.2698  0.4102 -1.0866
  116SAPE   HN212132   5.880   1.852   2.109  0.5612  0.9544 -0.9169
  116SAPE   HN312133   5.937   1.991   2.169  0.7718 -1.0791 -0.6292
  116SAPE   C1212134   5.743   1.966   2.228 -0.2366  0.1435 -0.2574
  116SAPE  H12A12135   5.754   2.017   2.326  1.4006  0.1008 -0.3966
  116SAPE  H12B12136   5.666   1.886   2.236  1.0282 -1.2733 -1.5440
  116SAPE   C1112137   5.688   2.071   2.124  0.3500 -0.3377 -0.0795
  116SAPE  H11A12138   5.599   2.121   2.169 -0.7129 -1.7345 -0.5288
  116SAPE  H11B12139   5.655   2.005   2.040  0.4458 -2.2884  1.3470
  116SAPE     P12140   5.818   2.287   2.166 -0.0180 -0.6643  0.0937
  116SAPE   O1312141   5.963   2.312   2.158  0.2172 -0.6375  0.5792
  116SAPE   O1412142   5.728   2.400   2.119 -0.5345  0.1677 -1.0639
  116SAPE   O1212143   5.785   2.160   2.080  0.5525 -0.0624 -0.2839
  116SAPE   O1112144   5.779   2.247   2.316  0.1894 -0.4111  0.6466
  116SAPE    C112145   5.819   2.320   2.434  0.3500  0.3347 -0.1098
  116SAPE    HA12146   5.850   2.248   2.512 -1.4554  3.1460  3.4617
  116SAPE    HB12147   5.899   2.396   2.418  3.0230 -2.6106 -2.1615
  116SAPE    C212148   5.699   2.394   2.505 -0.0068 -0.0051  0.1837
  116SAPE    HS12149   5.646   2.468   2.441 -0.5873 -0.9230 -0.4261
  116SAPE   O2112150   5.748   2.453   2.626 -0.5375 -0.5547 -0.3446
  116SAPE   C2112151   5.680   2.546   2.688  0.2210  0.8986  1.1697
  116SAPE   O2212152   5.579   2.592   2.643 -0.1418 -0.4057  0.7512
  116SAPE   C2212153   5.733   2.592   2.817  0.2906  0.5412 -0.1527
  116SAPE   H2R12154   5.832   2.544   2.834 -1.6929 -3.5045  1.3223
  116SAPE   H2S12155   5.736   2.703   2.808 -2.0925  0.6189 -0.6045
  116SAPE    C312156   5.589   2.289   2.529  0.6835  0.1585 -0.2842
  116SAPE    HX12157   5.554   2.259   2.428 -0.1552  0.9314 -0.2347
  116SAPE    HY12158   5.503   2.346   2.570  0.3758  1.7181 -2.8452
  116SAPE   O3112159   5.631   2.181   2.619 -0.3966 -0.4252 -0.9754
  116SAPE   C3112160   5.604   2.055   2.585 -0.1971  0.3082 -0.2309
  116SAPE   O3212161   5.550   2.017   2.480  0.1887  0.0921  0.1690
  116SAPE   C3212162   5.655   1.944   2.686  0.6361 -0.0978 -0.5124
  116SAPE   H2X12163   5.614   1.846   2.651  1.1642 -0.9206  1.0856
  116SAPE   H2Y12164   5.612   1.964   2.787  4.2577 -1.1520  1.4000
  116SAPE   C2312165   5.648   2.551   2.940 -0.4122  0.0322  0.5006
  116SAPE   H3R12166   5.664   2.442   2.953  1.6036  0.1513 -0.5533
  116SAPE   H3S12167   5.538   2.569   2.932 -0.4233  0.4989  1.5295
  116SAPE   C2412168   5.701   2.621   3.062  0.2879  0.5842  0.5185
  116SAPE   H4R12169   5.811   2.636   3.056  0.4227 -0.0233  1.3474
  116SAPE   H4S12170   5.691   2.562   3.156  0.7303 -1.3963 -0.6318
  116SAPE   C2512171   5.645   2.763   3.072  0.1789 -0.3685  0.2309
  116SAPE   H5R12172   5.644   2.828   2.983  1.0824  0.1881  0.6067
  116SAPE   C2612173   5.627   2.811   3.192 -0.0622  0.4781 -0.2728
  116SAPE   H6R12174   5.576   2.909   3.200 -3.4695 -1.2708  3.7864
  116SAPE   C2712175   5.637   2.761   3.332 -0.5547 -0.0654  0.1319
  116SAPE   H7R12176   5.646   2.651   3.341  1.9027 -0.2753 -3.0833
  116SAPE   H7S12177   5.545   2.796   3.383 -0.0468  0.4581  0.7128
  116SAPE   C2812178   5.760   2.826   3.388 -0.2498 -0.3407 -0.4721
  116SAPE   H8R12179   5.847   2.831   3.322 -0.4523 -2.6573 -0.9997
  116SAPE   C2912180   5.783   2.825   3.523 -0.3060 -0.3525 -0.5630
  116SAPE   H9R12181   5.881   2.864   3.555 -0.7588  2.5101 -2.3025
  116SAPE  C21012182   5.704   2.775   3.642  0.3174 -0.3236  0.2677
  116SAPE  H10R12183   5.713   2.666   3.660  1.3696 -0.1770  0.6829
  116SAPE  H10S12184   5.595   2.796   3.634  0.0548 -1.7596 -0.1617
  116SAPE  C21112185   5.739   2.842   3.767  0.4709  0.6424 -0.5931
  116SAPE  H11R12186   5.734   2.952   3.760  1.5684  0.7100 -0.5564
  116SAPE  C21212187   5.782   2.799   3.887  0.1825 -0.4263 -0.7169
  116SAPE  H12R12188   5.783   2.864   3.975 -0.5747  0.9840 -1.7123
  116SAPE  C21312189   5.815   2.656   3.928  0.1489  0.1551 -0.0050
  116SAPE  H13R12190   5.925   2.649   3.944  0.0140  1.7407  2.2796
  116SAPE  H13S12191   5.798   2.584   3.846 -0.8777 -1.4496  1.5525
  116SAPE  C21412192   5.744   2.608   4.056  0.5183 -0.3252 -0.2420
  116SAPE  H14R12193   5.643   2.565   4.045  0.6382 -0.7951  0.4390
  116SAPE  C21512194   5.790   2.620   4.180 -0.6526  0.1901  0.2517
  116SAPE  H15R12195   5.723   2.582   4.258 -1.1824 -0.5636 -0.5542
  116SAPE  C21612196   5.921   2.667   4.240 -0.3027 -0.1843  0.0258
  116SAPE  H16R12197   5.976   2.716   4.157  0.3246 -0.8815  0.0248
  116SAPE  H16S12198   5.990   2.585   4.269 -2.1241 -2.0575 -0.7492
  116SAPE  C21712199   5.918   2.781   4.351  0.1282 -0.3642  0.1508
  116SAPE  H17R12200   5.849   2.745   4.431  0.5133  0.6906  0.9841
  116SAPE  H17S12201   5.853   2.851   4.295 -1.9325 -1.6648  0.7927
  116SAPE  C21812202   6.050   2.842   4.392  0.2418 -0.2547  0.1391
  116SAPE  H18R12203   6.028   2.912   4.476 -0.2987  0.4190 -0.5447
  116SAPE  H18S12204   6.104   2.900   4.314  0.4359  2.0359  1.8633
  116SAPE  C21912205   6.150   2.739   4.449 -0.1350  0.4821  0.1574
  116SAPE  H19R12206   6.209   2.702   4.362 -3.7145  0.2480 -2.4164
  116SAPE  H19S12207   6.100   2.650   4.494 -1.0627  0.7790 -0.2500
  116SAPE  C22012208   6.243   2.790   4.559 -0.2766  0.0265 -0.1659
  116SAPE  H20R12209   6.190   2.828   4.649 -1.1273  1.2965 -1.1647
  116SAPE  H20S12210   6.312   2.874   4.534 -1.2526  1.4076  1.5184
  116SAPE  H20T12211   6.311   2.705   4.580 -0.3387  0.1505  0.5633
  116SAPE   C3312212   5.809   1.944   2.711  0.5814  0.2141 -0.0666
  116SAPE   H3X12213   5.849   2.048   2.719  0.8430  0.0616  0.7821
  116SAPE   H3Y12214   5.866   1.890   2.633  0.9392  0.2558  0.1651
  116SAPE   C3412215   5.843   1.874   2.839 -0.2420 -0.2121 -0.0858
  116SAPE   H4X12216   5.794   1.774   2.844 -0.5233 -0.0919 -0.4499
  116SAPE   H4Y12217   5.813   1.937   2.926 -2.5670  0.9144 -1.6158
  116SAPE   C3512218   5.991   1.843   2.869  0.1536  0.0543 -0.1465
  116SAPE   H5X12219   6.053   1.934   2.855 -0.0187  0.6607  2.4484
  116SAPE   H5Y12220   6.030   1.767   2.798  1.5902  1.1490 -0.5751
  116SAPE   C3612221   5.996   1.803   3.020 -0.2902 -0.0686 -0.0759
  116SAPE   H6X12222   5.928   1.718   3.039 -1.5276  0.3616 -2.1964
  116SAPE   H6Y12223   5.948   1.890   3.072 -0.6474  1.4673 -2.7901
  116SAPE   C3712224   6.137   1.797   3.071 -0.1495 -0.3391 -0.2292
  116SAPE   H7X12225   6.178   1.899   3.089  0.6510 -0.8102  0.7697
  116SAPE   H7Y12226   6.201   1.742   2.998  1.1662 -0.9408  1.3188
  116SAPE   C3812227   6.153   1.727   3.207  0.2545  0.8040  0.3896
  116SAPE   H8X12228   6.262   1.732   3.229  0.2683  1.9469  0.0862
  116SAPE   H8Y12229   6.118   1.622   3.191  0.3975  0.9480 -1.0404
  116SAPE   C3912230   6.077   1.776   3.331 -0.0304  0.0154  0.2001
  116SAPE   H9X12231   5.970   1.746   3.324  0.0152 -0.2895  0.7725
  116SAPE   H9Y12232   6.077   1.887   3.329 -3.0598  0.0845 -1.0154
  116SAPE  C31012233   6.147   1.716   3.460 -0.0798  0.6130  0.2876
  116SAPE  H10X12234   6.251   1.752   3.470  0.2850 -0.7094  1.4986
  116SAPE  H10Y12235   6.159   1.608   3.439  0.1335  0.9496 -1.5092
  116SAPE  C31112236   6.062   1.744   3.587  0.3670  0.4891  0.3805
  116SAPE  H11X12237   5.956   1.712   3.581  0.6478 -0.2033 -2.2826
  116SAPE  H11Y12238   6.058   1.854   3.598  0.4319  0.5086  0.2128
  116SAPE  C31212239   6.135   1.681   3.703 -0.3148  0.8334  0.2803
  116SAPE  H12X12240   6.241   1.715   3.701  0.0933 -0.3772  0.4505
  116SAPE  H12Y12241   6.138   1.570   3.698 -0.0343  0.8499  0.0715
  116SAPE  C31312242   6.067   1.719   3.836  0.5196  0.5756 -0.0433
  116SAPE  H13X12243   5.966   1.675   3.832 -0.1319  1.8062  1.7303
  116SAPE  H13Y12244   6.044   1.828   3.838 -0.8982  0.4739 -3.4333
  116SAPE  C31412245   6.150   1.667   3.946  0.1803  0.0482  0.6416
  116SAPE  H14X12246   6.260   1.680   3.938  0.3841 -0.2752  2.4897
  116SAPE  H14Y12247   6.141   1.556   3.941 -0.7147  0.0216  2.1573
  116SAPE  C31512248   6.126   1.712   4.096  0.1980 -0.1790 -0.2517
  116SAPE  H15X12249   6.217   1.669   4.143  0.0849  0.2845  0.3987
  116SAPE  H15Y12250   6.034   1.660   4.129 -0.9186  1.9999  0.2474
  116SAPE  C31612251   6.103   1.867   4.124  0.2024 -0.2534  0.8627
  116SAPE  H16X12252   5.999   1.889   4.090  0.5535  1.5989  0.8674
  116SAPE  H16Y12253   6.178   1.919   4.061  1.8070  0.3310  3.1328
  116SAPE  C31712254   6.100   1.924   4.260  0.2344  0.8024 -0.4470
  116SAPE  H17X12255   6.027   2.007   4.277  0.5561  1.5602 -2.4893
  116SAPE  H17Y12256   6.202   1.953   4.293  1.0096 -1.4456 -0.7239
  116SAPE  C31812257   6.064   1.830   4.371  0.6102 -0.5190 -0.3730
  116SAPE  H18X12258   6.121   1.848   4.466  0.3730  0.5434 -0.4166
  116SAPE  H18Y12259   6.067   1.721   4.349  0.3603 -0.6062  0.0025
  116SAPE  H18Z12260   5.963   1.862   4.405  1.1082 -0.5323  1.2104
  117SOPE     N12261   3.648   2.174   6.565 -0.2465  0.8482  0.4527
  117SOPE   HN112262   3.626   2.115   6.482  0.9804 -0.7793  1.2402
  117SOPE   HN212263   3.749   2.162   6.587  0.5824  2.3626 -2.0490
  117SOPE   HN312264   3.599   2.143   6.651  1.0885  2.4408  1.8499
  117SOPE   C1212265   3.637   2.324   6.537 -0.2205  0.2168  0.5238
  117SOPE  H12A12266   3.529   2.350   6.532 -0.2786 -0.2228 -1.2681
  117SOPE  H12B12267   3.688   2.350   6.442 -1.1911 -0.4138 -0.1916
  117SOPE   C1112268   3.702   2.397   6.655 -0.2507 -0.2020  0.9983
  117SOPE  H11A12269   3.663   2.355   6.751  0.7404  1.9699  2.4306
  117SOPE  H11B12270   3.683   2.506   6.645 -0.3986 -0.3882 -1.0444
  117SOPE     P12271   3.953   2.487   6.639  0.2349 -0.3328  0.1549
  117SOPE   O1312272   4.089   2.428   6.653  0.5692 -0.3002  0.2971
  117SOPE   O1412273   3.926   2.604   6.727 -0.1253  0.0364 -0.2000
  117SOPE   O1212274   3.843   2.378   6.658 -0.0416 -0.4629 -0.1412
  117SOPE   O1112275   3.927   2.542   6.486 -0.3128  0.1396 -0.0175
  117SOPE    C112276   3.971   2.451   6.388  0.1413 -0.0279 -0.1757
  117SOPE    HA12277   3.934   2.347   6.402  0.0222  0.1723  1.1346
  117SOPE    HB12278   4.082   2.446   6.388  0.1603 -1.4003 -2.8779
  117SOPE    C212279   3.918   2.506   6.253  0.7143 -0.3519 -0.6136
  117SOPE    HS12280   3.963   2.607   6.236 -0.3173  0.2851  0.3332
  117SOPE   O2112281   3.770   2.508   6.260  0.4357  0.7072  0.1279
  117SOPE   C2112282   3.711   2.605   6.197  0.1489 -0.8526  0.2437
  117SOPE   O2212283   3.763   2.713   6.162 -0.2634  0.0497  0.0997
  117SOPE   C2212284   3.566   2.560   6.170  0.7251  0.0427  0.0679
  117SOPE   H2R12285   3.527   2.530   6.270 -2.0052 -3.0023 -1.7170
  117SOPE   H2S12286   3.584   2.472   6.105  0.4423 -0.2116  0.3286
  117SOPE    C312287   3.968   2.406   6.151  0.5511  0.2276  0.2529
  117SOPE    HX12288   3.912   2.310   6.153 -1.1388  1.1627  2.1710
  117SOPE    HY12289   4.072   2.387   6.184  0.0594 -0.7363  1.3191
  117SOPE   O3112290   3.973   2.468   6.016  0.4624 -0.8660  0.1534
  117SOPE   C3112291   3.873   2.437   5.928  0.6160 -0.4300  0.3119
  117SOPE   O3212292   3.767   2.377   5.956  0.0428  0.4938  0.2142
  117SOPE   C3212293   3.918   2.480   5.787  1.0234  0.1445 -0.4453
  117SOPE   H2X12294   3.994   2.404   5.757  0.9044 -0.3049  0.3480
  117SOPE   H2Y12295   3.976   2.575   5.790  0.7767  0.3593 -1.8123
  117SOPE   C2312296   3.472   2.663   6.099 -1.1316  0.0058 -0.4847
  117SOPE   H3R12297   3.486   2.756   6.159  0.2585 -1.8163  2.1974
  117SOPE   H3S12298   3.364   2.638   6.090 -0.5473 -2.8643 -0.3344
  117SOPE   C2412299   3.520   2.681   5.959 -0.1397  0.0388 -0.1970
  117SOPE   H4R12300   3.620   2.730   5.957 -0.5744  0.9360 -0.2949
  117SOPE   H4S12301   3.527   2.585   5.903  0.9298  1.6494 -3.0092
  117SOPE   C2512302   3.425   2.775   5.883 -0.6086  0.6665  0.9046
  117SOPE   H5R12303   3.321   2.736   5.877 -0.4975  0.5898 -1.9467
  117SOPE   H5S12304   3.413   2.876   5.928 -2.2945  0.5576  0.7754
  117SOPE   C2612305   3.486   2.787   5.742 -0.1061 -0.6011  0.5627
  117SOPE   H6R12306   3.591   2.824   5.747 -0.3635  0.5487 -1.3455
  117SOPE   H6S12307   3.482   2.684   5.701  0.7460 -0.5742  0.3991
  117SOPE   C2712308   3.409   2.890   5.654  0.5151 -0.4330  0.1472
  117SOPE   H7R12309   3.301   2.881   5.677  0.4694 -0.9349 -0.2435
  117SOPE   H7S12310   3.432   2.993   5.688 -0.5039  0.0345 -0.5485
  117SOPE   C2812311   3.418   2.867   5.500  0.5913  0.6895 -0.4758
  117SOPE   H8R12312   3.366   2.769   5.486  0.6774  0.3191  1.4709
  117SOPE   H8S12313   3.351   2.938   5.448  1.0571  1.3800 -0.1389
  117SOPE   C2912314   3.553   2.879   5.440 -0.8053  0.0485 -0.0771
  117SOPE   H9112315   3.622   2.799   5.470  3.1397  2.9286 -0.6161
  117SOPE  C21012316   3.584   2.947   5.329 -1.2948  0.2421 -0.9765
  117SOPE  H10112317   3.688   2.935   5.297 -0.7183  0.5632  0.7126
  117SOPE  C21112318   3.491   3.039   5.252 -0.5945  0.2436  0.6496
  117SOPE  H11R12319   3.505   3.146   5.280 -1.7011  0.4353  0.5050
  117SOPE  H11S12320   3.384   3.018   5.273 -0.7731  0.0112 -0.4262
  117SOPE  C21212321   3.507   3.014   5.098  1.0292 -0.2144  0.3194
  117SOPE  H12R12322   3.479   2.909   5.074  3.0202 -0.4037 -1.5432
  117SOPE  H12S12323   3.615   3.013   5.070  0.8382 -2.6559 -0.5278
  117SOPE  C21312324   3.424   3.123   5.020  0.1215 -0.0180 -0.7042
  117SOPE  H13R12325   3.450   3.225   5.056  1.4837  0.1856 -2.1589
  117SOPE  H13S12326   3.316   3.112   5.041  0.3493 -0.1532  0.4306
  117SOPE  C21412327   3.437   3.114   4.862  0.2698 -0.3597 -0.3943
  117SOPE  H14R12328   3.546   3.131   4.847  0.4051 -0.0852  0.8510
  117SOPE  H14S12329   3.381   3.198   4.816  2.8242  1.0926 -1.0282
  117SOPE  C21512330   3.393   2.981   4.794  0.5857  0.5711 -0.6695
  117SOPE  H15R12331   3.282   2.970   4.790  0.6115 -0.8483  1.2234
  117SOPE  H15S12332   3.432   2.892   4.848 -0.6822 -0.8716 -2.0353
  117SOPE  C21612333   3.424   2.981   4.647  0.3326  0.3099  0.0236
  117SOPE  H16R12334   3.379   2.888   4.606  0.1990  0.6365 -0.5826
  117SOPE  H16S12335   3.535   2.975   4.636  0.6434 -0.6772  2.9559
  117SOPE  C21712336   3.370   3.102   4.570 -0.0108  0.3552  0.0478
  117SOPE  H17R12337   3.428   3.195   4.585  0.5318 -0.0708  0.6614
  117SOPE  H17S12338   3.268   3.122   4.609  0.6997 -0.5767  2.5380
  117SOPE  C21812339   3.352   3.085   4.414  0.1186  0.9652  0.5613
  117SOPE  H18R12340   3.450   3.055   4.371 -0.5566 -0.1344 -0.2478
  117SOPE  H18S12341   3.315   3.177   4.363 -2.5316 -0.3368 -0.0355
  117SOPE  H18T12342   3.275   3.009   4.393 -0.4486  0.6699  3.3491
  117SOPE   C3312343   3.800   2.482   5.687 -0.2269 -0.4014  0.0699
  117SOPE   H3X12344   3.708   2.532   5.726 -0.5419 -1.2941  0.4914
  117SOPE   H3Y12345   3.776   2.376   5.665 -0.1762 -0.3075 -0.4497
  117SOPE   C3412346   3.840   2.556   5.560  0.1419 -0.0246  0.2499
  117SOPE   H4X12347   3.933   2.517   5.514  0.4283 -0.1925  0.9638
  117SOPE   H4Y12348   3.860   2.665   5.567 -2.1261  0.5574 -1.1516
  117SOPE   C3512349   3.727   2.534   5.453 -0.3382 -0.3826  0.1046
  117SOPE   H5X12350   3.636   2.572   5.503 -0.8908 -0.0152 -1.1362
  117SOPE   H5Y12351   3.707   2.426   5.438  1.0491 -0.3851 -2.2966
  117SOPE   C3612352   3.768   2.594   5.324  0.5873 -0.4991  0.0161
  117SOPE   H6X12353   3.830   2.679   5.360  1.6865 -0.2590 -2.2972
  117SOPE   H6Y12354   3.677   2.628   5.270  0.1576  0.4057  1.2415
  117SOPE   C3712355   3.825   2.510   5.214  0.2164 -0.3407 -0.1512
  117SOPE   H7X12356   3.761   2.419   5.217 -1.1864  0.6133  1.7431
  117SOPE   H7Y12357   3.928   2.476   5.238  1.1437  1.2353 -1.7079
  117SOPE   C3812358   3.810   2.569   5.078  0.2501 -0.6883  0.0672
  117SOPE   H8X12359   3.850   2.672   5.077  0.0273 -0.5928 -1.3846
  117SOPE   H8Y12360   3.702   2.577   5.054 -0.7215 -4.1979  2.4145
  117SOPE   C3912361   3.884   2.488   4.970  0.0970 -0.0273 -0.5316
  117SOPE   H9X12362   3.843   2.385   4.967 -1.1215  0.4116  0.2544
  117SOPE   H9Y12363   3.991   2.495   4.999  0.2215 -0.0107 -0.9922
  117SOPE  C31012364   3.874   2.551   4.830  0.0665 -0.0713 -0.2661
  117SOPE  H10X12365   3.915   2.654   4.817 -0.9167  0.2126 -1.1465
  117SOPE  H10Y12366   3.765   2.567   4.816  0.1789 -0.9349 -2.5386
  117SOPE  C31112367   3.928   2.466   4.715 -0.1792 -0.1448  0.4116
  117SOPE  H11X12368   3.919   2.513   4.614  2.8059  0.0613  0.1492
  117SOPE  H11Y12369   3.874   2.369   4.719  0.4862 -0.5372  0.0009
  117SOPE  C31212370   4.078   2.438   4.723  0.0582  0.7165 -0.0962
  117SOPE  H12X12371   4.104   2.390   4.820 -0.3869 -4.0369 -2.0572
  117SOPE  H12Y12372   4.136   2.533   4.725 -0.5481  1.0775  2.1920
  117SOPE  C31312373   4.135   2.351   4.609  0.6068 -0.7374  0.7226
  117SOPE  H13X12374   4.084   2.387   4.517 -2.6370 -1.3998  2.1051
  117SOPE  H13Y12375   4.126   2.240   4.614  2.4506 -0.8529  2.9279
  117SOPE  C31412376   4.286   2.382   4.581  0.2004 -0.0579 -0.5016
  117SOPE  H14X12377   4.313   2.303   4.507 -2.1995 -1.0857 -0.3748
  117SOPE  H14Y12378   4.332   2.366   4.680 -2.3184  0.4270  0.8311
  117SOPE  C31512379   4.329   2.525   4.533 -0.8343 -0.3286 -0.7038
  117SOPE  H15X12380   4.323   2.594   4.619  2.3131  0.2487 -0.8039
  117SOPE  H15Y12381   4.257   2.557   4.455 -0.5834  2.1214 -0.0124
  117SOPE  C31612382   4.471   2.537   4.478 -0.6229 -0.1302  0.1321
  117SOPE  H16X12383   4.474   2.482   4.381  1.7115  0.1125  0.0156
  117SOPE  H16Y12384   4.541   2.500   4.556  2.1377  1.3150 -1.4989
  117SOPE  C31712385   4.523   2.674   4.459 -0.7507 -0.5436 -0.0699
  117SOPE  H17X12386   4.444   2.721   4.397 -1.4072 -0.6907  0.6280
  117SOPE  H17Y12387   4.612   2.658   4.395  1.1002 -2.1480  2.7086
  117SOPE  C31812388   4.554   2.746   4.585 -0.3642  0.5949 -0.2216
  117SOPE  H18X12389   4.607   2.684   4.660 -1.8698  2.1587  2.3026
  117SOPE  H18Y12390   4.463   2.774   4.643  0.7974  0.1785  1.8932
  117SOPE  H18Z12391   4.619   2.836   4.577  0.3696  0.4130  2.5494
  118SOPE     N12392   4.326   4.654   6.627 -0.2002 -0.3326 -0.0203
  118SOPE   HN112393   4.292   4.745   6.663 -2.5477 -1.3948  0.6412
  118SOPE   HN212394   4.368   4.665   6.532 -0.9371 -0.4027 -0.3644
  118SOPE   HN312395   4.242   4.594   6.641  0.8420 -1.9099 -0.2145
  118SOPE   C1212396   4.426   4.606   6.736  0.0887 -0.1199  0.3456
  118SOPE  H12A12397   4.380   4.622   6.836 -1.1688  1.1242 -0.3981
  118SOPE  H12B12398   4.519   4.666   6.738  0.9010 -1.3044  3.5291
  118SOPE   C1112399   4.463   4.457   6.709 -0.7987  0.5550  0.7342
  118SOPE  H11A12400   4.516   4.409   6.794  0.0216 -0.2515 -0.2096
  118SOPE  H11B12401   4.529   4.445   6.620  1.7379  0.5500  2.5035
  118SOPE     P12402   4.331   4.248   6.617  0.0392 -0.4077  0.1510
  118SOPE   O1312403   4.187   4.208   6.632  0.1217 -0.6824 -0.6220
  118SOPE   O1412404   4.432   4.149   6.658  0.3634 -0.2480  0.1451
  118SOPE   O1212405   4.346   4.380   6.702 -0.3767 -0.8746 -0.0407
  118SOPE   O1112406   4.359   4.303   6.467 -0.2942  0.1398  0.3131
  118SOPE    C112407   4.250   4.332   6.377 -0.0849  0.5899 -0.1348
  118SOPE    HA12408   4.291   4.397   6.297  0.0639 -0.5726 -1.0380
  118SOPE    HB12409   4.171   4.396   6.421 -0.0101 -0.1733  1.1990
  118SOPE    C212410   4.196   4.209   6.295  0.1914  0.1949  0.0273
  118SOPE    HS12411   4.140   4.143   6.366  2.0139 -1.1151  0.3239
  118SOPE   O2112412   4.306   4.135   6.232  0.2928 -0.6964 -0.9062
  118SOPE   C2112413   4.317   4.006   6.267 -1.1645 -0.7102  0.2730
  118SOPE   O2212414   4.256   3.948   6.349  0.6962 -0.2323  0.1599
  118SOPE   C2212415   4.445   3.950   6.195 -0.6046  0.0587  0.1657
  118SOPE   H2R12416   4.426   3.841   6.187 -1.0242  0.1065  0.4666
  118SOPE   H2S12417   4.530   3.961   6.266 -0.0317 -2.3366 -0.0700
  118SOPE    C312418   4.087   4.245   6.191  0.4185 -0.0150 -0.4385
  118SOPE    HX12419   3.993   4.277   6.241  0.0500 -0.4939 -0.8232
  118SOPE    HY12420   4.062   4.148   6.143  0.0405 -0.7517  1.1745
  118SOPE   O3112421   4.123   4.346   6.104 -0.5560 -0.1477  0.9070
  118SOPE   C3112422   4.166   4.302   5.985  0.5277  0.2729  0.1573
  118SOPE   O3212423   4.170   4.184   5.949 -0.5455 -0.0857 -0.4670
  118SOPE   C3212424   4.228   4.423   5.917  0.0154  0.1259  0.7835
  118SOPE   H2X12425   4.282   4.491   5.987 -1.2639  1.3137  0.6478
  118SOPE   H2Y12426   4.147   4.477   5.864  0.5036  1.3424  1.2399
  118SOPE   C2312427   4.474   4.009   6.056 -0.0592 -1.1469  0.1791
  118SOPE   H3R12428   4.382   4.048   6.008  1.7211  1.5054 -1.3848
  118SOPE   H3S12429   4.517   3.927   5.994  0.4856 -0.2081 -0.7184
  118SOPE   C2412430   4.578   4.126   6.051 -0.4142  0.3300 -0.5566
  118SOPE   H4R12431   4.524   4.217   6.017 -1.2410 -1.1161 -3.4878
  118SOPE   H4S12432   4.617   4.149   6.152 -1.3327  0.2588 -0.1666
  118SOPE   C2512433   4.698   4.097   5.956 -0.3594 -0.6990 -0.0368
  118SOPE   H5R12434   4.787   4.160   5.981  0.0831 -1.3241 -0.0297
  118SOPE   H5S12435   4.736   3.994   5.972 -0.5386 -0.7307  0.1890
  118SOPE   C2612436   4.660   4.122   5.806  0.3502 -0.5798 -0.6851
  118SOPE   H6R12437   4.562   4.074   5.786  0.2250 -1.2934  1.4193
  118SOPE   H6S12438   4.646   4.231   5.796 -0.9362 -0.6553  0.1196
  118SOPE   C2712439   4.764   4.069   5.709  0.3057  0.0243 -0.6634
  118SOPE   H7R12440   4.856   4.122   5.741 -0.5871  0.6424  1.0206
  118SOPE   H7S12441   4.774   3.959   5.714 -0.8838 -0.0692 -0.0067
  118SOPE   C2812442   4.733   4.121   5.570  0.1382 -0.7207 -0.3441
  118SOPE   H8R12443   4.622   4.118   5.561 -0.0164 -1.5680  1.4376
  118SOPE   H8S12444   4.768   4.226   5.560 -1.1507 -0.2431 -0.0926
  118SOPE   C2912445   4.804   4.046   5.462 -0.1479 -0.5658  0.1028
  118SOPE   H9112446   4.907   4.069   5.434 -0.3140 -1.8766 -1.7628
  118SOPE  C21012447   4.754   3.951   5.385  0.1010  0.3148 -0.1061
  118SOPE  H10112448   4.814   3.935   5.293  2.5788  1.7483  1.1485
  118SOPE  C21112449   4.611   3.887   5.392 -0.0013  0.4098  0.7945
  118SOPE  H11R12450   4.559   3.893   5.490 -1.8213 -0.4121 -0.0754
  118SOPE  H11S12451   4.611   3.779   5.365  1.1961  0.8480 -1.1147
  118SOPE  C21212452   4.507   3.943   5.290  0.2162  0.2516  0.4001
  118SOPE  H12R12453   4.507   4.053   5.298 -0.6612  0.2618  0.3446
  118SOPE  H12S12454   4.416   3.882   5.311  2.3457 -3.0441  0.8316
  118SOPE  C21312455   4.557   3.900   5.145  0.3741  0.3175 -0.3976
  118SOPE  H13R12456   4.574   3.791   5.159  1.9740  0.8747  3.3700
  118SOPE  H13S12457   4.650   3.954   5.119  1.0863 -1.0513 -0.7690
  118SOPE  C21412458   4.450   3.929   5.040  0.1919  0.3048  0.0036
  118SOPE  H14R12459   4.470   4.027   4.991  2.0522 -0.1258 -0.2060
  118SOPE  H14S12460   4.352   3.930   5.091 -0.7752  0.1863 -1.7557
  118SOPE  C21512461   4.437   3.813   4.937  0.1832  0.3527  0.3177
  118SOPE  H15R12462   4.419   3.723   5.000 -1.2358  0.0789 -0.4256
  118SOPE  H15S12463   4.538   3.801   4.892  0.0287  1.4543 -0.3610
  118SOPE  C21612464   4.326   3.828   4.838  0.1771 -0.2431  0.6190
  118SOPE  H16R12465   4.334   3.927   4.788  0.8209  0.2442  1.6496
  118SOPE  H16S12466   4.230   3.825   4.895 -1.0251  0.5577 -1.2746
  118SOPE  C21712467   4.323   3.726   4.726  0.1237  0.3590  0.6307
  118SOPE  H17R12468   4.304   3.628   4.776  1.0380 -0.4428 -0.5156
  118SOPE  H17S12469   4.423   3.723   4.677 -0.4271 -0.7587 -0.4789
  118SOPE  C21812470   4.221   3.747   4.610 -0.5829  0.1273 -0.9108
  118SOPE  H18R12471   4.216   3.667   4.533 -0.4222  3.4058 -4.6360
  118SOPE  H18S12472   4.250   3.837   4.553  0.6747  0.0199 -0.4655
  118SOPE  H18T12473   4.115   3.752   4.643 -0.7267 -1.1759 -1.1093
  118SOPE   C3312474   4.324   4.383   5.801  0.7679  0.7381  0.0562
  118SOPE   H3X12475   4.379   4.287   5.808 -0.5134 -0.1440 -1.2737
  118SOPE   H3Y12476   4.396   4.463   5.774  1.1584  1.8914  4.0230
  118SOPE   C3412477   4.241   4.367   5.673  0.1000  0.0967  0.1119
  118SOPE   H4X12478   4.214   4.468   5.635  0.9017  1.1086  2.0835
  118SOPE   H4Y12479   4.148   4.307   5.682 -0.2709 -0.0243 -3.2347
  118SOPE   C3512480   4.315   4.280   5.562 -0.8516 -0.1198 -0.1256
  118SOPE   H5X12481   4.335   4.179   5.605 -0.3940  0.2437  0.5263
  118SOPE   H5Y12482   4.420   4.311   5.548 -1.2863  1.6288  0.2944
  118SOPE   C3612483   4.257   4.263   5.427  0.3892  0.5094  1.2622
  118SOPE   H6X12484   4.161   4.207   5.417  1.1573 -0.6490  0.0891
  118SOPE   H6Y12485   4.331   4.202   5.371 -1.5118 -0.4984 -0.2807
  118SOPE   C3712486   4.244   4.398   5.353 -0.1615  0.2594  0.7127
  118SOPE   H7X12487   4.341   4.451   5.356 -0.2697  0.4255  1.7143
  118SOPE   H7Y12488   4.173   4.466   5.405 -1.0839 -0.5984  0.6028
  118SOPE   C3812489   4.194   4.400   5.204 -0.0255 -0.3110  0.0233
  118SOPE   H8X12490   4.114   4.323   5.192 -1.3084  0.6148  2.1404
  118SOPE   H8Y12491   4.275   4.368   5.135 -1.0945  0.1824 -1.5373
  118SOPE   C3912492   4.156   4.542   5.157 -0.3966  0.6927  0.3776
  118SOPE   H9X12493   4.250   4.602   5.154 -0.6326  1.0927  0.9464
  118SOPE   H9Y12494   4.082   4.585   5.227 -0.6314  0.0347  0.5418
  118SOPE  C31012495   4.070   4.555   5.026  0.3117  0.5507 -0.1300
  118SOPE  H10X12496   3.982   4.488   5.028  1.8733 -1.8808 -3.1736
  118SOPE  H10Y12497   4.137   4.524   4.943  1.6486 -2.4990  1.9110
  118SOPE  C31112498   4.018   4.697   5.019  0.5415 -0.8580  0.3209
  118SOPE  H11X12499   4.094   4.779   5.023 -0.3199 -0.0507  0.4836
  118SOPE  H11Y12500   3.955   4.724   5.106  0.9465  2.4273 -0.2524
  118SOPE  C31212501   3.926   4.715   4.896  1.0975  0.2198  0.2223
  118SOPE  H12X12502   3.872   4.812   4.906  0.0324 -0.5663  2.5573
  118SOPE  H12Y12503   3.846   4.640   4.911  1.4640 -0.2364 -0.0824
  118SOPE  C31312504   4.000   4.686   4.757 -0.8878 -0.0148  0.3547
  118SOPE  H13X12505   4.018   4.579   4.782 -3.0461  0.0747  2.7371
  118SOPE  H13Y12506   4.099   4.733   4.744  0.5769 -2.1389  2.7959
  118SOPE  C31412507   3.905   4.683   4.633 -0.1090 -0.6649  0.3501
  118SOPE  H14X12508   3.813   4.621   4.643 -0.8622  0.1929 -0.9051
  118SOPE  H14Y12509   3.952   4.638   4.543 -1.0840 -0.6694 -0.1730
  118SOPE  C31512510   3.834   4.819   4.606 -0.4632  0.4497  1.1691
  118SOPE  H15X12511   3.906   4.896   4.571  0.5560 -1.3252 -0.9175
  118SOPE  H15Y12512   3.776   4.860   4.691 -1.4343  0.3101  0.6017
  118SOPE  C31612513   3.735   4.799   4.493  0.0947 -0.2100 -0.7886
  118SOPE  H16X12514   3.662   4.883   4.485  0.5459  0.1184 -1.5311
  118SOPE  H16Y12515   3.667   4.713   4.516 -0.6169  0.6613  0.5470
  118SOPE  C31712516   3.787   4.764   4.352  0.3006  1.1729  0.1764
  118SOPE  H17X12517   3.851   4.673   4.357  0.1601  1.0801  0.2748
  118SOPE  H17Y12518   3.862   4.841   4.323 -0.0270  1.5805  0.4183
  118SOPE  C31812519   3.678   4.749   4.247  0.5953  0.1287 -0.2823
  118SOPE  H18X12520   3.626   4.655   4.277 -1.5121  1.6271  1.0606
  118SOPE  H18Y12521   3.721   4.744   4.145 -0.9452  1.2241 -1.0233
  118SOPE  H18Z12522   3.605   4.833   4.246 -1.4365 -1.5421  0.0700
  119SOPE     N12523   5.667   4.358   7.028  0.2749 -0.8721 -0.1369
  119SOPE   HN112524   5.639   4.358   7.128  1.9209 -1.1626  0.3598
  119SOPE   HN212525   5.684   4.453   6.989 -1.6799 -0.6380 -0.5250
  119SOPE   HN312526   5.596   4.315   6.965  0.1197 -0.2359 -0.3985
  119SOPE   C1212527   5.788   4.264   7.009  0.1468  0.7950 -0.0862
  119SOPE  H12A12528   5.869   4.293   7.079  2.0975 -2.3127 -0.8238
  119SOPE  H12B12529   5.810   4.292   6.904 -1.3422 -2.0473 -1.2731
  119SOPE   C1112530   5.750   4.116   7.011  0.2693  0.0381  0.3435
  119SOPE  H11A12531   5.722   4.092   7.116 -1.1397  0.5907  0.1175
  119SOPE  H11B12532   5.844   4.062   6.986  1.1193  0.8574  1.6123
  119SOPE     P12533   5.612   3.947   6.859 -0.2827  0.2698 -0.5653
  119SOPE   O1312534   5.505   3.970   6.761 -0.3891 -0.0587  0.3737
  119SOPE   O1412535   5.587   3.846   6.966  0.3681 -0.1826  0.2283
  119SOPE   O1212536   5.634   4.088   6.933  0.4582  0.9287  0.3570
  119SOPE   O1112537   5.755   3.927   6.797  0.3690 -0.2752 -0.4906
  119SOPE    C112538   5.790   3.957   6.656  0.3451  0.0427 -0.8185
  119SOPE    HA12539   5.850   4.050   6.645 -0.6325  0.8411  0.3131
  119SOPE    HB12540   5.695   3.984   6.606 -0.2646 -1.0585 -0.2920
  119SOPE    C212541   5.848   3.830   6.595  0.8068  0.4554 -0.5802
  119SOPE    HS12542   5.950   3.838   6.639  0.5644 -0.2743  0.1425
  119SOPE   O2112543   5.834   3.855   6.458  0.6613 -0.3932 -0.0914
  119SOPE   C2112544   5.926   3.799   6.385 -0.5847  0.4581  0.1994
  119SOPE   O2212545   6.034   3.762   6.422 -0.0894 -0.1078  0.1350
  119SOPE   C2212546   5.886   3.811   6.232  0.3087  0.4934  0.2846
  119SOPE   H2R12547   5.870   3.920   6.218 -0.9816  0.8055  3.3402
  119SOPE   H2S12548   5.786   3.766   6.213  1.9192 -2.9775 -0.8408
  119SOPE    C312549   5.761   3.696   6.630  0.0599 -0.5681  0.9326
  119SOPE    HX12550   5.672   3.714   6.567  1.0590  0.6087 -0.2220
  119SOPE    HY12551   5.720   3.687   6.733 -2.6443  0.3695  0.0245
  119SOPE   O3112552   5.822   3.575   6.582 -0.3808  0.1702 -0.0243
  119SOPE   C3112553   5.916   3.528   6.662 -0.8504 -0.1729  0.6420
  119SOPE   O3212554   5.950   3.581   6.765  0.2454  0.2400  0.4179
  119SOPE   C3212555   5.981   3.403   6.602 -0.2233 -0.2964  0.1459
  119SOPE   H2X12556   5.896   3.340   6.568  0.1702 -0.1737 -1.1278
  119SOPE   H2Y12557   6.043   3.352   6.679 -0.2751 -1.1826 -0.3861
  119SOPE   C2312558   5.990   3.752   6.134  0.4193 -0.3405 -0.7055
  119SOPE   H3R12559   5.992   3.642   6.148  0.6195 -0.3645 -0.9312
  119SOPE   H3S12560   6.090   3.785   6.169 -0.1935  1.0741 -0.1927
  119SOPE   C2412561   5.959   3.783   5.986 -0.1997 -1.2630  0.2895
  119SOPE   H4R12562   5.871   3.732   5.942 -0.5014  0.9814 -1.9927
  119SOPE   H4S12563   5.940   3.893   5.984  0.1241 -1.2116 -0.8854
  119SOPE   C2512564   6.080   3.761   5.900  0.3144  0.6437 -0.0275
  119SOPE   H5R12565   6.162   3.819   5.948 -0.5639  0.8304  1.3293
  119SOPE   H5S12566   6.100   3.653   5.913 -0.5202  0.7127  2.3522
  119SOPE   C2612567   6.051   3.815   5.753 -0.0154 -0.0485  0.4000
  119SOPE   H6R12568   5.963   3.765   5.709  0.2654 -1.8615  1.7577
  119SOPE   H6S12569   6.018   3.920   5.763  0.0750 -0.0156  0.3531
  119SOPE   C2712570   6.178   3.821   5.671 -0.7517 -0.4356  0.2422
  119SOPE   H7R12571   6.258   3.864   5.734 -1.5990  1.7348 -0.0694
  119SOPE   H7S12572   6.217   3.723   5.636  3.4195  1.5863 -1.5084
  119SOPE   C2812573   6.149   3.915   5.548  0.6102 -0.1562 -0.4824
  119SOPE   H8R12574   6.049   3.883   5.511 -2.0146  2.8125  3.2324
  119SOPE   H8S12575   6.144   4.013   5.600  0.1134  0.5681 -1.8337
  119SOPE   C2912576   6.269   3.920   5.457 -0.0620 -0.8444  0.1855
  119SOPE   H9112577   6.363   3.935   5.512  0.0263 -0.8955  0.0491
  119SOPE  C21012578   6.266   3.909   5.323 -0.1568  0.4943 -0.1335
  119SOPE  H10112579   6.357   3.921   5.263  0.1504 -1.6585 -0.1522
  119SOPE  C21112580   6.155   3.871   5.235 -0.2867 -0.3041 -0.1534
  119SOPE  H11R12581   6.068   3.848   5.300 -0.8737  3.2385  0.5448
  119SOPE  H11S12582   6.186   3.787   5.169  0.8577  1.4461 -1.9742
  119SOPE  C21212583   6.103   3.989   5.140 -0.7477  0.3839 -0.1483
  119SOPE  H12R12584   6.065   4.073   5.202 -2.2182  0.1658 -0.7119
  119SOPE  H12S12585   6.011   3.948   5.094 -0.7700 -0.8014  0.8971
  119SOPE  C21312586   6.195   4.054   5.039  0.3635  0.1075  0.8587
  119SOPE  H13R12587   6.273   4.121   5.080  1.7764 -1.1213  0.2648
  119SOPE  H13S12588   6.132   4.121   4.976  0.4887  0.2412  0.8755
  119SOPE  C21412589   6.286   3.951   4.964 -0.3991 -0.0638 -0.0962
  119SOPE  H14R12590   6.216   3.892   4.902 -1.0854  0.8717 -0.2379
  119SOPE  H14S12591   6.336   3.878   5.031 -0.4751  1.0393  1.2195
  119SOPE  C21512592   6.395   4.011   4.872  0.3900  0.2033  0.0495
  119SOPE  H15R12593   6.464   4.072   4.935 -1.4380  0.7241  1.6415
  119SOPE  H15S12594   6.355   4.086   4.800  3.8778  2.1395 -0.1354
  119SOPE  C21612595   6.474   3.913   4.788 -0.8255  1.0387 -0.6089
  119SOPE  H16R12596   6.509   3.828   4.850 -1.3904  1.6124  0.5169
  119SOPE  H16S12597   6.562   3.962   4.740  0.3944 -0.4143  0.0510
  119SOPE  C21712598   6.398   3.851   4.668  0.1796  0.5993  0.6742
  119SOPE  H17R12599   6.357   3.937   4.611  0.3043 -0.4881 -1.1146
  119SOPE  H17S12600   6.313   3.791   4.709 -0.0845  0.4920 -0.0171
  119SOPE  C21812601   6.481   3.752   4.578 -0.2670 -0.6870  1.0196
  119SOPE  H18R12602   6.521   3.668   4.638  1.0188  0.7480  2.2670
  119SOPE  H18S12603   6.562   3.808   4.526 -0.1812 -0.1735  1.6927
  119SOPE  H18T12604   6.413   3.713   4.499 -0.0299  1.6112 -0.4161
  119SOPE   C3312605   6.060   3.423   6.472  0.5368 -0.7264  0.1699
  119SOPE   H3X12606   6.148   3.490   6.481 -0.1347  0.4841 -1.6823
  119SOPE   H3Y12607   5.993   3.486   6.409  2.7139  1.6051  0.0373
  119SOPE   C3412608   6.105   3.290   6.401  0.1907 -0.7638 -0.3921
  119SOPE   H4X12609   6.021   3.218   6.396  0.0632 -0.5363 -2.1112
  119SOPE   H4Y12610   6.191   3.258   6.463  0.2234 -0.1840 -0.1332
  119SOPE   C3512611   6.149   3.329   6.257  0.0762 -0.1106 -0.5112
  119SOPE   H5X12612   6.235   3.398   6.267  0.5139 -0.3679 -2.2421
  119SOPE   H5Y12613   6.065   3.382   6.207 -0.5561 -0.3390  0.2749
  119SOPE   C3612614   6.182   3.201   6.183  0.1057  0.1199 -0.2789
  119SOPE   H6X12615   6.102   3.124   6.186  0.7013 -0.4992 -0.1215
  119SOPE   H6Y12616   6.271   3.156   6.231 -0.0307 -0.4263 -0.5319
  119SOPE   C3712617   6.212   3.219   6.034  1.0337  0.1824 -0.4967
  119SOPE   H7X12618   6.122   3.266   5.991  0.5564  0.5828  0.8865
  119SOPE   H7Y12619   6.235   3.118   5.993  2.3435 -0.4343  1.5499
  119SOPE   C3812620   6.331   3.316   6.017  0.0019  1.2401 -0.1525
  119SOPE   H8X12621   6.405   3.286   6.094  0.2192 -0.6112 -1.0423
  119SOPE   H8Y12622   6.295   3.417   6.049 -0.7872  1.0753 -0.4889
  119SOPE   C3912623   6.379   3.318   5.870  0.4209  0.1831 -0.0367
  119SOPE   H9X12624   6.429   3.220   5.854 -0.9380 -0.3171 -1.3508
  119SOPE   H9Y12625   6.452   3.402   5.860  1.3247 -0.3679  1.4274
  119SOPE  C31012626   6.274   3.337   5.761 -0.0765 -0.2296 -0.2910
  119SOPE  H10X12627   6.205   3.417   5.796  0.5779  0.3380 -0.2538
  119SOPE  H10Y12628   6.215   3.244   5.757  0.2319 -0.4458  0.1265
  119SOPE  C31112629   6.312   3.375   5.620 -0.4086  0.2061  0.3663
  119SOPE  H11X12630   6.380   3.297   5.581 -1.8756 -1.5153  1.0995
  119SOPE  H11Y12631   6.362   3.475   5.619 -0.8760  0.4430 -0.2451
  119SOPE  C31212632   6.207   3.365   5.511  0.3046 -0.3004  0.2398
  119SOPE  H12X12633   6.134   3.448   5.502  0.4948 -0.2724 -1.2547
  119SOPE  H12Y12634   6.149   3.274   5.538 -0.4476 -0.2930 -1.2446
  119SOPE  C31312635   6.268   3.347   5.369  0.7542 -0.6650  0.4070
  119SOPE  H13X12636   6.186   3.319   5.300  0.9260 -0.2903  0.0466
  119SOPE  H13Y12637   6.340   3.262   5.364  1.0428 -0.4741  1.1160
  119SOPE  C31412638   6.349   3.474   5.330 -0.0634  0.2684  0.4498
  119SOPE  H14X12639   6.422   3.507   5.406  0.6444 -0.7984  0.2526
  119SOPE  H14Y12640   6.274   3.557   5.324  0.5726  1.1655  3.4794
  119SOPE  C31512641   6.430   3.451   5.200  0.3476 -0.5267  0.2476
  119SOPE  H15X12642   6.358   3.406   5.129 -0.3305 -1.1840  1.3168
  119SOPE  H15Y12643   6.514   3.380   5.215 -0.2987 -1.4689 -0.5048
  119SOPE  C31612644   6.489   3.580   5.129  0.5593 -0.1456 -0.2492
  119SOPE  H16X12645   6.523   3.641   5.216 -0.4869 -2.6241  2.0294
  119SOPE  H16Y12646   6.402   3.634   5.087  1.3722  2.4796  1.1754
  119SOPE  C31712647   6.582   3.571   5.013 -0.2470 -0.1395  0.3151
  119SOPE  H17X12648   6.682   3.527   5.027  0.7072  0.9732 -2.3930
  119SOPE  H17Y12649   6.618   3.670   4.977  0.9477 -1.6168 -2.9225
  119SOPE  C31812650   6.521   3.499   4.889 -0.0528 -0.0115  0.0484
  119SOPE  H18X12651   6.591   3.498   4.803  0.8636  0.0448  0.7768
  119SOPE  H18Y12652   6.434   3.554   4.849  1.7037  1.3091 -2.1557
  119SOPE  H18Z12653   6.486   3.398   4.920 -0.5462  0.2387  0.3176
  120SOPE     N12654   6.047   6.630   6.799 -0.3441 -0.1709 -0.5459
  120SOPE   HN112655   6.014   6.550   6.857 -0.9078  1.7371  1.9058
  120SOPE   HN212656   6.128   6.668   6.852 -1.9937  0.1602  1.8774
  120SOPE   HN312657   5.967   6.696   6.792 -0.6263 -0.3854  0.5665
  120SOPE   C1212658   6.082   6.581   6.662 -0.1714  0.4640  0.2059
  120SOPE  H12A12659   6.190   6.575   6.636 -0.2474 -0.5873  0.1221
  120SOPE  H12B12660   6.036   6.653   6.590  1.5379  1.6127  0.1964
  120SOPE   C1112661   6.017   6.439   6.639  0.2717  0.1866 -0.2406
  120SOPE  H11A12662   6.080   6.358   6.682  0.2939 -0.4424 -1.4294
  120SOPE  H11B12663   6.010   6.408   6.533 -1.6148  1.1364 -0.4431
  120SOPE     P12664   5.834   6.364   6.812  0.5974 -0.4457  0.4466
  120SOPE   O1312665   5.679   6.368   6.823 -0.9288 -0.1345  0.3214
  120SOPE   O1412666   5.911   6.409   6.924  0.4682 -0.2033 -0.4234
  120SOPE   O1212667   5.877   6.441   6.677  0.5702  0.0744 -0.2764
  120SOPE   O1112668   5.889   6.226   6.785  0.3475  0.0292  0.4047
  120SOPE    C112669   5.835   6.150   6.674 -0.2163  0.6162 -0.2137
  120SOPE    HA12670   5.811   6.218   6.590 -0.1689  1.6161  0.5649
  120SOPE    HB12671   5.747   6.092   6.709 -0.6894  1.6239  0.3292
  120SOPE    C212672   5.942   6.046   6.618 -1.0865  0.0753  0.4461
  120SOPE    HS12673   5.961   5.967   6.694  0.4003 -1.0098 -0.9716
  120SOPE   O2112674   6.072   6.114   6.589  0.2870  0.3372 -0.0885
  120SOPE   C2112675   6.174   6.036   6.591 -0.3176 -0.8034 -0.4506
  120SOPE   O2212676   6.180   5.924   6.633  0.2207  0.7293  0.0107
  120SOPE   C2212677   6.285   6.117   6.516 -0.5964  0.6812 -0.5641
  120SOPE   H2R12678   6.354   6.146   6.598 -2.5306 -0.0262  1.4534
  120SOPE   H2S12679   6.245   6.213   6.477 -2.3065  0.7851  1.2308
  120SOPE    C312680   5.889   5.956   6.497  0.2006 -0.5131  0.1365
  120SOPE    HX12681   5.817   5.877   6.528  1.6656 -2.0395 -0.1495
  120SOPE    HY12682   5.975   5.898   6.457 -1.4118 -2.7909 -0.2269
  120SOPE   O3112683   5.841   6.039   6.387  0.1933 -0.1420 -0.1773
  120SOPE   C3112684   5.712   6.067   6.368 -0.3200 -0.4463 -0.5273
  120SOPE   O3212685   5.629   6.039   6.449  0.2491  0.4482 -0.5172
  120SOPE   C3212686   5.696   6.125   6.232  0.0018  0.0552 -0.5417
  120SOPE   H2X12687   5.770   6.076   6.166 -0.0117  0.9486 -1.2455
  120SOPE   H2Y12688   5.720   6.233   6.239  0.3173  0.1370 -2.3596
  120SOPE   C2312689   6.357   6.044   6.404  0.0555  0.2044  0.4874
  120SOPE   H3R12690   6.286   6.006   6.328  1.8185  1.3110 -1.8410
  120SOPE   H3S12691   6.410   5.951   6.436 -0.6987 -1.0299 -1.6344
  120SOPE   C2412692   6.458   6.133   6.335 -0.3370  0.1186  0.2171
  120SOPE   H4R12693   6.510   6.207   6.400  0.9556  0.4177 -1.1003
  120SOPE   H4S12694   6.542   6.075   6.290 -1.4944 -0.2673 -1.5128
  120SOPE   C2512695   6.381   6.210   6.223  0.7237 -0.3808 -0.3472
  120SOPE   H5R12696   6.395   6.160   6.125  1.5438  0.4552 -0.6726
  120SOPE   H5S12697   6.271   6.206   6.238  0.4613 -0.1262 -1.9879
  120SOPE   C2612698   6.406   6.354   6.209 -0.8370 -0.1468  0.1399
  120SOPE   H6R12699   6.512   6.386   6.201 -0.5420 -1.2358 -0.5652
  120SOPE   H6S12700   6.353   6.383   6.115  1.3487 -0.5326 -1.3007
  120SOPE   C2712701   6.350   6.435   6.323  0.4411 -0.3385 -0.3740
  120SOPE   H7R12702   6.247   6.407   6.355 -0.2524  3.7669  1.5772
  120SOPE   H7S12703   6.409   6.424   6.416 -1.6482 -0.7748  0.9744
  120SOPE   C2812704   6.325   6.578   6.280  0.2695 -0.2007 -0.4910
  120SOPE   H8R12705   6.262   6.581   6.188 -0.3196  0.9676 -0.0751
  120SOPE   H8S12706   6.270   6.615   6.370  0.3758  0.3885 -0.6620
  120SOPE   C2912707   6.444   6.669   6.257  0.4607  0.5284 -0.2695
  120SOPE   H9112708   6.509   6.673   6.346 -0.3659 -1.2957  0.4648
  120SOPE  C21012709   6.463   6.755   6.154  0.4915 -0.5067  0.3519
  120SOPE  H10112710   6.551   6.820   6.155 -0.9739  1.6118  2.5939
  120SOPE  C21112711   6.379   6.758   6.022 -0.1043  0.5990 -0.5583
  120SOPE  H11R12712   6.325   6.854   6.007 -0.7741  1.0592  3.5167
  120SOPE  H11S12713   6.310   6.671   6.024 -0.0156  0.5187  1.4229
  120SOPE  C21212714   6.476   6.735   5.907 -0.1950 -0.6993  0.9411
  120SOPE  H12R12715   6.421   6.728   5.811 -2.9950 -0.9878  2.4578
  120SOPE  H12S12716   6.515   6.632   5.923 -0.6792 -0.8778  0.9978
  120SOPE  C21312717   6.601   6.823   5.895  0.2202 -0.4965 -0.4046
  120SOPE  H13R12718   6.659   6.831   5.990  1.3138 -0.0621 -1.0975
  120SOPE  H13S12719   6.571   6.926   5.867 -0.1632 -1.0003 -1.8952
  120SOPE  C21412720   6.687   6.766   5.788 -0.2187 -0.1797 -0.5175
  120SOPE  H14R12721   6.696   6.655   5.784 -1.2904 -0.3410  0.7354
  120SOPE  H14S12722   6.793   6.787   5.815 -0.2837  1.2822 -1.3137
  120SOPE  C21512723   6.659   6.825   5.657 -0.0612 -0.3799 -0.0633
  120SOPE  H15R12724   6.644   6.933   5.679  0.4670 -0.0281 -1.3621
  120SOPE  H15S12725   6.557   6.799   5.621  0.1059  1.1269 -1.7824
  120SOPE  C21612726   6.753   6.794   5.541 -0.6708  0.0835  0.4990
  120SOPE  H16R12727   6.754   6.684   5.531 -0.7809 -0.0570  1.8604
  120SOPE  H16S12728   6.850   6.832   5.579 -0.3144  1.6160 -1.7397
  120SOPE  C21712729   6.723   6.869   5.412 -0.0162 -0.3409  0.3548
  120SOPE  H17R12730   6.741   6.977   5.433  0.8383 -0.6426  1.2584
  120SOPE  H17S12731   6.621   6.849   5.374 -0.2217  1.9480 -0.4447
  120SOPE  C21812732   6.814   6.840   5.299  0.5510  0.1934  0.7729
  120SOPE  H18R12733   6.817   6.731   5.277 -1.1070 -0.0639  1.6828
  120SOPE  H18S12734   6.916   6.878   5.321  0.0115  2.2368 -0.0175
  120SOPE  H18T12735   6.784   6.895   5.208 -0.9439  0.0934  1.1854
  120SOPE   C3312736   5.549   6.103   6.179  0.4376  0.5639  1.0957
  120SOPE   H3X12737   5.517   6.149   6.083 -0.5361 -0.6101  0.8253
  120SOPE   H3Y12738   5.484   6.135   6.264  1.6400 -0.3809  2.4227
  120SOPE   C3412739   5.528   5.954   6.144 -0.2114  0.5142 -0.1859
  120SOPE   H4X12740   5.549   5.888   6.231  1.5175  1.4181  0.1237
  120SOPE   H4Y12741   5.602   5.934   6.063 -0.7560  0.8660 -0.7820
  120SOPE   C3512742   5.393   5.917   6.083  0.0288 -0.1904 -0.2280
  120SOPE   H5X12743   5.390   5.972   5.986  0.5961 -0.1339 -0.2170
  120SOPE   H5Y12744   5.310   5.953   6.148 -0.5477  0.5567 -1.3476
  120SOPE   C3612745   5.370   5.768   6.042  0.7965 -0.7382  0.3130
  120SOPE   H6X12746   5.265   5.760   6.006  0.2358  1.0268  1.4018
  120SOPE   H6Y12747   5.390   5.701   6.128  0.9354  0.0535  0.9082
  120SOPE   C3712748   5.444   5.727   5.922 -0.2887 -0.4126 -0.0116
  120SOPE   H7X12749   5.549   5.760   5.932 -0.3831 -0.2723  0.5693
  120SOPE   H7Y12750   5.406   5.783   5.833 -0.9007  1.0814  1.1470
  120SOPE   C3812751   5.444   5.578   5.883  0.3289 -0.7868 -0.2744
  120SOPE   H8X12752   5.346   5.544   5.843 -0.5848 -0.4750  1.5617
  120SOPE   H8Y12753   5.443   5.536   5.986  1.0290 -0.5854 -0.1776
  120SOPE   C3912754   5.558   5.529   5.797 -0.0863 -0.3306 -0.4509
  120SOPE   H9X12755   5.564   5.418   5.791 -0.2998 -0.4683  1.2668
  120SOPE   H9Y12756   5.657   5.556   5.838 -0.3481 -1.6797  1.1865
  120SOPE  C31012757   5.556   5.577   5.658 -0.4499 -0.0812 -0.3968
  120SOPE  H10X12758   5.510   5.678   5.656 -1.6877 -0.6194  0.1149
  120SOPE  H10Y12759   5.481   5.519   5.599 -2.8363  2.7614 -0.3816
  120SOPE  C31112760   5.698   5.574   5.597  0.6023 -0.2607  0.5264
  120SOPE  H11X12761   5.720   5.466   5.584  0.3830 -0.5710  2.4329
  120SOPE  H11Y12762   5.771   5.623   5.664 -1.4856  3.5186  0.2934
  120SOPE  C31212763   5.698   5.663   5.467  0.2897 -0.3692 -0.9213
  120SOPE  H12X12764   5.805   5.689   5.451  0.7097 -1.7505 -0.5748
  120SOPE  H12Y12765   5.644   5.759   5.476  0.1964 -0.5619  0.8652
  120SOPE  C31312766   5.639   5.587   5.345  0.4156 -0.0120 -0.1396
  120SOPE  H13X12767   5.540   5.547   5.374  1.4328 -2.6062 -0.0326
  120SOPE  H13Y12768   5.701   5.497   5.328  1.3315  0.4894  0.4695
  120SOPE  C31412769   5.639   5.673   5.222 -0.8475 -0.1608  0.2251
  120SOPE  H14X12770   5.741   5.714   5.207 -0.2881 -2.0919 -1.8288
  120SOPE  H14Y12771   5.560   5.750   5.233  0.1018  0.9287 -0.3487
  120SOPE  C31512772   5.609   5.583   5.097  0.0965  0.1464  0.6291
  120SOPE  H15X12773   5.510   5.536   5.112  0.5084 -0.1666  2.6596
  120SOPE  H15Y12774   5.688   5.506   5.083  1.7877  2.0090 -0.7880
  120SOPE  C31612775   5.606   5.674   4.976 -0.1056  0.6717 -0.2681
  120SOPE  H16X12776   5.702   5.729   4.971  1.1376 -1.2703  0.9061
  120SOPE  H16Y12777   5.520   5.742   4.995 -1.9150 -1.1265 -1.5637
  120SOPE  C31712778   5.598   5.595   4.846 -0.1680 -1.1353 -0.1979
  120SOPE  H17X12779   5.687   5.532   4.825  0.5498 -0.4112  0.6281
  120SOPE  H17Y12780   5.588   5.673   4.768  0.1839 -1.3261 -0.4329
  120SOPE  C31812781   5.470   5.504   4.837  0.3008 -0.8193  0.7548
  120SOPE  H18X12782   5.489   5.399   4.869  1.2716 -0.5115  1.2398
  120SOPE  H18Y12783   5.429   5.505   4.734  0.6607 -0.8681  0.6092
  120SOPE  H18Z12784   5.392   5.558   4.894 -0.1253 -0.6093 -0.0091
  121SOPE     N12785   5.764   4.757   7.216  0.4986 -0.0408  0.0553
  121SOPE   HN112786   5.719   4.703   7.293 -3.3771  1.1635 -1.1216
  121SOPE   HN212787   5.696   4.835   7.209 -0.4465 -0.8309  0.2366
  121SOPE   HN312788   5.753   4.692   7.136 -1.0374 -1.4884  1.3614
  121SOPE   C1212789   5.909   4.786   7.234 -0.8152 -0.5712 -0.7998
  121SOPE  H12A12790   5.956   4.713   7.304  3.3319  2.5467  0.0742
  121SOPE  H12B12791   5.916   4.882   7.290  2.0086  0.0506 -2.0431
  121SOPE   C1112792   5.977   4.807   7.097  0.1290 -0.4155  0.1702
  121SOPE  H11A12793   6.078   4.829   7.137 -0.3368  0.9055  0.6727
  121SOPE  H11B12794   5.945   4.903   7.052  0.0993 -1.2942 -1.7879
  121SOPE     P12795   5.870   4.654   6.917  0.2814 -0.5568 -0.4678
  121SOPE   O1312796   5.854   4.768   6.822  0.5546  0.0730 -0.0061
  121SOPE   O1412797   5.749   4.615   6.990  0.1484 -0.4247  0.1352
  121SOPE   O1212798   5.977   4.683   7.024  0.6870 -0.3673 -0.3761
  121SOPE   O1112799   5.929   4.530   6.838 -0.3468 -0.2264  0.1455
  121SOPE    C112800   6.058   4.479   6.838  0.4303  0.3106 -0.2510
  121SOPE    HA12801   6.044   4.393   6.768 -1.4172  0.0868  0.3318
  121SOPE    HB12802   6.091   4.465   6.944 -1.6563  0.9148  0.5212
  121SOPE    C212803   6.163   4.563   6.768 -0.0898 -0.1771 -0.1124
  121SOPE    HS12804   6.168   4.657   6.827 -1.4939 -1.2055  1.7549
  121SOPE   O2112805   6.123   4.583   6.631 -0.4085  0.1236  0.5290
  121SOPE   C2112806   6.167   4.694   6.571 -0.2167 -0.0556  0.9722
  121SOPE   O2212807   6.225   4.787   6.616  0.0976  0.2048 -0.3034
  121SOPE   C2212808   6.114   4.685   6.429 -0.0574 -0.4720 -1.0647
  121SOPE   H2R12809   6.124   4.788   6.390  0.7708 -0.2036 -0.1764
  121SOPE   H2S12810   6.010   4.647   6.426 -0.2963 -0.4904  2.8504
  121SOPE    C312811   6.298   4.482   6.795  0.5534 -0.6843  0.1927
  121SOPE    HX12812   6.303   4.457   6.903  2.5514  1.6072  0.7221
  121SOPE    HY12813   6.383   4.548   6.767 -0.6017  1.0054  0.5709
  121SOPE   O3112814   6.281   4.364   6.714  0.8227 -0.2252 -0.4331
  121SOPE   C3112815   6.383   4.332   6.631  0.6167 -0.0687 -0.3559
  121SOPE   O3212816   6.487   4.396   6.619  0.6161 -0.3091  0.5941
  121SOPE   C3212817   6.353   4.208   6.555  0.1695  0.6414 -0.3525
  121SOPE   H2X12818   6.411   4.125   6.601 -0.9044 -0.9654 -1.7523
  121SOPE   H2Y12819   6.407   4.226   6.459  1.2856  0.3643  0.2143
  121SOPE   C2312820   6.197   4.582   6.359 -0.1151  0.0554 -0.8550
  121SOPE   H3R12821   6.187   4.481   6.405 -2.2030  0.2378 -0.8166
  121SOPE   H3S12822   6.303   4.614   6.346  0.5313 -0.8332  1.7398
  121SOPE   C2412823   6.153   4.573   6.206 -0.7937 -0.3170 -0.1107
  121SOPE   H4R12824   6.197   4.484   6.157 -1.3689 -0.1830 -0.8975
  121SOPE   H4S12825   6.045   4.549   6.217 -0.5528 -1.7280 -0.5999
  121SOPE   C2512826   6.165   4.702   6.122  0.4699  0.3387 -0.1521
  121SOPE   H5R12827   6.126   4.791   6.175 -1.5941  0.3541 -1.5696
  121SOPE   H5S12828   6.269   4.725   6.091  0.1255 -1.2754 -2.8576
  121SOPE   C2612829   6.062   4.697   6.000 -0.7110  0.4191  0.0381
  121SOPE   H6R12830   6.009   4.599   6.006 -1.1112  0.4618 -2.1551
  121SOPE   H6S12831   5.990   4.781   6.012 -1.1581  0.0681 -0.1680
  121SOPE   C2712832   6.118   4.704   5.864  0.0260  0.4495  0.4476
  121SOPE   H7R12833   6.205   4.639   5.842  0.1609  0.0386  2.0728
  121SOPE   H7S12834   6.034   4.684   5.793  0.4694  1.4182 -0.3793
  121SOPE   C2812835   6.162   4.855   5.839  0.6526  0.5659 -1.0261
  121SOPE   H8R12836   6.071   4.915   5.861  1.4568  0.9398  1.7670
  121SOPE   H8S12837   6.241   4.890   5.910  0.1344 -0.5708  0.1561
  121SOPE   C2912838   6.213   4.857   5.694  0.0215 -0.5101  0.0094
  121SOPE   H9112839   6.307   4.802   5.684  1.5409  1.4785  2.1857
  121SOPE  C21012840   6.142   4.902   5.587  0.2261 -0.3557  0.0770
  121SOPE  H10112841   6.192   4.891   5.490 -0.5643 -1.8849 -0.2024
  121SOPE  C21112842   6.010   4.972   5.595 -0.5914  0.6290  0.3108
  121SOPE  H11R12843   5.981   5.004   5.698 -0.2560  3.2588 -0.3367
  121SOPE  H11S12844   5.926   4.903   5.570  1.2094 -1.2914 -0.7300
  121SOPE  C21212845   5.990   5.099   5.509 -0.0375  0.0316 -0.5118
  121SOPE  H12R12846   6.077   5.167   5.519 -0.2047  0.2803 -0.7142
  121SOPE  H12S12847   5.903   5.154   5.552  1.9801  0.9963  2.6166
  121SOPE  C21312848   5.974   5.065   5.356 -0.1544 -0.4784 -0.0617
  121SOPE  H13R12849   5.892   4.991   5.340 -0.3344 -0.2753 -0.0718
  121SOPE  H13S12850   6.064   5.014   5.317 -0.2777 -0.2153 -0.7094
  121SOPE  C21412851   5.963   5.180   5.263  0.1691 -0.1417 -0.1232
  121SOPE  H14R12852   6.060   5.232   5.246  0.0609 -0.0769 -0.5558
  121SOPE  H14S12853   5.888   5.254   5.298  2.1942  2.0474 -0.1301
  121SOPE  C21512854   5.905   5.133   5.127 -0.2952 -0.2664  0.3620
  121SOPE  H15R12855   5.804   5.099   5.158 -0.0859  1.1263  2.8607
  121SOPE  H15S12856   5.957   5.039   5.098 -1.7294 -0.8712 -0.3572
  121SOPE  C21612857   5.906   5.233   5.014  0.2737 -0.1563  0.2072
  121SOPE  H16R12858   5.998   5.294   5.025  0.2251 -0.4826  3.0771
  121SOPE  H16S12859   5.814   5.294   5.021  1.0744  0.9631  1.4543
  121SOPE  C21712860   5.917   5.172   4.873  0.6077 -0.0197 -0.1177
  121SOPE  H17R12861   5.828   5.110   4.848  0.1341 -0.1735  1.8235
  121SOPE  H17S12862   5.996   5.095   4.863  0.5286  0.1502 -2.9156
  121SOPE  C21812863   5.947   5.278   4.768  0.1032 -0.1062 -0.1057
  121SOPE  H18R12864   5.874   5.361   4.756  1.6882  1.1364 -1.5323
  121SOPE  H18S12865   5.950   5.226   4.669  2.0533 -0.5006  0.1250
  121SOPE  H18T12866   6.041   5.326   4.800  0.7832 -0.8157 -0.9921
  121SOPE   C3312867   6.208   4.168   6.533  0.0137 -0.2606  0.0682
  121SOPE   H3X12868   6.152   4.262   6.516  1.6719  0.8961  0.7151
  121SOPE   H3Y12869   6.169   4.119   6.625  0.2202 -0.0935  0.2445
  121SOPE   C3412870   6.203   4.070   6.412 -0.1894 -0.5927  0.5223
  121SOPE   H4X12871   6.111   4.011   6.433 -1.2774  0.1765 -1.7776
  121SOPE   H4Y12872   6.285   3.999   6.434  3.2173  2.2369 -1.8378
  121SOPE   C3512873   6.210   4.133   6.270  0.7558  0.4836 -0.4068
  121SOPE   H5X12874   6.317   4.162   6.255  1.2341 -0.0216  1.7195
  121SOPE   H5Y12875   6.150   4.224   6.291  0.8413 -0.1950  3.4797
  121SOPE   C3612876   6.153   4.056   6.152  0.1477  0.6000  0.3199
  121SOPE   H6X12877   6.056   4.012   6.181  0.0626 -0.1610 -1.0552
  121SOPE   H6Y12878   6.228   3.975   6.137  1.0003  1.3800  0.2356
  121SOPE   C3712879   6.142   4.131   6.020  0.2784  0.4444 -1.3080
  121SOPE   H7X12880   6.105   4.234   6.033 -2.1603 -0.4819 -0.2761
  121SOPE   H7Y12881   6.076   4.068   5.956 -1.2078 -0.9944  1.4598
  121SOPE   C3812882   6.284   4.158   5.963  0.0888  0.6780 -0.3300
  121SOPE   H8X12883   6.347   4.069   5.986 -0.7665  0.6903  2.3774
  121SOPE   H8Y12884   6.326   4.243   6.021 -0.4755 -0.0002  1.1374
  121SOPE   C3912885   6.277   4.180   5.811 -0.4750 -0.2145 -0.5630
  121SOPE   H9X12886   6.226   4.090   5.771 -1.2560 -0.9486  1.9123
  121SOPE   H9Y12887   6.376   4.208   5.771 -0.2557  0.4347  0.3827
  121SOPE  C31012888   6.197   4.309   5.767 -0.1353 -0.0980  0.2235
  121SOPE  H10X12889   6.236   4.392   5.831 -1.1259 -0.3535  1.1754
  121SOPE  H10Y12890   6.086   4.305   5.771 -0.2215  1.2912 -0.0348
  121SOPE  C31112891   6.235   4.343   5.616  0.5386 -0.1659  0.1888
  121SOPE  H11X12892   6.198   4.256   5.558 -2.6542 -0.1113  1.8698
  121SOPE  H11Y12893   6.345   4.348   5.606  0.5671 -1.2992 -0.1894
  121SOPE  C31212894   6.162   4.467   5.550 -0.2083 -0.0017  0.0647
  121SOPE  H12X12895   6.166   4.543   5.631  1.2267 -1.2338  1.2000
  121SOPE  H12Y12896   6.055   4.448   5.524  0.2406 -1.6783 -0.7113
  121SOPE  C31312897   6.237   4.515   5.427 -0.0479 -0.5774 -0.2854
  121SOPE  H13X12898   6.345   4.488   5.425  0.3411  0.9093 -0.8536
  121SOPE  H13Y12899   6.229   4.625   5.419 -0.6859 -0.6289 -0.4296
  121SOPE  C31412900   6.168   4.456   5.296  0.4014  0.6505 -0.1862
  121SOPE  H14X12901   6.062   4.488   5.288  0.1606  0.0855  0.6243
  121SOPE  H14Y12902   6.165   4.347   5.314 -0.5463  0.7325  0.2244
  121SOPE  C31512903   6.246   4.497   5.173 -0.5744 -0.3818  0.7167
  121SOPE  H15X12904   6.355   4.480   5.190 -0.3628 -0.5414 -0.6742
  121SOPE  H15Y12905   6.230   4.607   5.164 -2.1116 -0.5312  1.3337
  121SOPE  C31612906   6.189   4.439   5.049 -0.2967  0.2048  0.7130
  121SOPE  H16X12907   6.097   4.497   5.025 -0.2484 -0.2684 -0.6969
  121SOPE  H16Y12908   6.159   4.333   5.063  2.5468 -1.2207 -2.5049
  121SOPE  C31712909   6.276   4.456   4.924  0.0287 -0.1592  0.5471
  121SOPE  H17X12910   6.368   4.395   4.919 -0.6090 -1.0434 -1.4343
  121SOPE  H17Y12911   6.307   4.563   4.926 -3.8199  1.1488  2.2986
  121SOPE  C31812912   6.196   4.413   4.803  0.4321 -0.2506  0.4882
  121SOPE  H18X12913   6.126   4.490   4.765  0.5599  2.0822  4.4081
  121SOPE  H18Y12914   6.137   4.321   4.824 -2.4736  1.6276  1.2316
  121SOPE  H18Z12915   6.270   4.386   4.725  1.2970  1.7958  0.5502
  122SOPE     N12916   5.900   5.626   7.275  0.1643 -0.7933  0.4084
  122SOPE   HN112917   5.883   5.587   7.370 -4.1347  0.2634  0.2809
  122SOPE   HN212918   5.925   5.727   7.284  0.2111 -0.7886  0.2356
  122SOPE   HN312919   5.806   5.639   7.232  0.0256 -0.8221  0.7015
  122SOPE   C1212920   5.995   5.552   7.188  0.2763 -0.4006 -0.0398
  122SOPE  H12A12921   5.961   5.447   7.197  0.8048 -0.6683 -1.1217
  122SOPE  H12B12922   6.097   5.563   7.229  0.4610 -1.2093 -0.2791
  122SOPE   C1112923   5.997   5.614   7.045  0.0160 -0.0705 -0.6095
  122SOPE  H11A12924   6.057   5.546   6.981 -1.3947 -1.1436 -0.8477
  122SOPE  H11B12925   6.053   5.709   7.057 -1.0610  0.4298  0.6276
  122SOPE     P12926   5.842   5.724   6.874  0.4913  0.0228  0.5150
  122SOPE   O1312927   5.881   5.861   6.906 -0.3800 -0.2672 -0.2871
  122SOPE   O1412928   5.705   5.706   6.827 -0.2438 -0.3554  0.1986
  122SOPE   O1212929   5.866   5.627   6.992  0.0063 -0.1702  0.2834
  122SOPE   O1112930   5.941   5.668   6.759 -0.1915 -0.3790 -0.0403
  122SOPE    C112931   5.940   5.532   6.721  0.2266  0.6526 -0.4943
  122SOPE    HA12932   5.865   5.467   6.771  0.4216  0.2201 -0.7568
  122SOPE    HB12933   6.039   5.493   6.752  0.7304 -0.5649 -3.3312
  122SOPE    C212934   5.938   5.506   6.566 -0.1715  0.0467 -0.2036
  122SOPE    HS12935   5.965   5.399   6.551  1.3845  0.1080  1.7628
  122SOPE   O2112936   6.025   5.594   6.495  0.1512 -0.0926  0.1973
  122SOPE   C2112937   6.156   5.589   6.511  0.2997 -0.1633 -0.1164
  122SOPE   O2212938   6.222   5.500   6.558  0.3423 -0.6011 -0.3759
  122SOPE   C2212939   6.223   5.700   6.422 -0.2681 -0.3650 -0.0316
  122SOPE   H2R12940   6.285   5.755   6.496 -0.8955  0.3900 -0.0545
  122SOPE   H2S12941   6.150   5.765   6.370 -0.9334 -0.8724  0.2527
  122SOPE    C312942   5.800   5.517   6.511  0.4186  0.5775  0.0187
  122SOPE    HX12943   5.755   5.616   6.534 -2.0170 -0.0874 -1.4081
  122SOPE    HY12944   5.742   5.433   6.555 -0.9148  0.1730 -2.3332
  122SOPE   O3112945   5.801   5.490   6.374 -0.0183  0.5797  0.6881
  122SOPE   C3112946   5.760   5.590   6.292  0.4657  0.1045 -0.6266
  122SOPE   O3212947   5.694   5.683   6.329  0.0286 -0.4289  0.1080
  122SOPE   C3212948   5.812   5.549   6.158  0.1974  0.1062  0.0764
  122SOPE   H2X12949   5.733   5.505   6.093 -0.6599  1.0894  0.4410
  122SOPE   H2Y12950   5.895   5.475   6.162  1.6862  1.5394 -1.9501
  122SOPE   C2312951   6.314   5.634   6.314  0.7974 -0.0533 -0.2526
  122SOPE   H3R12952   6.241   5.579   6.251 -2.7282  1.4514  2.2047
  122SOPE   H3S12953   6.381   5.558   6.362  0.1652 -0.7732 -0.4891
  122SOPE   C2412954   6.395   5.739   6.240  0.1517 -0.1886  0.1857
  122SOPE   H4R12955   6.330   5.820   6.202  1.7452  0.0168 -2.2844
  122SOPE   H4S12956   6.463   5.794   6.308 -3.2374  1.9034  2.2089
  122SOPE   C2512957   6.448   5.691   6.105  0.1762  0.0427 -0.5853
  122SOPE   H5R12958   6.469   5.582   6.113 -2.9899 -0.6739 -1.0129
  122SOPE   H5S12959   6.366   5.715   6.035 -2.1718 -1.2031  1.5914
  122SOPE   C2612960   6.585   5.752   6.081  0.1933 -0.1274 -0.0400
  122SOPE   H6R12961   6.651   5.745   6.170 -1.0499  1.0006  1.0075
  122SOPE   H6S12962   6.625   5.688   5.998 -1.9904  2.0448 -2.9711
  122SOPE   C2712963   6.579   5.901   6.039  0.4677  0.3762  0.3814
  122SOPE   H7R12964   6.501   5.913   5.960  1.2793  0.8274 -0.3591
  122SOPE   H7S12965   6.543   5.957   6.127 -3.0193 -0.3035 -0.4448
  122SOPE   C2812966   6.710   5.954   5.990 -0.2108 -0.6262  0.8145
  122SOPE   H8R12967   6.791   5.937   6.064 -0.5332  0.3503  1.4058
  122SOPE   H8S12968   6.737   5.902   5.895 -0.3740  1.7637 -0.6333
  122SOPE   C2912969   6.686   6.104   5.959 -0.2724  0.3625  0.5915
  122SOPE   H9112970   6.666   6.157   6.054 -0.1854 -0.3953  1.0430
  122SOPE  C21012971   6.679   6.164   5.837  0.1789  1.1410  0.5525
  122SOPE  H10112972   6.668   6.272   5.824  0.4918  0.9609 -1.4760
  122SOPE  C21112973   6.702   6.102   5.703 -0.1164 -0.1586 -0.1376
  122SOPE  H11R12974   6.607   6.077   5.652 -1.1287  0.9338  1.1093
  122SOPE  H11S12975   6.750   6.003   5.716  0.7333  0.5357  2.9543
  122SOPE  C21212976   6.795   6.180   5.612  0.0641 -0.7296  0.2696
  122SOPE  H12R12977   6.895   6.181   5.659 -0.4940  2.1274  1.6334
  122SOPE  H12S12978   6.765   6.287   5.604 -0.5742 -0.8610  0.8158
  122SOPE  C21312979   6.816   6.122   5.466  0.4287  0.0933 -0.0280
  122SOPE  H13R12980   6.804   6.013   5.482  1.2656  0.2236  1.6434
  122SOPE  H13S12981   6.917   6.146   5.426  0.1964  0.9514 -0.1204
  122SOPE  C21412982   6.702   6.170   5.369 -0.0351 -0.1516  0.7690
  122SOPE  H14R12983   6.712   6.279   5.349 -0.8797 -0.3649 -1.0098
  122SOPE  H14S12984   6.600   6.160   5.412 -0.8072  2.4557 -0.2763
  122SOPE  C21512985   6.704   6.108   5.228 -0.1445  0.0366 -0.4527
  122SOPE  H15R12986   6.680   6.000   5.232 -1.1121  0.2678  0.4627
  122SOPE  H15S12987   6.803   6.125   5.181 -0.2381 -0.7934 -0.9588
  122SOPE  C21612988   6.602   6.173   5.131 -0.4171 -0.6976  0.6846
  122SOPE  H16R12989   6.653   6.260   5.083 -1.3716 -1.2529 -1.4818
  122SOPE  H16S12990   6.517   6.205   5.195 -0.9877 -3.4384  1.3996
  122SOPE  C21712991   6.569   6.086   5.013  0.6961 -0.6759  0.1775
  122SOPE  H17R12992   6.496   6.137   4.946  0.5321 -0.8819  0.1969
  122SOPE  H17S12993   6.516   5.997   5.051 -0.3822 -2.3962 -4.5759
  122SOPE  C21812994   6.687   6.030   4.935 -0.5163 -0.1359  0.4987
  122SOPE  H18R12995   6.747   5.963   5.000  0.8977  1.9395  1.4192
  122SOPE  H18S12996   6.748   6.117   4.902 -2.5147  0.5682 -1.6528
  122SOPE  H18T12997   6.654   5.988   4.837 -1.3930  1.9332 -0.1498
  122SOPE   C3312998   5.858   5.672   6.087 -0.1609 -1.3982  0.5361
  122SOPE   H3X12999   5.774   5.744   6.093  1.4739  0.4699  3.0287
  122SOPE   H3Y13000   5.873   5.643   5.981  0.1172 -0.2415  0.2420
  122SOPE   C3413001   5.978   5.751   6.153 -0.4459  0.1793 -0.1004
  122SOPE   H4X13002   6.064   5.682   6.170 -1.5601 -0.8282  1.6712
  122SOPE   H4Y13003   5.936   5.783   6.250  0.8398  1.5946  0.0303
  122SOPE   C3513004   6.038   5.875   6.075  0.1834 -1.2789 -0.3408
  122SOPE   H5X13005   6.130   5.914   6.123  0.3331  0.8077 -2.1695
  122SOPE   H5Y13006   5.966   5.959   6.081  0.8510 -0.4936 -2.3458
  122SOPE   C3613007   6.085   5.844   5.933 -0.0544 -0.3381  0.1812
  122SOPE   H6X13008   6.008   5.782   5.881 -0.7267  1.8904 -1.6504
  122SOPE   H6Y13009   6.174   5.780   5.947  0.7203  0.9561  1.3975
  122SOPE   C3713010   6.123   5.957   5.838 -0.2439  0.6080  0.5526
  122SOPE   H7X13011   6.213   6.007   5.881 -1.8138  2.3721  2.0054
  122SOPE   H7Y13012   6.034   6.023   5.831 -0.0691  0.8337  0.4328
  122SOPE   C3813013   6.153   5.914   5.684  0.5740  0.0321 -0.4139
  122SOPE   H8X13014   6.053   5.897   5.638 -0.5956  1.8096  1.2733
  122SOPE   H8Y13015   6.203   5.815   5.676 -0.6228 -0.6717  0.4005
  122SOPE   C3913016   6.220   6.027   5.606  0.2910 -0.1911 -0.1419
  122SOPE   H9X13017   6.324   6.041   5.640 -0.1180  1.4792  0.5125
  122SOPE   H9Y13018   6.164   6.122   5.619  0.2925 -0.0675 -0.9745
  122SOPE  C31013019   6.206   6.006   5.457  0.5697  0.3581  0.1232
  122SOPE  H10X13020   6.105   5.962   5.443  0.4693 -0.0811  1.8847
  122SOPE  H10Y13021   6.283   5.931   5.428 -0.2995 -0.6172  0.2731
  122SOPE  C31113022   6.206   6.135   5.374 -0.4030 -0.3347 -0.3470
  122SOPE  H11X13023   6.301   6.188   5.399  0.8207 -1.4756 -2.3241
  122SOPE  H11Y13024   6.127   6.207   5.403  1.0222  1.4940 -0.7924
  122SOPE  C31213025   6.196   6.122   5.227 -0.6185  0.5960 -0.6225
  122SOPE  H12X13026   6.108   6.057   5.206  0.5437 -0.9161 -1.0156
  122SOPE  H12Y13027   6.281   6.066   5.182 -1.3880 -1.4440  0.3474
  122SOPE  C31313028   6.183   6.256   5.148 -0.4374 -0.2811 -0.3285
  122SOPE  H13X13029   6.261   6.333   5.168  0.4023 -0.9785 -0.8754
  122SOPE  H13Y13030   6.093   6.302   5.196  0.8041  0.9274  0.9671
  122SOPE  C31413031   6.168   6.237   4.994  0.5762 -0.4258  0.4714
  122SOPE  H14X13032   6.073   6.185   4.969  0.3309  0.2319  0.0070
  122SOPE  H14Y13033   6.262   6.183   4.967  0.2752 -0.5449 -0.3484
  122SOPE  C31513034   6.154   6.366   4.913  0.3553 -0.4131 -0.7147
  122SOPE  H15X13035   6.252   6.417   4.925 -0.2067  1.2511 -2.6784
  122SOPE  H15Y13036   6.083   6.432   4.966  3.1173  2.0012  0.2847
  122SOPE  C31613037   6.118   6.345   4.767 -0.6031 -0.6277 -0.8207
  122SOPE  H16X13038   6.015   6.304   4.769 -0.0641 -2.0377 -0.1156
  122SOPE  H16Y13039   6.183   6.268   4.719  1.3894  0.6069 -0.2089
  122SOPE  C31713040   6.111   6.468   4.676  0.8589  0.9464  0.7809
  122SOPE  H17X13041   6.022   6.526   4.706 -0.5312  0.3241 -1.7913
  122SOPE  H17Y13042   6.078   6.424   4.579  2.9335 -0.0598  0.4565
  122SOPE  C31813043   6.237   6.547   4.658  0.3191  0.0463  0.3481
  122SOPE  H18X13044   6.317   6.473   4.635 -0.2882 -0.6141  0.3219
  122SOPE  H18Y13045   6.270   6.593   4.754  0.8624  1.1305 -0.3403
  122SOPE  H18Z13046   6.229   6.626   4.580  0.8936  1.6761  1.8631
  123SOPE     N13047   2.338   1.735   1.583  0.0617 -0.2653 -0.7246
  123SOPE   HN113048   2.284   1.647   1.577 -3.0302  1.4322  0.0443
  123SOPE   HN213049   2.333   1.791   1.496  0.7868  1.6711  0.4068
  123SOPE   HN313050   2.438   1.715   1.605 -0.1994  0.2345  1.1680
  123SOPE   C1213051   2.297   1.821   1.698 -0.3185  0.0674  0.5239
  123SOPE  H12A13052   2.290   1.760   1.791 -0.5494 -1.4242 -0.4410
  123SOPE  H12B13053   2.190   1.847   1.678 -0.7518 -2.6265 -1.1705
  123SOPE   C1113054   2.393   1.932   1.717 -0.5196  0.3620  0.0603
  123SOPE  H11A13055   2.346   2.004   1.788 -2.5332 -0.8058 -0.0237
  123SOPE  H11B13056   2.403   1.988   1.621 -1.5868  1.3767  0.5265
  123SOPE     P13057   2.595   1.985   1.879 -0.1404 -0.1093 -0.2308
  123SOPE   O1313058   2.578   2.132   1.866  0.6811 -0.1406  0.1263
  123SOPE   O1413059   2.733   1.935   1.887 -0.5541 -0.9304 -0.1948
  123SOPE   O1213060   2.521   1.896   1.764 -0.9537  0.0611  0.3931
  123SOPE   O1113061   2.497   1.939   1.996 -0.0075  0.6601  0.5080
  123SOPE    C113062   2.556   1.898   2.117  0.3541  0.6425  0.3599
  123SOPE    HA13063   2.639   1.824   2.116  0.9724  1.2992  1.2281
  123SOPE    HB13064   2.478   1.836   2.168  0.0980  0.2853 -0.4419
  123SOPE    C213065   2.592   2.017   2.214 -0.3873  0.8490 -0.3285
  123SOPE    HS13066   2.649   2.087   2.150  2.8590 -1.3348 -0.0511
  123SOPE   O2113067   2.675   1.957   2.317 -0.1612 -0.1564 -0.4789
  123SOPE   C2113068   2.748   2.051   2.385 -0.1348  0.0489 -0.0004
  123SOPE   O2213069   2.750   2.169   2.351 -0.1361  0.2927 -0.0865
  123SOPE   C2213070   2.825   1.991   2.502  0.6415 -0.5794 -0.9201
  123SOPE   H2R13071   2.928   1.975   2.464  1.7749  5.0226 -1.0915
  123SOPE   H2S13072   2.770   1.902   2.540 -2.7821  0.9514 -1.8931
  123SOPE    C313073   2.469   2.092   2.273  0.7407  0.2903  0.8266
  123SOPE    HX13074   2.427   2.143   2.183  1.5180  0.8166  0.7525
  123SOPE    HY13075   2.493   2.175   2.343  0.2874  2.2742 -1.2486
  123SOPE   O3113076   2.365   2.000   2.327 -0.2463 -0.1000  0.4372
  123SOPE   C3113077   2.394   1.959   2.451  0.0750  0.0132 -0.9890
  123SOPE   O3213078   2.476   2.014   2.525  0.2498  0.5507 -0.0363
  123SOPE   C3213079   2.317   1.838   2.484  0.0178  0.5993  0.1251
  123SOPE   H2X13080   2.366   1.785   2.568  0.4513 -1.6290 -1.4298
  123SOPE   H2Y13081   2.314   1.759   2.406  0.5131 -1.7929  2.3757
  123SOPE   C2313082   2.830   2.100   2.611 -0.0711 -0.7331 -0.0996
  123SOPE   H3R13083   2.735   2.131   2.660  0.9817 -0.3310  1.7872
  123SOPE   H3S13084   2.864   2.191   2.558 -2.6777 -0.3055 -1.1872
  123SOPE   C2413085   2.945   2.077   2.712  0.8824 -0.2194 -0.0104
  123SOPE   H4R13086   2.924   1.981   2.766  0.2655  0.4865  1.0480
  123SOPE   H4S13087   3.041   2.077   2.657  1.0005  0.3561  0.2009
  123SOPE   C2513088   2.958   2.181   2.826  0.1606 -0.5687 -0.5477
  123SOPE   H5R13089   2.961   2.275   2.768 -0.9432 -0.1881 -0.0264
  123SOPE   H5S13090   2.879   2.178   2.904  0.3657  1.4783 -0.2091
  123SOPE   C2613091   3.092   2.177   2.897 -0.0944  0.2903  0.1865
  123SOPE   H6R13092   3.108   2.085   2.958  0.3487  0.6367  0.6048
  123SOPE   H6S13093   3.173   2.174   2.821  1.7058 -0.0040  2.0169
  123SOPE   C2713094   3.123   2.296   2.988 -0.0311  0.8952 -0.6570
  123SOPE   H7R13095   3.227   2.280   3.023  0.2394  2.0123 -0.9306
  123SOPE   H7S13096   3.108   2.389   2.929 -2.5358  0.8975 -0.1238
  123SOPE   C2813097   3.026   2.294   3.116  0.5064 -0.0082  0.1398
  123SOPE   H8R13098   2.926   2.306   3.070 -0.3111 -0.9149  1.5838
  123SOPE   H8S13099   3.028   2.191   3.159  0.1938  0.6110  1.7076
  123SOPE   C2913100   3.055   2.386   3.233  0.2988  0.1964  0.6311
  123SOPE   H9113101   3.003   2.482   3.223  2.3804  1.3652  0.5523
  123SOPE  C21013102   3.116   2.344   3.348  0.2305 -0.0287  0.3584
  123SOPE  H10113103   3.106   2.404   3.440  1.1362  0.9429 -0.1511
  123SOPE  C21113104   3.185   2.208   3.374  0.1353  0.3868 -0.5474
  123SOPE  H11R13105   3.237   2.169   3.285  1.2517 -0.7643  0.5654
  123SOPE  H11S13106   3.107   2.139   3.412  0.6015 -0.1240 -0.5136
  123SOPE  C21213107   3.299   2.219   3.476 -0.0024 -0.4552  0.0071
  123SOPE  H12R13108   3.275   2.254   3.579 -2.1690 -1.5725 -0.0639
  123SOPE  H12S13109   3.375   2.294   3.448 -0.2081  0.8734  2.6513
  123SOPE  C21313110   3.368   2.082   3.493 -0.6186  0.2051 -0.3025
  123SOPE  H13R13111   3.386   2.022   3.401  2.7221  0.1928  0.2558
  123SOPE  H13S13112   3.295   2.022   3.552  0.7915  1.3718  2.8297
  123SOPE  C21413113   3.507   2.082   3.558  0.0985  0.0871  0.7103
  123SOPE  H14R13114   3.565   2.155   3.497 -0.1295  1.4428  2.0578
  123SOPE  H14S13115   3.551   1.982   3.539 -1.8425 -0.9565  1.3973
  123SOPE  C21513116   3.503   2.124   3.703  0.1843 -0.1719 -0.9956
  123SOPE  H15R13117   3.438   2.061   3.766  0.8624  0.7970  0.7357
  123SOPE  H15S13118   3.450   2.222   3.704 -1.5694 -1.0349 -2.2269
  123SOPE  C21613119   3.637   2.140   3.786  0.3528 -0.0666 -0.5166
  123SOPE  H16R13120   3.674   2.230   3.732 -0.4387 -0.8414 -2.4399
  123SOPE  H16S13121   3.705   2.054   3.766  0.1445  0.0830 -1.9720
  123SOPE  C21713122   3.610   2.183   3.931  0.3078  0.0884 -0.2666
  123SOPE  H17R13123   3.536   2.115   3.979  0.1078  0.8219  0.4775
  123SOPE  H17S13124   3.580   2.289   3.935  4.0914  1.2514  1.2734
  123SOPE  C21813125   3.735   2.185   4.017 -0.2081  0.3090 -0.1301
  123SOPE  H18R13126   3.782   2.085   4.024  1.5105  0.9948 -1.3121
  123SOPE  H18S13127   3.708   2.226   4.117  2.4145 -0.4952  0.9980
  123SOPE  H18T13128   3.823   2.246   3.987  0.9830 -1.0545  0.4502
  123SOPE   C3313129   2.174   1.882   2.522  0.3194  0.3349  0.2067
  123SOPE   H3X13130   2.115   1.792   2.550 -1.9063  0.7939 -2.5545
  123SOPE   H3Y13131   2.120   1.914   2.431  0.4388 -2.2080 -0.8398
  123SOPE   C3413132   2.164   1.993   2.630  0.6296  0.4420  0.3214
  123SOPE   H4X13133   2.058   2.022   2.650 -0.0752 -0.6985 -1.4902
  123SOPE   H4Y13134   2.207   2.089   2.594  1.7656 -0.2525 -0.2094
  123SOPE   C3513135   2.231   1.963   2.765 -0.2005 -0.0747  0.4354
  123SOPE   H5X13136   2.217   2.048   2.835  0.4948 -0.1653  0.6924
  123SOPE   H5Y13137   2.341   1.945   2.760 -0.1014  0.8088 -1.6491
  123SOPE   C3613138   2.171   1.846   2.836 -0.2781  0.8276 -0.6013
  123SOPE   H6X13139   2.197   1.754   2.780  2.4297  0.8800  0.4031
  123SOPE   H6Y13140   2.062   1.865   2.842  0.1130  2.9351  1.8945
  123SOPE   C3713141   2.215   1.821   2.986  0.1015  0.1798 -0.8721
  123SOPE   H7X13142   2.323   1.849   2.993  0.3768 -0.8404 -0.8738
  123SOPE   H7Y13143   2.199   1.721   3.031 -0.8880  0.6724 -0.0823
  123SOPE   C3813144   2.139   1.919   3.082 -0.5970  0.9121  0.3432
  123SOPE   H8X13145   2.028   1.913   3.076 -0.5347  0.7280 -0.9510
  123SOPE   H8Y13146   2.161   2.022   3.044  1.3655 -0.1387 -1.5723
  123SOPE   C3913147   2.199   1.911   3.226 -0.3578 -0.4971  0.4080
  123SOPE   H9X13148   2.306   1.938   3.212 -0.4534 -0.0372  0.5476
  123SOPE   H9Y13149   2.186   1.809   3.267 -1.0085 -0.2132  0.9239
  123SOPE  C31013150   2.135   2.013   3.316 -0.2925  0.3287  0.0042
  123SOPE  H10X13151   2.025   2.000   3.308 -0.3532  0.8373  0.0159
  123SOPE  H10Y13152   2.148   2.116   3.278  0.7516  0.1249 -0.2287
  123SOPE  C31113153   2.171   2.002   3.462 -0.1695  0.1330  0.1584
  123SOPE  H11X13154   2.280   1.994   3.445 -0.1455  1.0361 -0.1471
  123SOPE  H11Y13155   2.129   1.907   3.501 -1.4198  0.6616  0.1329
  123SOPE  C31213156   2.114   2.123   3.544 -0.1096 -0.1675  0.1207
  123SOPE  H12X13157   2.013   2.149   3.506  0.0651  1.1638  0.5267
  123SOPE  H12Y13158   2.187   2.199   3.511 -3.0394  2.2431 -1.2448
  123SOPE  C31313159   2.122   2.102   3.694 -0.3187 -0.7913 -0.5213
  123SOPE  H13X13160   2.219   2.051   3.708  1.6530  2.2624 -2.0910
  123SOPE  H13Y13161   2.042   2.036   3.734  0.6367 -1.5755  0.1309
  123SOPE  C31413162   2.117   2.232   3.778  0.1982 -0.3094 -0.6990
  123SOPE  H14X13163   2.013   2.267   3.793  1.0864  2.3053 -0.1603
  123SOPE  H14Y13164   2.177   2.312   3.731  1.3906  0.0619  1.3623
  123SOPE  C31513165   2.165   2.220   3.928 -0.8012 -0.5058 -0.2832
  123SOPE  H15X13166   2.098   2.151   3.984 -1.4179 -0.3879 -0.8701
  123SOPE  H15Y13167   2.150   2.321   3.973 -1.4507 -0.6579 -0.1423
  123SOPE  C31613168   2.314   2.178   3.959  0.3959 -0.5552 -0.4324
  123SOPE  H16X13169   2.371   2.244   3.890 -0.8052 -0.1073 -1.0328
  123SOPE  H16Y13170   2.347   2.078   3.924  0.0945 -1.0351  0.6213
  123SOPE  C31713171   2.364   2.212   4.105  0.3634  0.0036  0.1601
  123SOPE  H17X13172   2.308   2.148   4.176  1.0008  1.3277  1.9369
  123SOPE  H17Y13173   2.331   2.317   4.118 -0.2220  0.0048 -1.1401
  123SOPE  C31813174   2.517   2.196   4.122 -0.2571 -0.0862  1.6867
  123SOPE  H18X13175   2.550   2.120   4.048  0.5517  1.8505 -0.0416
  123SOPE  H18Y13176   2.547   2.152   4.220 -0.9125 -2.9671  0.6864
  123SOPE  H18Z13177   2.565   2.292   4.092 -3.3604  1.0840 -0.0110
  124SOPE     N13178   5.825   5.020   2.398  0.3946 -0.3752  0.8721
  124SOPE   HN113179   5.843   4.919   2.383  1.8407  0.2241 -2.2701
  124SOPE   HN213180   5.765   5.047   2.317  1.2078 -1.2002 -0.0312
  124SOPE   HN313181   5.911   5.077   2.392 -1.0387  2.0118  1.4251
  124SOPE   C1213182   5.768   5.061   2.524  0.1779 -0.3122 -0.0232
  124SOPE  H12A13183   5.854   5.103   2.580  1.0010  1.2869 -2.3408
  124SOPE  H12B13184   5.728   4.969   2.573 -2.1323  1.0917  0.8816
  124SOPE   C1113185   5.652   5.151   2.499 -0.0811  0.1484  0.2554
  124SOPE  H11A13186   5.688   5.250   2.463 -0.2816  1.1018  2.5017
  124SOPE  H11B13187   5.605   5.144   2.599  1.3495 -3.6924  0.8356
  124SOPE     P13188   5.412   5.122   2.400  0.1148 -0.0294  0.6096
  124SOPE   O1313189   5.370   5.130   2.260  0.4691 -0.1114  0.8448
  124SOPE   O1413190   5.392   5.244   2.476  0.4685 -0.2758  0.0782
  124SOPE   O1213191   5.568   5.089   2.408 -0.2126  0.0344  0.6132
  124SOPE   O1113192   5.342   5.003   2.475  0.3684  0.3979  0.0376
  124SOPE    C113193   5.412   4.881   2.505  0.7271 -0.3408 -0.3239
  124SOPE    HA13194   5.514   4.875   2.460 -0.1114 -1.3340 -2.2027
  124SOPE    HB13195   5.354   4.796   2.463  1.1580 -0.9915  0.3671
  124SOPE    C213196   5.424   4.856   2.657  0.4140 -0.8006  0.6607
  124SOPE    HS13197   5.325   4.820   2.693  0.4891 -0.0432  1.6611
  124SOPE   O2113198   5.471   4.972   2.723  0.2044 -0.1266 -0.0641
  124SOPE   C2113199   5.371   5.046   2.762 -0.3492  0.1749  0.5641
  124SOPE   O2213200   5.254   5.026   2.739  0.1337 -0.0861 -0.3234
  124SOPE   C2213201   5.424   5.167   2.841 -0.6938 -0.2684 -0.2115
  124SOPE   H2R13202   5.335   5.221   2.879 -0.4571 -0.7834  1.1331
  124SOPE   H2S13203   5.478   5.223   2.762  0.4397 -2.2952 -0.9433
  124SOPE    C313204   5.526   4.742   2.673  1.0895 -0.5493 -0.5484
  124SOPE    HX13205   5.626   4.785   2.651  2.0534 -1.4490  1.7839
  124SOPE    HY13206   5.512   4.668   2.591 -1.2489 -2.5526  1.4713
  124SOPE   O3113207   5.524   4.682   2.807  0.1536  0.5325  0.0254
  124SOPE   C3113208   5.422   4.595   2.826 -0.1281 -0.0180  0.9001
  124SOPE   O3213209   5.344   4.559   2.737  0.3585  0.6397  0.2156
  124SOPE   C3213210   5.430   4.549   2.972  0.2205 -0.0412 -0.2470
  124SOPE   H2X13211   5.535   4.514   2.988  0.1616  0.0702  0.4220
  124SOPE   H2Y13212   5.373   4.454   2.981 -0.1769  0.2534  0.3741
  124SOPE   C2313213   5.509   5.139   2.970  0.9354  0.8106  0.0239
  124SOPE   H3R13214   5.619   5.137   2.959  0.9654 -0.6240  0.4456
  124SOPE   H3S13215   5.486   5.033   2.992  2.9054  0.4301  0.4666
  124SOPE   C2413216   5.466   5.228   3.093  0.3488 -0.1036  0.0819
  124SOPE   H4R13217   5.426   5.324   3.055  1.3093  0.7723  1.2042
  124SOPE   H4S13218   5.373   5.194   3.142  1.1826  1.7918  3.2487
  124SOPE   C2513219   5.570   5.252   3.212 -0.6518  0.0710  0.5846
  124SOPE   H5R13220   5.608   5.149   3.231  0.0323  0.0960 -0.5087
  124SOPE   H5S13221   5.655   5.312   3.172  0.6312 -1.8207  0.3116
  124SOPE   C2613222   5.510   5.327   3.335  0.1004  0.3482  0.5326
  124SOPE   H6R13223   5.587   5.338   3.415  1.9493 -0.2338 -1.0859
  124SOPE   H6S13224   5.496   5.427   3.287 -0.4583 -0.0829 -0.2088
  124SOPE   C2713225   5.379   5.273   3.397 -0.0221 -0.4475 -0.0435
  124SOPE   H7R13226   5.307   5.231   3.324 -0.4015  1.0562 -0.5737
  124SOPE   H7S13227   5.406   5.192   3.468  0.1864  0.9359  1.4952
  124SOPE   C2813228   5.308   5.379   3.479  0.3793  1.0636 -0.1021
  124SOPE   H8R13229   5.386   5.423   3.545  1.7560 -1.7216  0.2984
  124SOPE   H8S13230   5.278   5.455   3.404  0.1191 -2.2488 -3.6949
  124SOPE   C2913231   5.189   5.318   3.554 -0.4257 -0.3737  0.2796
  124SOPE   H9113232   5.135   5.236   3.506 -3.6489  0.8498  1.5618
  124SOPE  C21013233   5.149   5.352   3.675  0.1865  0.2242 -0.6076
  124SOPE  H10113234   5.068   5.296   3.725  0.5264  0.4913  0.2602
  124SOPE  C21113235   5.204   5.469   3.760  0.2719 -0.1183  0.6229
  124SOPE  H11R13236   5.149   5.565   3.745 -1.2515 -1.1069 -0.5331
  124SOPE  H11S13237   5.312   5.484   3.742 -0.3947  2.7482 -1.8247
  124SOPE  C21213238   5.194   5.434   3.909 -0.2785  0.2720 -0.1986
  124SOPE  H12R13239   5.092   5.401   3.933 -0.5689  1.3422  0.1128
  124SOPE  H12S13240   5.221   5.526   3.966 -1.1458 -0.3217  1.2177
  124SOPE  C21313241   5.306   5.335   3.956  0.1263  0.1196  0.2209
  124SOPE  H13R13242   5.407   5.381   3.963  1.3461 -2.0591 -1.7444
  124SOPE  H13S13243   5.319   5.256   3.879 -2.6872 -0.9110  0.7151
  124SOPE  C21413244   5.275   5.272   4.089  0.2868 -0.6107  0.1461
  124SOPE  H14R13245   5.188   5.203   4.092 -0.4370  0.2478 -0.5040
  124SOPE  H14S13246   5.243   5.350   4.162 -0.0020  0.2161 -0.8309
  124SOPE  C21513247   5.393   5.195   4.158  0.0955 -0.0605  0.8268
  124SOPE  H15R13248   5.477   5.267   4.168  3.7238 -3.4613 -1.8389
  124SOPE  H15S13249   5.435   5.104   4.110 -2.2159  0.4277 -2.5101
  124SOPE  C21613250   5.367   5.145   4.300  0.2331  0.4143 -0.5817
  124SOPE  H16R13251   5.455   5.094   4.342 -0.0347 -1.4509 -2.1553
  124SOPE  H16S13252   5.284   5.071   4.296 -1.0982  1.6150  1.9290
  124SOPE  C21713253   5.318   5.248   4.401 -0.2386 -0.2538  0.0671
  124SOPE  H17R13254   5.294   5.190   4.493 -1.4088  1.1170  0.6684
  124SOPE  H17S13255   5.224   5.301   4.374  2.1578  4.1983 -0.5474
  124SOPE  C21813256   5.435   5.347   4.427 -0.6921  0.3882 -0.1898
  124SOPE  H18R13257   5.415   5.430   4.499 -0.5457 -0.3767  0.7532
  124SOPE  H18S13258   5.456   5.388   4.326 -1.9202 -0.4385 -0.8136
  124SOPE  H18T13259   5.522   5.296   4.472  0.0830  2.8410  1.2782
  124SOPE   C3313260   5.389   4.656   3.070  0.2576  0.1744 -0.3469
  124SOPE   H3X13261   5.414   4.760   3.040 -1.6288 -0.0231 -2.8895
  124SOPE   H3Y13262   5.448   4.638   3.163  1.4146  1.8901 -0.6947
  124SOPE   C3413263   5.241   4.665   3.114 -0.9325  0.1926 -0.2434
  124SOPE   H4X13264   5.168   4.672   3.031  0.6744  2.3916 -1.5955
  124SOPE   H4Y13265   5.231   4.757   3.175  1.0507  0.3799 -0.1199
  124SOPE   C3513266   5.203   4.541   3.202 -0.4838 -0.2441  0.0066
  124SOPE   H5X13267   5.218   4.445   3.149  0.2799 -0.7908  1.1814
  124SOPE   H5Y13268   5.094   4.556   3.217 -0.5009  1.8441 -1.5855
  124SOPE   C3613269   5.269   4.531   3.338  0.0301 -0.1358 -0.3404
  124SOPE   H6X13270   5.308   4.632   3.365  1.5598  0.0089 -2.7920
  124SOPE   H6Y13271   5.365   4.476   3.337  0.4670  0.6022 -0.2343
  124SOPE   C3713272   5.178   4.471   3.454  0.9677 -0.0230  0.1131
  124SOPE   H7X13273   5.159   4.366   3.423 -0.2359  0.3332 -0.4240
  124SOPE   H7Y13274   5.081   4.524   3.467 -0.6681 -2.3570 -1.5922
  124SOPE   C3813275   5.246   4.487   3.587  0.0687  0.5968 -0.1543
  124SOPE   H8X13276   5.171   4.472   3.667  0.8697  0.4394  0.5785
  124SOPE   H8Y13277   5.281   4.592   3.584 -1.1676  1.0592  0.8336
  124SOPE   C3913278   5.363   4.393   3.609  0.6997  0.3203  0.5592
  124SOPE   H9X13279   5.436   4.418   3.529  0.3312  3.9980  1.1921
  124SOPE   H9Y13280   5.324   4.289   3.598 -0.1867  0.8252 -1.6423
  124SOPE  C31013281   5.442   4.401   3.738 -0.3529  0.7648  0.4357
  124SOPE  H10X13282   5.374   4.397   3.826 -1.7538 -0.2961 -0.6482
  124SOPE  H10Y13283   5.491   4.500   3.739  0.2214  0.4889  0.4470
  124SOPE  C31113284   5.550   4.292   3.739  0.1289  0.0366 -0.0697
  124SOPE  H11X13285   5.616   4.321   3.654 -0.5603  0.0261 -0.6168
  124SOPE  H11Y13286   5.498   4.196   3.719  0.5731 -0.9472  3.0206
  124SOPE  C31213287   5.614   4.296   3.878 -0.3245 -0.2070 -0.1471
  124SOPE  H12X13288   5.618   4.403   3.905  2.6511 -0.1119 -0.5820
  124SOPE  H12Y13289   5.718   4.263   3.857  0.0257  1.8088 -1.8732
  124SOPE  C31313290   5.533   4.207   3.978 -0.0819 -0.2374  0.2963
  124SOPE  H13X13291   5.531   4.101   3.944  1.9425 -0.1442 -0.2106
  124SOPE  H13Y13292   5.430   4.249   3.976  0.3988  0.9755  0.4445
  124SOPE  C31413293   5.598   4.216   4.115  0.4049 -0.3709 -0.0779
  124SOPE  H14X13294   5.607   4.325   4.135 -2.5035 -0.1718  0.5413
  124SOPE  H14Y13295   5.703   4.181   4.114  0.7378  0.5147 -2.2477
  124SOPE  C31513296   5.510   4.141   4.211  0.6028  0.0428 -0.8921
  124SOPE  H15X13297   5.495   4.040   4.166 -4.3022  0.4378 -0.7456
  124SOPE  H15Y13298   5.409   4.183   4.231  0.6836 -1.1861  2.9088
  124SOPE  C31613299   5.581   4.106   4.347 -0.0031  0.2078 -0.6483
  124SOPE  H16X13300   5.604   4.199   4.403  0.4195  0.4587 -1.2220
  124SOPE  H16Y13301   5.672   4.046   4.325 -0.8645 -1.3595 -0.1047
  124SOPE  C31713302   5.483   4.033   4.448  0.0550 -0.0215  0.3383
  124SOPE  H17X13303   5.464   3.941   4.388  0.6167  1.8451 -2.9865
  124SOPE  H17Y13304   5.384   4.084   4.448  0.2719  0.5119 -2.0304
  124SOPE  C31813305   5.531   4.007   4.595  0.4826  0.1525 -0.4423
  124SOPE  H18X13306   5.639   3.989   4.582  0.2650 -2.6276  0.9284
  124SOPE  H18Y13307   5.482   3.918   4.640 -2.2206  1.8231  0.1926
  124SOPE  H18Z13308   5.527   4.093   4.665  0.1020  0.1493 -0.4565
  125SOPE     N13309   0.602   5.332   2.377  0.5527  0.4605  0.3666
  125SOPE   HN113310   0.636   5.235   2.390  1.4225  0.7409  0.3016
  125SOPE   HN213311   0.501   5.334   2.355  0.1890 -0.1386  1.8874
  125SOPE   HN313312   0.650   5.368   2.292  0.5900  0.4288  0.3743
  125SOPE   C1213313   0.617   5.419   2.493 -0.2778  0.1612 -0.0924
  125SOPE  H12A13314   0.551   5.507   2.477  1.4609  1.5049 -0.1910
  125SOPE  H12B13315   0.722   5.455   2.502 -0.0205 -1.0379  2.5081
  125SOPE   C1113316   0.564   5.356   2.622 -0.1469 -0.3831 -0.5440
  125SOPE  H11A13317   0.571   5.430   2.704 -1.1009 -0.5837 -0.2653
  125SOPE  H11B13318   0.626   5.270   2.653  0.3459 -0.1741 -0.9321
  125SOPE     P13319   0.305   5.400   2.636 -0.3197 -0.3126  0.3760
  125SOPE   O1313320   0.194   5.366   2.544  0.2348 -0.2388 -0.3652
  125SOPE   O1413321   0.338   5.546   2.648 -0.3287  0.4104 -0.2922
  125SOPE   O1213322   0.431   5.314   2.592 -0.2502 -0.0781 -0.3804
  125SOPE   O1113323   0.270   5.356   2.785  0.3576  0.0590 -0.7338
  125SOPE    C113324   0.352   5.264   2.860  0.0711 -0.2078  0.4636
  125SOPE    HA13325   0.459   5.292   2.856  0.4233 -1.4368  0.6343
  125SOPE    HB13326   0.331   5.168   2.808 -1.6200  0.1859  0.3602
  125SOPE    C213327   0.301   5.262   3.002  0.5075 -0.0388  0.7639
  125SOPE    HS13328   0.372   5.198   3.059  0.1565 -0.6258  0.5522
  125SOPE   O2113329   0.164   5.220   3.009 -0.0368 -0.2266 -0.3565
  125SOPE   C2113330   0.142   5.092   2.972  0.0101 -0.4793  0.2774
  125SOPE   O2213331   0.227   5.008   2.958  0.3237 -0.5850  0.0172
  125SOPE   C2213332  -0.008   5.063   2.972  0.7776  0.6367  0.4646
  125SOPE   H2R13333  -0.018   4.956   2.945  0.4469  0.5842  0.7902
  125SOPE   H2S13334  -0.073   5.122   2.904 -1.0084 -1.0452  0.6364
  125SOPE    C313335   0.315   5.401   3.060  0.6094  0.1892 -0.1759
  125SOPE    HX13336   0.239   5.464   3.009 -2.2198 -2.5313  0.3678
  125SOPE    HY13337   0.417   5.430   3.025  0.6366 -0.8029 -0.9820
  125SOPE   O3113338   0.287   5.413   3.204 -0.3976 -0.4541 -0.2168
  125SOPE   C3113339   0.404   5.434   3.272 -0.0703 -0.1030  0.2227
  125SOPE   O3213340   0.513   5.467   3.221  0.2130  0.0684  0.2094
  125SOPE   C3213341   0.372   5.399   3.414 -0.0551  0.0169 -0.2681
  125SOPE   H2X13342   0.364   5.289   3.424 -2.9357  0.0194 -1.6524
  125SOPE   H2Y13343   0.277   5.440   3.455  0.7972  1.7452  0.0911
  125SOPE   C2313344  -0.087   5.077   3.114 -0.4174  0.7760  1.3959
  125SOPE   H3R13345  -0.185   5.027   3.108  0.0908 -0.0905 -0.5295
  125SOPE   H3S13346  -0.111   5.185   3.125 -0.7351  1.0403 -1.2513
  125SOPE   C2413347  -0.006   5.018   3.226  0.2952 -0.1804  0.0477
  125SOPE   H4R13348  -0.004   4.907   3.222  0.5802 -0.2211  1.0337
  125SOPE   H4S13349   0.100   5.049   3.236  0.4238  0.0535 -1.7325
  125SOPE   C2513350  -0.065   5.055   3.367 -0.1019 -0.3493 -0.0091
  125SOPE   H5R13351  -0.063   5.166   3.372 -2.4049 -0.1354 -1.8486
  125SOPE   H5S13352  -0.171   5.022   3.381 -0.6685  1.4737  0.2858
  125SOPE   C2613353   0.011   5.003   3.484 -0.5495  0.3780 -0.3205
  125SOPE   H6R13354  -0.026   5.045   3.580 -0.3282  0.6942 -0.3713
  125SOPE   H6S13355   0.014   4.892   3.488  2.2692  0.4179  0.7344
  125SOPE   C2713356   0.164   5.024   3.484 -0.7875 -0.3510  0.3732
  125SOPE   H7R13357   0.211   4.952   3.414  1.1852 -0.9080  2.1409
  125SOPE   H7S13358   0.200   5.120   3.441  1.7601 -1.8242 -1.0085
  125SOPE   C2813359   0.241   5.014   3.622  0.1728  0.2251 -0.2023
  125SOPE   H8R13360   0.242   4.909   3.660  0.1153 -0.0796 -1.0370
  125SOPE   H8S13361   0.350   5.036   3.617  0.1185  1.9135  3.1381
  125SOPE   C2913362   0.186   5.108   3.726 -0.1053 -0.0258 -0.3030
  125SOPE   H9113363   0.140   5.200   3.688  0.9148 -0.5518 -2.9826
  125SOPE  C21013364   0.157   5.074   3.855 -0.4781  0.7596 -0.4356
  125SOPE  H10113365   0.089   5.140   3.911 -0.1915  0.8835 -0.2309
  125SOPE  C21113366   0.179   4.938   3.918  0.0116  0.0052  0.0370
  125SOPE  H11R13367   0.220   4.862   3.847 -1.0738 -0.7521  0.1917
  125SOPE  H11S13368   0.078   4.898   3.944 -0.1551  1.6944  2.2039
  125SOPE  C21213369   0.253   4.941   4.052 -0.7426 -0.7804  0.1446
  125SOPE  H12R13370   0.339   5.011   4.047 -0.5292 -0.8932  1.7225
  125SOPE  H12S13371   0.304   4.845   4.080  1.4284 -0.2691 -1.7132
  125SOPE  C21313372   0.173   4.987   4.175  0.0716 -0.1009 -0.7270
  125SOPE  H13R13373   0.093   4.911   4.189 -0.5908  1.0658  2.6369
  125SOPE  H13S13374   0.132   5.086   4.145  1.4257  0.4092 -0.9828
  125SOPE  C21413375   0.264   4.981   4.302  0.2708 -0.2762  0.3530
  125SOPE  H14R13376   0.341   5.060   4.288 -1.4686  2.1745  3.4232
  125SOPE  H14S13377   0.312   4.881   4.310  0.1209 -0.2480  1.8344
  125SOPE  C21513378   0.198   5.036   4.419  0.5934 -0.3947  0.1960
  125SOPE  H15R13379   0.101   4.987   4.443 -1.6751  2.6126 -2.0408
  125SOPE  H15S13380   0.178   5.141   4.391  1.7258 -0.1327  0.3332
  125SOPE  C21613381   0.281   5.033   4.549 -0.5648 -0.3716  0.1987
  125SOPE  H16R13382   0.375   5.078   4.509  0.6789 -2.6874  0.3470
  125SOPE  H16S13383   0.304   4.926   4.569  0.4110 -0.3422 -0.6457
  125SOPE  C21713384   0.221   5.116   4.673  0.0382 -0.2829 -1.0786
  125SOPE  H17R13385   0.177   5.214   4.645  0.6194 -0.1396 -1.5142
  125SOPE  H17S13386   0.305   5.154   4.735 -1.1131  1.0487 -0.2741
  125SOPE  C21813387   0.106   5.044   4.754 -0.1519  0.1302 -0.3198
  125SOPE  H18R13388   0.018   5.052   4.687 -0.4247  0.6636  0.0911
  125SOPE  H18S13389   0.076   5.095   4.848 -0.6647  0.5746 -0.7160
  125SOPE  H18T13390   0.122   4.935   4.762 -0.3565  0.1009 -0.3159
  125SOPE   C3313391   0.483   5.453   3.506  0.0202 -0.1533  0.3555
  125SOPE   H3X13392   0.496   5.563   3.501  3.1436 -0.4818 -1.9426
  125SOPE   H3Y13393   0.580   5.412   3.469  0.0954  0.7154 -0.4205
  125SOPE   C3413394   0.470   5.390   3.653  0.0226  0.6488  0.3569
  125SOPE   H4X13395   0.565   5.386   3.711 -1.1208 -2.7151  2.2686
  125SOPE   H4Y13396   0.448   5.282   3.641  0.4038  0.5393  0.5974
  125SOPE   C3513397   0.363   5.468   3.730 -0.7480  0.7213  0.2528
  125SOPE   H5X13398   0.258   5.449   3.699 -0.2346  0.5044 -1.4909
  125SOPE   H5Y13399   0.403   5.571   3.736  1.3642  0.1414 -2.0729
  125SOPE   C3613400   0.375   5.431   3.881 -0.1748  0.3156  0.1522
  125SOPE   H6X13401   0.466   5.481   3.921  0.9666 -1.5430  0.0361
  125SOPE   H6Y13402   0.383   5.320   3.888 -1.5478  0.1668 -0.3439
  125SOPE   C3713403   0.257   5.475   3.973  0.5628 -0.1766  1.1353
  125SOPE   H7X13404   0.165   5.427   3.933  0.5910  0.2974  0.4750
  125SOPE   H7Y13405   0.236   5.583   3.964  1.2305 -0.1691 -0.8476
  125SOPE   C3813406   0.280   5.440   4.121 -0.0392  0.3643 -0.1374
  125SOPE   H8X13407   0.387   5.455   4.146  0.0941  0.2790 -0.6477
  125SOPE   H8Y13408   0.258   5.331   4.129 -0.6481  0.5960  2.1231
  125SOPE   C3913409   0.190   5.531   4.204 -0.1923 -0.3513 -0.3214
  125SOPE   H9X13410   0.086   5.516   4.168  0.2805  0.1265 -1.9190
  125SOPE   H9Y13411   0.226   5.635   4.195 -1.7306  0.3978  1.4468
  125SOPE  C31013412   0.207   5.510   4.355  0.4327  0.1521 -0.0375
  125SOPE  H10X13413   0.308   5.546   4.383  0.6548 -2.3296  2.8758
  125SOPE  H10Y13414   0.191   5.402   4.377 -1.8771  0.6002  0.7078
  125SOPE  C31113415   0.101   5.581   4.436  0.4900  1.0939  0.1702
  125SOPE  H11X13416   0.116   5.571   4.546 -1.8732 -1.0190  0.3704
  125SOPE  H11Y13417   0.003   5.538   4.407  0.4117  0.4649  1.2980
  125SOPE  C31213418   0.094   5.733   4.417  0.4523 -0.2705  0.5069
  125SOPE  H12X13419  -0.002   5.776   4.456  0.1999 -1.7244  1.5517
  125SOPE  H12Y13420   0.107   5.755   4.309  1.3728 -3.3140 -0.0805
  125SOPE  C31313421   0.212   5.801   4.495  0.0813 -0.2602  0.2222
  125SOPE  H13X13422   0.307   5.748   4.472  0.9245  0.9768  0.6819
  125SOPE  H13Y13423   0.187   5.787   4.602 -0.2955  0.3730  0.2222
  125SOPE  C31413424   0.217   5.953   4.460 -0.0736 -0.2372 -0.4651
  125SOPE  H14X13425   0.195   5.956   4.351 -2.3029  2.3743 -0.0406
  125SOPE  H14Y13426   0.322   5.982   4.480 -0.4000  0.7443 -0.1221
  125SOPE  C31513427   0.122   6.030   4.547  0.4828 -1.0101 -0.2987
  125SOPE  H15X13428   0.157   6.027   4.653  0.7909  0.2440 -0.3473
  125SOPE  H15Y13429   0.021   5.982   4.542 -1.0963  1.8793  1.0953
  125SOPE  C31613430   0.110   6.182   4.511  0.2868 -0.0809 -0.1857
  125SOPE  H16X13431   0.071   6.187   4.407  1.2388  2.4171 -0.4804
  125SOPE  H16Y13432   0.213   6.222   4.504 -0.0994  1.0802  0.5366
  125SOPE  C31713433   0.030   6.272   4.609  0.5931 -0.7717  0.1294
  125SOPE  H17X13434   0.076   6.261   4.709  0.3342  1.4917  0.5537
  125SOPE  H17Y13435  -0.074   6.236   4.614  0.5069 -0.9216 -1.9237
  125SOPE  C31813436   0.027   6.429   4.579 -0.1979 -0.1386  0.0892
  125SOPE  H18X13437  -0.020   6.484   4.663 -3.9508 -2.4769 -0.2514
  125SOPE  H18Y13438  -0.032   6.448   4.486  0.2499 -1.3946 -0.4749
  125SOPE  H18Z13439   0.128   6.470   4.557 -1.5268  2.8479 -0.9948
  126SOPE     N13440   1.488   2.982   2.076  0.3908  0.1159  0.6304
  126SOPE   HN113441   1.397   3.002   2.123  0.8546  1.5616  0.9543
  126SOPE   HN213442   1.572   3.014   2.128  0.8915 -0.8548  0.4486
  126SOPE   HN313443   1.490   3.033   1.986 -1.0336 -0.9564 -0.0531
  126SOPE   C1213444   1.503   2.832   2.050  0.5393 -0.3046  0.6584
  126SOPE  H12A13445   1.403   2.808   2.008 -1.2770  2.1200  3.1908
  126SOPE  H12B13446   1.517   2.800   2.156 -1.3003  1.8701  1.6694
  126SOPE   C1113447   1.605   2.806   1.950 -0.5743  0.4701 -0.1377
  126SOPE  H11A13448   1.702   2.821   2.002 -0.0348 -0.9735 -0.6888
  126SOPE  H11B13449   1.583   2.874   1.864 -1.5926 -0.6460 -0.7858
  126SOPE     P13450   1.735   2.587   1.874  0.1063 -0.1360  0.4696
  126SOPE   O1313451   1.823   2.672   1.791  0.1054 -0.0969  0.4161
  126SOPE   O1413452   1.708   2.451   1.821  0.2399 -0.0631 -0.4585
  126SOPE   O1213453   1.600   2.666   1.903  0.0070 -0.1171 -0.2254
  126SOPE   O1113454   1.806   2.575   2.015 -0.1943 -0.1420 -0.0276
  126SOPE    C113455   1.747   2.486   2.112 -0.0315  0.1388 -0.6282
  126SOPE    HA13456   1.764   2.383   2.073 -0.0023 -0.1366  0.1033
  126SOPE    HB13457   1.638   2.504   2.121  0.0406  0.0133  0.7668
  126SOPE    C213458   1.827   2.496   2.247 -0.3051  0.1736 -0.5394
  126SOPE    HS13459   1.846   2.602   2.272  1.6833 -0.1569 -0.4710
  126SOPE   O2113460   1.952   2.428   2.228  0.1837 -0.1013 -0.1936
  126SOPE   C2113461   2.070   2.490   2.245  0.5755 -0.6003  0.1288
  126SOPE   O2213462   2.091   2.606   2.257 -0.1910 -0.2145 -0.0784
  126SOPE   C2213463   2.178   2.385   2.251  0.0511 -0.0516 -0.1517
  126SOPE   H2R13464   2.197   2.353   2.146  0.0676 -2.0055  0.3908
  126SOPE   H2S13465   2.134   2.295   2.300  0.6516 -0.0336  0.4363
  126SOPE    C313466   1.759   2.422   2.371  0.5541 -0.0192  0.9747
  126SOPE    HX13467   1.760   2.318   2.333  1.3904  0.3355  0.0020
  126SOPE    HY13468   1.651   2.447   2.382  0.2121 -0.2048 -1.5403
  126SOPE   O3113469   1.839   2.435   2.492  0.1124 -0.0064 -0.1556
  126SOPE   C3113470   1.792   2.532   2.580  0.7611 -0.0904 -0.6655
  126SOPE   O3213471   1.686   2.596   2.577 -0.0266  0.6990  0.3257
  126SOPE   C3213472   1.881   2.529   2.704 -0.3082  0.2345  0.3646
  126SOPE   H2X13473   1.987   2.509   2.675 -0.0600  0.1008  1.3203
  126SOPE   H2Y13474   1.839   2.459   2.780 -1.8020  0.4024 -0.2778
  126SOPE   C2313475   2.311   2.403   2.328  0.9773 -0.6666  0.2528
  126SOPE   H3R13476   2.349   2.501   2.292 -1.1894  0.2568  0.3294
  126SOPE   H3S13477   2.381   2.323   2.296 -0.1266 -1.3051 -0.6189
  126SOPE   C2413478   2.299   2.400   2.481  0.0145  0.2847  0.1761
  126SOPE   H4R13479   2.217   2.467   2.516  1.2248  1.7159  0.3454
  126SOPE   H4S13480   2.269   2.294   2.499 -3.1249  1.0238 -0.0668
  126SOPE   C2513481   2.433   2.422   2.557 -0.1294  0.2196 -0.0984
  126SOPE   H5R13482   2.501   2.375   2.483 -1.9459  0.1811 -1.8277
  126SOPE   H5S13483   2.464   2.529   2.565 -2.2691  0.7859  1.5921
  126SOPE   C2613484   2.429   2.355   2.696  0.3189 -0.6190 -0.2610
  126SOPE   H6R13485   2.401   2.248   2.684  1.4566 -0.9876  0.2553
  126SOPE   H6S13486   2.528   2.375   2.741 -0.0167  0.0979  0.1871
  126SOPE   C2713487   2.310   2.402   2.780  0.1491  0.4789  0.1796
  126SOPE   H7R13488   2.315   2.512   2.768  2.2018  0.2420 -1.6950
  126SOPE   H7S13489   2.215   2.368   2.733  0.5121 -0.2265 -0.0604
  126SOPE   C2813490   2.319   2.364   2.929  0.1795 -0.1199 -0.4135
  126SOPE   H8R13491   2.343   2.256   2.922  0.4757 -0.2054  1.4899
  126SOPE   H8S13492   2.400   2.419   2.982 -1.0762 -0.2289  1.6809
  126SOPE   C2913493   2.186   2.363   2.997  0.6181 -0.2418  0.8500
  126SOPE   H9113494   2.099   2.321   2.944 -2.4344  2.6764  3.0336
  126SOPE  C21013495   2.160   2.419   3.115 -0.1891 -0.2499 -0.4351
  126SOPE  H10113496   2.063   2.400   3.162  0.6644 -0.1121  1.4730
  126SOPE  C21113497   2.257   2.498   3.200  0.0946 -0.0279  0.2298
  126SOPE  H11R13498   2.253   2.606   3.174 -0.3506 -0.4421 -1.5420
  126SOPE  H11S13499   2.360   2.467   3.173  0.2927 -1.7641  2.6038
  126SOPE  C21213500   2.245   2.464   3.353 -0.4297 -0.1482  0.2434
  126SOPE  H12R13501   2.249   2.354   3.362  3.0293 -0.1283  0.1704
  126SOPE  H12S13502   2.145   2.493   3.392 -1.3156  0.6862 -2.4457
  126SOPE  C21313503   2.343   2.546   3.444 -0.2231 -0.1952 -0.3284
  126SOPE  H13R13504   2.316   2.654   3.442 -3.7652 -0.8477  2.1439
  126SOPE  H13S13505   2.448   2.545   3.408  1.1136  0.1764  3.1531
  126SOPE  C21413506   2.333   2.487   3.589 -0.1509 -1.1844  0.4777
  126SOPE  H14R13507   2.375   2.384   3.596  1.5944 -0.4086  2.6580
  126SOPE  H14S13508   2.226   2.487   3.617  0.0963  1.8906  1.8045
  126SOPE  C21513509   2.400   2.572   3.695  0.0556  0.5516  0.1968
  126SOPE  H15R13510   2.360   2.526   3.788 -0.6764  1.8030  0.5205
  126SOPE  H15S13511   2.363   2.676   3.685 -2.3037  0.0591  2.6430
  126SOPE  C21613512   2.554   2.560   3.696 -0.0253  0.1918 -0.4072
  126SOPE  H16R13513   2.591   2.567   3.591 -0.1581  1.5532 -0.3792
  126SOPE  H16S13514   2.585   2.459   3.730 -2.5758 -0.9398 -1.1835
  126SOPE  C21713515   2.610   2.667   3.787 -0.2842  0.3477  0.2374
  126SOPE  H17R13516   2.601   2.643   3.895  0.5451  1.5417  0.5887
  126SOPE  H17S13517   2.560   2.765   3.771 -1.9886 -0.4283  0.5938
  126SOPE  C21813518   2.763   2.694   3.767  0.3223 -0.4249 -0.5519
  126SOPE  H18R13519   2.786   2.788   3.822 -0.2705 -0.1571 -0.7498
  126SOPE  H18S13520   2.772   2.720   3.660  3.0160  1.5047  0.0488
  126SOPE  H18T13521   2.825   2.607   3.798  0.1533 -0.7961 -1.2351
  126SOPE   C3313522   1.894   2.672   2.769  0.3614 -0.7093 -0.4922
  126SOPE   H3X13523   1.931   2.749   2.698  0.8577  0.4955  0.9996
  126SOPE   H3Y13524   1.974   2.665   2.847  2.7120  2.0721 -2.4447
  126SOPE   C3413525   1.767   2.734   2.838 -0.0869 -0.0064 -0.3277
  126SOPE   H4X13526   1.718   2.644   2.882 -0.6743  1.5843  2.4741
  126SOPE   H4Y13527   1.700   2.793   2.772 -0.7326  0.6050  0.8455
  126SOPE   C3513528   1.784   2.814   2.966  0.2275  0.3833  0.0086
  126SOPE   H5X13529   1.678   2.829   2.996 -0.1354 -1.1322 -0.3916
  126SOPE   H5Y13530   1.829   2.912   2.938  0.1332  0.5520  0.4525
  126SOPE   C3613531   1.855   2.743   3.080  0.2736  0.8917  0.1006
  126SOPE   H6X13532   1.966   2.748   3.076  0.7135 -3.5881  1.0797
  126SOPE   H6Y13533   1.832   2.634   3.086  0.1618  0.8856 -0.3520
  126SOPE   C3713534   1.818   2.803   3.215 -0.1187 -0.4858 -0.5727
  126SOPE   H7X13535   1.709   2.820   3.230 -0.4123 -1.6160 -1.3077
  126SOPE   H7Y13536   1.866   2.903   3.225 -0.6219 -0.3453  0.6268
  126SOPE   C3813537   1.864   2.713   3.338 -0.2584  0.5952  0.1863
  126SOPE   H8X13538   1.957   2.670   3.294 -1.3912  2.5214 -4.7181
  126SOPE   H8Y13539   1.799   2.622   3.334  0.1152  0.3614 -2.8744
  126SOPE   C3913540   1.882   2.791   3.465 -0.3776  0.1533  0.0191
  126SOPE   H9X13541   1.790   2.844   3.498 -0.4157 -0.7424  1.4531
  126SOPE   H9Y13542   1.953   2.873   3.443  1.0771 -0.6205  1.6257
  126SOPE  C31013543   1.946   2.718   3.581 -0.0285  0.5543  0.6124
  126SOPE  H10X13544   1.983   2.796   3.651 -0.1199  0.2768  0.9730
  126SOPE  H10Y13545   2.033   2.668   3.532 -0.2175 -0.6266  1.4300
  126SOPE  C31113546   1.850   2.623   3.644  1.1232 -0.5254  0.2345
  126SOPE  H11X13547   1.812   2.551   3.569 -0.9198  0.5479  0.1843
  126SOPE  H11Y13548   1.758   2.678   3.671  0.2567 -2.4627  1.4242
  126SOPE  C31213549   1.909   2.559   3.772 -0.0394 -0.1448  0.2775
  126SOPE  H12X13550   1.998   2.506   3.731 -0.2042  1.1266 -1.9256
  126SOPE  H12Y13551   1.829   2.489   3.805  0.8429 -0.3905  2.0197
  126SOPE  C31313552   1.954   2.657   3.880  0.1450 -0.5309 -0.2200
  126SOPE  H13X13553   1.854   2.701   3.902 -1.0966 -3.1001 -0.2932
  126SOPE  H13Y13554   2.031   2.730   3.847  0.8374 -1.1277  0.0437
  126SOPE  C31413555   2.011   2.583   4.000  0.7686  0.2459  0.2874
  126SOPE  H14X13556   2.100   2.531   3.959  0.2334  0.8432 -1.7625
  126SOPE  H14Y13557   1.940   2.510   4.045  2.0777 -0.2586  1.5946
  126SOPE  C31513558   2.058   2.672   4.120  0.0575 -0.3483 -0.3040
  126SOPE  H15X13559   1.965   2.705   4.170  0.7244 -1.0975  1.4877
  126SOPE  H15Y13560   2.115   2.754   4.070 -2.0687  1.4069  0.0209
  126SOPE  C31613561   2.140   2.593   4.228  0.5458  0.3196  0.3814
  126SOPE  H16X13562   2.201   2.525   4.164  1.0605  1.4132 -0.3271
  126SOPE  H16Y13563   2.073   2.535   4.295  0.5511 -0.2026 -0.0537
  126SOPE  C31713564   2.225   2.673   4.317 -0.0622 -0.4983  0.0106
  126SOPE  H17X13565   2.167   2.751   4.371  0.0323 -1.4536  1.5228
  126SOPE  H17Y13566   2.297   2.724   4.249  0.6547  0.5977  1.5553
  126SOPE  C31813567   2.305   2.589   4.422  0.5724 -0.8278 -0.3780
  126SOPE  H18X13568   2.345   2.496   4.375  0.0035 -0.6550 -1.2307
  126SOPE  H18Y13569   2.221   2.566   4.491  2.0582  0.3502  1.9696
  126SOPE  H18Z13570   2.381   2.657   4.465 -0.7668 -0.4963  1.6291
  127SOPE     N13571   2.765   3.308   2.064 -0.3932  0.7629 -0.1069
  127SOPE   HN113572   2.835   3.232   2.050 -0.4980  0.6386  0.0334
  127SOPE   HN213573   2.814   3.382   2.119 -1.2789  0.3914  1.2236
  127SOPE   HN313574   2.685   3.270   2.119 -0.5594  1.1945 -0.0508
  127SOPE   C1213575   2.713   3.358   1.932 -0.1481 -0.3238  0.3871
  127SOPE  H12A13576   2.644   3.443   1.951  1.7837  1.8657 -1.6535
  127SOPE  H12B13577   2.663   3.279   1.872 -2.6986  2.2554 -1.1327
  127SOPE   C1113578   2.821   3.424   1.841  0.0836 -0.1310  0.5805
  127SOPE  H11A13579   2.777   3.438   1.740 -1.3341 -2.9144  0.7010
  127SOPE  H11B13580   2.905   3.352   1.828 -0.1961 -0.6118  1.3717
  127SOPE     P13581   3.005   3.566   1.959  0.0391 -0.3474 -0.1051
  127SOPE   O1313582   3.025   3.711   1.993 -0.0799 -0.3126  0.2040
  127SOPE   O1413583   3.095   3.494   1.871 -0.0343 -0.0391  0.4632
  127SOPE   O1213584   2.857   3.553   1.898  0.5744  0.3535  0.3979
  127SOPE   O1113585   2.976   3.488   2.089  0.0337  0.2002 -0.6806
  127SOPE    C113586   3.088   3.419   2.148  0.2556 -0.2889  0.1674
  127SOPE    HA13587   3.183   3.473   2.128 -0.9163  1.9970  0.4709
  127SOPE    HB13588   3.106   3.320   2.100  1.1351  0.4344 -1.0771
  127SOPE    C213589   3.057   3.384   2.298 -0.3038 -0.1799 -0.4385
  127SOPE    HS13590   2.982   3.304   2.310 -0.6364  0.2549  0.4707
  127SOPE   O2113591   3.017   3.497   2.376  0.1195  0.1266 -0.2433
  127SOPE   C2113592   2.897   3.533   2.361 -0.5397 -0.5882  0.6683
  127SOPE   O2213593   2.806   3.479   2.302  0.4207 -0.0785 -0.3477
  127SOPE   C2213594   2.870   3.663   2.433 -0.0653 -0.0452 -0.2201
  127SOPE   H2R13595   2.771   3.707   2.409  0.3669  0.4979 -1.0704
  127SOPE   H2S13596   2.944   3.741   2.407 -1.7181  1.6910  0.1321
  127SOPE    C313597   3.194   3.344   2.367  0.0016 -0.5225 -0.9712
  127SOPE    HX13598   3.264   3.423   2.332  1.6354 -1.1721  0.6805
  127SOPE    HY13599   3.231   3.243   2.336  0.5272 -0.8916  0.7728
  127SOPE   O3113600   3.187   3.357   2.513 -0.1937  0.2726  0.2797
  127SOPE   C3113601   3.136   3.250   2.578  0.2131  0.3644 -0.4671
  127SOPE   O3213602   3.092   3.149   2.530  0.0051  0.3386 -0.2664
  127SOPE   C3213603   3.149   3.273   2.732  0.2550  0.1242  0.2946
  127SOPE   H2X13604   3.063   3.343   2.744  1.3253  1.2709  1.5217
  127SOPE   H2Y13605   3.248   3.324   2.735  0.1805  0.2080  1.7129
  127SOPE   C2313606   2.882   3.639   2.585 -0.9570 -0.0440  0.3881
  127SOPE   H3R13607   2.897   3.739   2.631  1.0622 -0.1885  0.1316
  127SOPE   H3S13608   2.979   3.589   2.607 -1.3083  0.0122  2.1598
  127SOPE   C2413609   2.771   3.554   2.651 -0.2349 -0.5939  0.6743
  127SOPE   H4R13610   2.671   3.594   2.624  1.1446  0.2476 -3.9612
  127SOPE   H4S13611   2.772   3.451   2.609  3.3166  0.0074 -1.1014
  127SOPE   C2513612   2.802   3.527   2.797  0.2613 -0.3540 -0.0143
  127SOPE   H5R13613   2.746   3.438   2.833 -1.1135  0.7667  0.7312
  127SOPE   H5S13614   2.908   3.498   2.812  0.4163  0.9240  1.7986
  127SOPE   C2613615   2.774   3.641   2.896 -0.4063 -0.0926 -0.7014
  127SOPE   H6R13616   2.818   3.734   2.854  1.6907 -0.4348  0.6062
  127SOPE   H6S13617   2.666   3.653   2.920 -0.1048 -1.5026  1.6702
  127SOPE   C2713618   2.846   3.622   3.021  0.2481 -0.4902 -0.4810
  127SOPE   H7R13619   2.792   3.551   3.087  1.7211 -0.8215  0.4343
  127SOPE   H7S13620   2.943   3.574   2.995  0.8364  1.1905 -1.5593
  127SOPE   C2813621   2.849   3.756   3.098  0.2539 -0.0338  0.0321
  127SOPE   H8R13622   2.891   3.841   3.040 -0.6629 -0.2622 -0.9912
  127SOPE   H8S13623   2.742   3.784   3.116  0.0732  0.3024 -1.4652
  127SOPE   C2913624   2.924   3.747   3.226  0.3193 -0.1534 -0.0495
  127SOPE   H9113625   3.031   3.726   3.219  0.2535 -0.6409  0.3617
  127SOPE  C21013626   2.872   3.746   3.350  0.1950 -0.0389 -0.4734
  127SOPE  H10113627   2.934   3.746   3.441 -2.3063  2.0700  1.3933
  127SOPE  C21113628   2.723   3.768   3.391 -0.5933  0.0198 -0.0115
  127SOPE  H11R13629   2.661   3.688   3.346  0.7355 -0.1837 -1.5738
  127SOPE  H11S13630   2.692   3.864   3.345  0.2377  0.6311  0.6758
  127SOPE  C21213631   2.699   3.767   3.546  0.2744 -0.2512 -0.1359
  127SOPE  H12R13632   2.695   3.664   3.587 -0.2600 -0.2587 -0.2076
  127SOPE  H12S13633   2.597   3.804   3.570  1.2697  1.6151  1.5222
  127SOPE  C21313634   2.792   3.867   3.622  0.3234 -0.0360 -0.1546
  127SOPE  H13R13635   2.822   3.944   3.548  1.1625 -0.2027  0.0035
  127SOPE  H13S13636   2.892   3.825   3.643  0.7576  0.4932 -1.1156
  127SOPE  C21413637   2.730   3.930   3.753  0.3686 -0.1949  0.2549
  127SOPE  H14R13638   2.667   4.017   3.724  2.1229  1.3589  0.8838
  127SOPE  H14S13639   2.814   3.986   3.799  0.1599  0.9608 -0.6958
  127SOPE  C21513640   2.666   3.836   3.852 -0.2453 -0.0275 -0.9585
  127SOPE  H15R13641   2.738   3.753   3.868  0.7656  1.1052  0.7601
  127SOPE  H15S13642   2.578   3.787   3.806  1.5142 -1.2207 -3.2417
  127SOPE  C21613643   2.641   3.908   3.982 -0.1500  0.1970  0.3936
  127SOPE  H16R13644   2.577   3.998   3.967  0.7994  0.6477 -1.0540
  127SOPE  H16S13645   2.735   3.945   4.027  0.8338 -1.0304 -0.5793
  127SOPE  C21713646   2.588   3.807   4.093 -0.2462 -0.8556 -0.3518
  127SOPE  H17R13647   2.672   3.741   4.123 -0.2700 -0.3006  1.0627
  127SOPE  H17S13648   2.508   3.746   4.047  0.7471 -1.8583 -0.7915
  127SOPE  C21813649   2.541   3.867   4.230  0.2299 -0.4036 -0.1471
  127SOPE  H18R13650   2.611   3.939   4.277 -1.5218  0.9997  0.4153
  127SOPE  H18S13651   2.536   3.777   4.295 -0.1907  0.2389  0.7311
  127SOPE  H18T13652   2.438   3.909   4.224  0.9006  1.3083 -0.2728
  127SOPE   C3313653   3.128   3.151   2.822  0.4280 -0.0843 -0.1821
  127SOPE   H3X13654   3.165   3.061   2.767  4.3064 -0.3794  2.5037
  127SOPE   H3Y13655   3.025   3.143   2.862  0.4713 -1.6996 -0.3352
  127SOPE   C3413656   3.220   3.161   2.945  0.6750 -1.4530  0.8188
  127SOPE   H4X13657   3.206   3.267   2.974  0.4589 -0.9589 -1.0205
  127SOPE   H4Y13658   3.325   3.176   2.912 -0.0280  0.8381 -0.6064
  127SOPE   C3513659   3.176   3.062   3.052  0.1273 -0.3320 -0.0259
  127SOPE   H5X13660   3.211   2.959   3.026  1.3619 -0.3300  1.4832
  127SOPE   H5Y13661   3.066   3.053   3.045  0.2567 -1.5645 -0.9011
  127SOPE   C3613662   3.211   3.098   3.198 -0.5996  0.3506  0.3337
  127SOPE   H6X13663   3.172   3.014   3.259  0.8937  0.2590  1.2255
  127SOPE   H6Y13664   3.148   3.176   3.246 -0.0431  0.4594  0.8995
  127SOPE   C3713665   3.359   3.123   3.212 -0.3884  0.4764 -0.3185
  127SOPE   H7X13666   3.395   3.201   3.142  3.2223  0.3635  1.2068
  127SOPE   H7Y13667   3.415   3.031   3.185 -1.0718  0.0878 -0.4458
  127SOPE   C3813668   3.401   3.158   3.345 -0.0270 -0.3943 -0.0620
  127SOPE   H8X13669   3.354   3.084   3.414  0.9161 -0.8911  0.0611
  127SOPE   H8Y13670   3.366   3.256   3.383 -2.1923 -0.3811 -1.8927
  127SOPE   C3913671   3.556   3.150   3.364  0.1332 -0.0268  0.5562
  127SOPE   H9X13672   3.599   3.223   3.291  0.3068 -1.1121 -0.4701
  127SOPE   H9Y13673   3.597   3.050   3.337 -1.2262 -0.9321  1.7163
  127SOPE  C31013674   3.617   3.184   3.506 -0.0622  0.0878  0.3247
  127SOPE  H10X13675   3.588   3.285   3.542  1.0375  1.1694 -1.6288
  127SOPE  H10Y13676   3.728   3.181   3.508 -0.0164  0.6424  3.5207
  127SOPE  C31113677   3.566   3.092   3.611  0.4373  0.1150 -0.2230
  127SOPE  H11X13678   3.547   2.994   3.562 -1.1150 -0.2262  0.9887
  127SOPE  H11Y13679   3.464   3.125   3.639  0.4213 -0.2663  0.1650
  127SOPE  C31213680   3.666   3.071   3.722  0.1741 -0.0933  0.1114
  127SOPE  H12X13681   3.760   3.021   3.688  0.2288  1.6297 -2.6177
  127SOPE  H12Y13682   3.612   3.005   3.793 -1.5544 -0.9327 -1.8943
  127SOPE  C31313683   3.692   3.209   3.786  0.4827 -0.1380 -0.0721
  127SOPE  H13X13684   3.595   3.265   3.785  0.9867  0.7615 -1.6503
  127SOPE  H13Y13685   3.766   3.267   3.727  1.1453 -1.9355 -1.0757
  127SOPE  C31413686   3.751   3.190   3.928  0.4489  0.2541 -0.0346
  127SOPE  H14X13687   3.842   3.126   3.919  1.0827  0.7925  1.8614
  127SOPE  H14Y13688   3.678   3.133   3.990  0.0211  0.6954 -0.1286
  127SOPE  C31513689   3.801   3.322   3.991  0.0652  0.1072  0.0480
  127SOPE  H15X13690   3.871   3.370   3.920 -0.2838 -0.1191 -0.4523
  127SOPE  H15Y13691   3.868   3.307   4.078 -1.7973 -0.0679  1.5366
  127SOPE  C31613692   3.687   3.411   4.019  0.1319  0.2005 -0.1281
  127SOPE  H16X13693   3.613   3.357   4.082  0.2726  2.1362  1.8050
  127SOPE  H16Y13694   3.632   3.431   3.925  0.8943  0.1598 -0.5888
  127SOPE  C31713695   3.716   3.544   4.093 -0.0236  0.4522  0.2393
  127SOPE  H17X13696   3.744   3.522   4.198 -1.5162  0.5977  0.6817
  127SOPE  H17Y13697   3.632   3.616   4.084 -0.3589 -0.1470 -2.0502
  127SOPE  C31813698   3.841   3.614   4.035  0.4896 -0.0699 -0.1579
  127SOPE  H18X13699   3.818   3.663   3.938  0.6002  1.6551  0.6521
  127SOPE  H18Y13700   3.926   3.542   4.030 -0.2874 -1.4230  3.2258
  127SOPE  H18Z13701   3.867   3.706   4.091 -1.0105  0.9192 -1.0101
  128SOPE     N13702   0.591   2.360   1.886  0.0936 -0.5320 -0.4116
  128SOPE   HN113703   0.567   2.263   1.857 -1.5645 -0.1263 -0.5062
  128SOPE   HN213704   0.608   2.418   1.802  2.3739  0.1533  0.4352
  128SOPE   HN313705   0.677   2.363   1.945 -0.2791 -0.6672  0.1514
  128SOPE   C1213706   0.472   2.419   1.968 -0.3908 -0.0461  0.7009
  128SOPE  H12A13707   0.400   2.460   1.895  0.3724  0.9338  0.4811
  128SOPE  H12B13708   0.510   2.492   2.043  1.2196 -1.5237  1.4012
  128SOPE   C1113709   0.392   2.301   2.040  0.4237  0.3846  0.0704
  128SOPE  H11A13710   0.309   2.345   2.099  0.1257  0.9704 -0.7673
  128SOPE  H11B13711   0.459   2.270   2.123  0.1114 -0.7235 -0.0804
  128SOPE     P13712   0.439   2.057   1.951  0.2823  0.0113 -0.0427
  128SOPE   O1313713   0.582   2.095   1.929 -0.2955 -0.8519 -0.0614
  128SOPE   O1413714   0.381   1.966   1.847 -0.6858  0.2846 -0.1049
  128SOPE   O1213715   0.353   2.193   1.965  0.4296 -0.1740  0.3874
  128SOPE   O1113716   0.428   1.984   2.091  0.2104 -0.0308 -0.2399
  128SOPE    C113717   0.341   2.037   2.196  0.3294  0.5300 -0.6048
  128SOPE    HA13718   0.247   2.083   2.160 -0.0386  1.3996  1.3445
  128SOPE    HB13719   0.396   2.111   2.258 -1.2188  1.7097 -0.6068
  128SOPE    C213720   0.296   1.925   2.284 -0.1731 -0.4135 -0.1584
  128SOPE    HS13721   0.257   1.841   2.223 -1.4407 -1.0558  1.4702
  128SOPE   O2113722   0.203   1.985   2.372  0.4768  0.2769  0.0129
  128SOPE   C2113723   0.110   1.905   2.421  0.2657  0.4833 -0.1414
  128SOPE   O2213724   0.106   1.784   2.414 -0.0346 -0.6313  0.3476
  128SOPE   C2213725   0.003   1.992   2.479  0.5341  0.3266  0.0273
  128SOPE   H2R13726  -0.094   1.959   2.436  1.0410 -1.1247 -0.0504
  128SOPE   H2S13727   0.021   2.097   2.448 -1.0057  1.2082  1.8614
  128SOPE    C313728   0.415   1.874   2.365  0.5536 -0.1751  0.4313
  128SOPE    HX13729   0.445   1.964   2.422  0.9248 -0.6968  1.0744
  128SOPE    HY13730   0.498   1.845   2.298 -1.1769  3.5252 -3.8215
  128SOPE   O3113731   0.381   1.772   2.458 -0.1592  0.8607  0.1745
  128SOPE   C3113732   0.412   1.643   2.418  0.3275 -0.3112 -0.4278
  128SOPE   O3213733   0.481   1.617   2.320  0.3663  0.4248  0.3172
  128SOPE   C3213734   0.369   1.534   2.518 -0.3974 -0.0041  0.0051
  128SOPE   H2X13735   0.428   1.449   2.477 -4.0042 -2.0719 -1.4063
  128SOPE   H2Y13736   0.260   1.512   2.519 -0.6702  1.2016 -1.2459
  128SOPE   C2313737   0.000   1.965   2.627 -0.0418  0.3285 -0.3693
  128SOPE   H3R13738   0.091   2.012   2.671  0.5764 -0.2741 -0.9775
  128SOPE   H3S13739  -0.008   1.857   2.653  0.0310  0.4642  0.2336
  128SOPE   C2413740  -0.114   2.033   2.704 -0.3400 -1.0903  0.1034
  128SOPE   H4R13741  -0.125   2.140   2.676 -1.3375 -0.9215  1.0821
  128SOPE   H4S13742  -0.210   1.984   2.679 -0.9374 -0.7254  1.5649
  128SOPE   C2513743  -0.095   2.027   2.858 -0.1986  0.2849 -0.2759
  128SOPE   H5R13744  -0.095   1.919   2.884  1.8190 -0.2945 -2.4043
  128SOPE   H5S13745   0.005   2.064   2.886 -0.7625  1.1289  0.7119
  128SOPE   C2613746  -0.200   2.111   2.923  0.5561  0.2030 -0.3744
  128SOPE   H6R13747  -0.187   2.217   2.893  1.7975 -0.0924 -0.9707
  128SOPE   H6S13748  -0.301   2.086   2.884 -0.5451  1.0923  1.7727
  128SOPE   C2713749  -0.189   2.112   3.079 -0.2708 -0.2668 -0.3587
  128SOPE   H7R13750  -0.210   2.009   3.115  0.2249  0.2934  1.6960
  128SOPE   H7S13751  -0.083   2.135   3.100 -0.6121  1.4808 -0.4227
  128SOPE   C2813752  -0.269   2.221   3.153 -0.1003  0.1748 -0.5768
  128SOPE   H8R13753  -0.225   2.221   3.255  2.0995 -3.1713 -1.3350
  128SOPE   H8S13754  -0.259   2.313   3.092 -1.3184  1.2673  0.8232
  128SOPE   C2913755  -0.412   2.172   3.165 -0.1222 -0.2243 -0.1457
  128SOPE   H9113756  -0.461   2.186   3.067 -1.8562  0.1775  0.7437
  128SOPE  C21013757  -0.481   2.096   3.252  0.0059 -0.4007  0.2900
  128SOPE  H10113758  -0.583   2.070   3.222 -0.8438  1.0848  1.7623
  128SOPE  C21113759  -0.444   2.053   3.391 -0.0543  0.5154  0.2994
  128SOPE  H11R13760  -0.333   2.060   3.398 -0.0337  3.4260 -1.5100
  128SOPE  H11S13761  -0.475   1.946   3.397  0.2778  0.0725 -3.2483
  128SOPE  C21213762  -0.512   2.132   3.501 -0.6017 -0.1249 -0.1402
  128SOPE  H12R13763  -0.618   2.160   3.482  0.1210  1.6169 -1.9043
  128SOPE  H12S13764  -0.464   2.231   3.513 -1.6267  0.5902 -1.6543
  128SOPE  C21313765  -0.491   2.059   3.639  0.0818  0.3539 -0.0274
  128SOPE  H13R13766  -0.425   1.970   3.647 -0.6213  0.0309  4.5531
  128SOPE  H13S13767  -0.589   2.028   3.679  0.4004 -0.3995  0.1778
  128SOPE  C21413768  -0.435   2.160   3.744  0.0688  0.1796 -0.5818
  128SOPE  H14R13769  -0.518   2.225   3.776 -0.8541 -1.3270  0.1846
  128SOPE  H14S13770  -0.342   2.214   3.716  0.4327 -0.1465 -0.0182
  128SOPE  C21513771  -0.410   2.081   3.880 -0.6081  0.1573  0.0295
  128SOPE  H15R13772  -0.334   2.001   3.865  2.4294  2.5303  1.6797
  128SOPE  H15S13773  -0.507   2.032   3.901 -1.0828  0.8509 -0.5000
  128SOPE  C21613774  -0.349   2.163   3.998 -0.3929 -0.9823  0.0146
  128SOPE  H16R13775  -0.429   2.218   4.052  0.5626 -0.0860  0.5575
  128SOPE  H16S13776  -0.287   2.239   3.947  1.0102 -0.7259  1.9563
  128SOPE  C21713777  -0.280   2.081   4.107  0.7163  0.3488  0.0868
  128SOPE  H17R13778  -0.189   2.033   4.064  0.4830  1.8053 -2.2013
  128SOPE  H17S13779  -0.343   1.995   4.137 -1.0052  1.7673  0.7070
  128SOPE  C21813780  -0.237   2.156   4.226 -0.0620  0.3694  0.1582
  128SOPE  H18R13781  -0.315   2.230   4.256 -1.5546 -0.2804 -1.9151
  128SOPE  H18S13782  -0.154   2.224   4.194 -1.4701  2.1100  0.0153
  128SOPE  H18T13783  -0.201   2.098   4.313 -1.0921 -0.2212  0.2080
  128SOPE   C3313784   0.405   1.571   2.665 -0.5139 -0.0061 -0.4555
  128SOPE   H3X13785   0.313   1.613   2.711 -0.5985  0.6152 -1.1660
  128SOPE   H3Y13786   0.489   1.643   2.667  0.0219 -0.6361 -0.1130
  128SOPE   C3413787   0.456   1.448   2.741  0.1195  0.3013  0.2978
  128SOPE   H4X13788   0.566   1.434   2.738  0.2589  0.3719  2.7232
  128SOPE   H4Y13789   0.400   1.359   2.703  1.3436 -0.1896 -0.4233
  128SOPE   C3513790   0.421   1.460   2.894  0.3302  0.4624  0.1250
  128SOPE   H5X13791   0.477   1.374   2.935 -0.9723  0.2842  1.6395
  128SOPE   H5Y13792   0.311   1.441   2.897 -0.0100  1.0308 -3.4798
  128SOPE   C3613793   0.483   1.595   2.954 -0.5626  0.6348  0.7987
  128SOPE   H6X13794   0.428   1.672   2.896  1.0408  1.1033 -0.1490
  128SOPE   H6Y13795   0.590   1.605   2.928 -0.4092 -1.8172  0.2106
  128SOPE   C3713796   0.446   1.619   3.097  0.5912  0.0451 -0.0332
  128SOPE   H7X13797   0.336   1.631   3.105  0.3398 -1.1161 -1.3783
  128SOPE   H7Y13798   0.487   1.721   3.117 -0.8162  0.9708 -1.6825
  128SOPE   C3813799   0.494   1.525   3.204 -0.1795  0.2507  0.6324
  128SOPE   H8X13800   0.604   1.530   3.188 -0.2386 -3.2829 -2.1414
  128SOPE   H8Y13801   0.463   1.421   3.180 -1.0205  0.5830  0.2666
  128SOPE   C3913802   0.454   1.573   3.347 -1.0626  0.2276 -0.1765
  128SOPE   H9X13803   0.451   1.684   3.360  2.1904  0.4191 -0.4085
  128SOPE   H9Y13804   0.529   1.529   3.416  0.4914 -0.7028 -2.3656
  128SOPE  C31013805   0.321   1.521   3.392 -0.3627 -0.1735  0.3822
  128SOPE  H10X13806   0.326   1.411   3.376  0.7392 -0.1635  0.6186
  128SOPE  H10Y13807   0.243   1.573   3.333  1.5460  1.2814 -0.9619
  128SOPE  C31113808   0.293   1.537   3.544  0.5991  0.5275 -0.0976
  128SOPE  H11X13809   0.196   1.487   3.565  1.8983 -1.7067  1.0018
  128SOPE  H11Y13810   0.302   1.645   3.566  0.9751  0.3198  0.7939
  128SOPE  C31213811   0.386   1.461   3.633  0.6946  0.1512  0.0588
  128SOPE  H12X13812   0.489   1.503   3.634  1.1355 -0.6412 -2.6436
  128SOPE  H12Y13813   0.405   1.362   3.586  2.2276 -0.0580  1.0358
  128SOPE  C31313814   0.328   1.446   3.780  0.1941  0.4706 -0.2683
  128SOPE  H13X13815   0.233   1.389   3.779 -0.4465  1.3147  2.6150
  128SOPE  H13Y13816   0.312   1.549   3.818  2.1415  0.6258  0.2443
  128SOPE  C31413817   0.428   1.372   3.874  0.5954 -0.2388 -0.0622
  128SOPE  H14X13818   0.526   1.422   3.863 -0.6716  2.4087 -0.2786
  128SOPE  H14Y13819   0.431   1.270   3.830 -1.5804  0.8261 -3.1187
  128SOPE  C31513820   0.382   1.367   4.014  0.0060 -0.0954  0.7616
  128SOPE  H15X13821   0.294   1.300   4.013 -0.0530 -0.0849 -1.8728
  128SOPE  H15Y13822   0.361   1.467   4.058 -0.4591 -0.4278  1.3070
  128SOPE  C31613823   0.487   1.305   4.099  0.5271 -0.1103 -0.7337
  128SOPE  H16X13824   0.502   1.203   4.057  1.8972 -0.1784 -0.1491
  128SOPE  H16Y13825   0.446   1.303   4.203 -1.0194 -0.0717 -1.3230
  128SOPE  C31713826   0.622   1.379   4.117  0.8947 -0.5337  0.1387
  128SOPE  H17X13827   0.593   1.484   4.138 -0.9976 -1.0479  0.3541
  128SOPE  H17Y13828   0.677   1.384   4.021 -0.4201 -2.6098 -0.7997
  128SOPE  C31813829   0.709   1.322   4.228 -0.6522  0.7891  0.0691
  128SOPE  H18X13830   0.792   1.393   4.250  1.0515 -1.1552  0.2735
  128SOPE  H18Y13831   0.752   1.223   4.202 -1.5977  0.1714  0.7909
  128SOPE  H18Z13832   0.658   1.312   4.327 -2.4631 -1.1588 -0.9968
  129OSM      N13833   4.227   3.762   6.636  0.3765  0.1794  0.0067
  129OSM    C1513834   4.256   3.897   6.687 -0.1679  0.1701  0.3167
  129OSM   H15A13835   4.289   3.967   6.611 -1.2983  1.3205  0.8599
  129OSM   H15B13836   4.323   3.896   6.772 -1.1652  0.9445  1.1325
  129OSM   H15C13837   4.168   3.951   6.717 -1.7193 -1.4368 -1.0878
  129OSM    C1413838   4.114   3.774   6.537  0.6448  0.1628 -0.3676
  129OSM   H14A13839   4.122   3.704   6.455 -0.9771  1.6612 -1.8801
  129OSM   H14B13840   4.123   3.870   6.488 -1.4782 -1.2674 -3.9161
  129OSM   H14C13841   4.017   3.764   6.582 -0.0396  0.3253 -1.7631
  129OSM    C1313842   4.353   3.723   6.561 -0.0044 -0.7831  0.0873
  129OSM   H13A13843   4.378   3.796   6.486  1.1391 -1.9174 -0.6691
  129OSM   H13B13844   4.344   3.626   6.515  1.7841  0.2202 -2.6278
  129OSM   H13C13845   4.441   3.713   6.622 -0.3688 -0.8350  0.6132
  129OSM    C1213846   4.205   3.662   6.756  0.4949  0.7337  0.0769
  129OSM   H12A13847   4.284   3.667   6.829 -0.1388 -1.2365  0.9891
  129OSM   H12B13848   4.218   3.563   6.715  3.4170  1.4843 -1.0039
  129OSM    C1113849   4.066   3.666   6.825  0.0038  0.1057  0.2204
  129OSM   H11A13850   4.022   3.768   6.821 -0.5588 -0.1682 -1.2612
  129OSM   H11B13851   4.075   3.656   6.935 -0.3413 -0.6795  0.1884
  129OSM      P13852   3.988   3.426   6.799  0.1627 -0.0147 -0.2275
  129OSM    O1313853   4.130   3.384   6.781 -0.6727 -0.2878 -0.3148
  129OSM    O1413854   3.925   3.408   6.932  0.0301  0.0870  0.4411
  129OSM    O1113855   3.900   3.355   6.686  0.2494 -0.1987  0.2581
  129OSM    O1213856   3.968   3.579   6.758 -0.2549  0.2864 -0.9544
  129OSM    C1S13857   3.916   3.393   6.554 -0.2382  0.5346 -0.0141
  129OSM    H1S13858   3.959   3.494   6.537 -0.1054  0.4535 -0.1644
  129OSM    H1T13859   3.816   3.420   6.515 -1.4889  1.4810  3.4734
  129OSM     NF13860   4.011   3.346   6.327  0.6571 -0.1207  0.0514
  129OSM    HNF13861   3.965   3.320   6.243  0.0456  1.0805  0.0028
  129OSM    C2S13862   3.978   3.285   6.456 -0.9898 -0.0399  0.1674
  129OSM    H2S13863   4.074   3.251   6.501 -0.5847  2.9801  1.8465
  129OSM    C3S13864   3.897   3.145   6.464  0.2760 -1.4270 -0.5541
  129OSM    H3S13865   3.793   3.158   6.427 -0.0373 -0.6584  0.5487
  129OSM     O313866   3.865   3.105   6.594  0.5016 -0.2224 -0.0423
  129OSM    HO313867   3.882   3.183   6.646 -0.9796 -0.6312  1.1407
  129OSM    C4S13868   3.967   3.043   6.386 -0.5295 -0.0182  0.2904
  129OSM    H4S13869   3.937   3.054   6.281  1.9460 -0.6509 -0.5611
  129OSM    C5S13870   4.060   2.950   6.420 -0.4587  0.6354 -0.5132
  129OSM    H5S13871   4.110   2.962   6.517 -1.0386  1.6366 -0.3270
  129OSM    C6S13872   4.122   2.843   6.327  0.6139  1.2075 -0.0290
  129OSM    H6S13873   4.089   2.740   6.352 -0.8931  1.2122 -1.7248
  129OSM    H6T13874   4.233   2.845   6.324  0.7642 -0.2301  2.3151
  129OSM    C7S13875   4.094   2.866   6.180 -0.0399 -0.0951  0.3744
  129OSM    H7S13876   4.125   2.968   6.149  0.3079 -0.7606 -1.5856
  129OSM    H7T13877   3.984   2.854   6.170 -0.1281 -1.0895  2.0822
  129OSM    C8S13878   4.170   2.772   6.087  0.7010 -0.6242  0.0576
  129OSM    H8S13879   4.138   2.669   6.112  0.0241 -0.6256 -0.7764
  129OSM    H8T13880   4.279   2.773   6.110  0.9051 -0.7824 -0.8697
  129OSM    C9S13881   4.128   2.791   5.939 -0.0569  0.0609  0.0618
  129OSM    H9S13882   4.141   2.902   5.936 -0.0824  0.0513 -0.4373
  129OSM    H9T13883   4.021   2.760   5.934 -0.1285  0.4761 -1.2169
  129OSM   C10S13884   4.218   2.719   5.840  0.6971 -0.1466  0.0315
  129OSM   H10S13885   4.213   2.609   5.847 -1.6737 -0.3512 -3.0852
  129OSM   H10T13886   4.322   2.757   5.856 -0.1332  1.8260  1.0680
  129OSM   C11S13887   4.188   2.751   5.691  0.3026 -0.2317 -0.6048
  129OSM   H11S13888   4.197   2.860   5.672  2.0832 -0.6241 -2.3222
  129OSM   H11T13889   4.085   2.719   5.667  0.6239 -2.5645  0.8316
  129OSM   C12S13890   4.273   2.685   5.587  0.3188 -0.0387  0.3327
  129OSM   H12S13891   4.253   2.575   5.583 -2.3436  0.3895 -0.4537
  129OSM   H12T13892   4.383   2.691   5.604  0.6478  1.5420 -1.8793
  129OSM   C13S13893   4.244   2.749   5.451  0.0916 -0.3504 -0.6395
  129OSM   H13S13894   4.296   2.846   5.464  1.2546 -0.8816 -1.2138
  129OSM   H13T13895   4.137   2.778   5.437  0.0212  1.6083  2.9610
  129OSM   C14S13896   4.302   2.671   5.329 -0.5815  0.6328  0.7459
  129OSM   H14S13897   4.245   2.577   5.316  1.5479 -0.5318 -0.9303
  129OSM   H14T13898   4.409   2.644   5.343 -0.6861 -1.0368 -1.1795
  129OSM   C15S13899   4.286   2.745   5.200  0.3669 -0.8601  0.0692
  129OSM   H15S13900   4.311   2.849   5.228  0.3719 -0.9393  0.3644
  129OSM   H15T13901   4.181   2.753   5.165 -1.0078  1.2188  4.0293
  129OSM   C16S13902   4.388   2.694   5.091 -0.5879  0.2608 -0.0322
  129OSM   H16S13903   4.486   2.664   5.134 -0.0199 -1.0551 -2.1387
  129OSM   H16T13904   4.390   2.766   5.006 -2.3063  0.3662 -0.0171
  129OSM   C17S13905   4.333   2.569   5.021 -0.4368 -0.4336  0.4141
  129OSM   H17S13906   4.234   2.603   4.983  0.5259  2.2299  0.1102
  129OSM   H17T13907   4.333   2.490   5.100 -0.1134 -2.4963 -1.5471
  129OSM   C18S13908   4.417   2.529   4.897 -0.1507  0.1950  0.0871
  129OSM   H18S13909   4.382   2.429   4.862 -0.5897 -0.1068  1.3371
  129OSM   H18T13910   4.526   2.528   4.917 -0.5848  0.8784  2.8287
  129OSM   H18U13911   4.394   2.606   4.821 -1.8878  0.3076  0.6757
  129OSM    C1F13912   4.092   3.460   6.321  0.2597  0.7374 -0.1594
  129OSM     OF13913   4.180   3.481   6.394  0.3752 -0.0917 -0.3272
  129OSM    C2F13914   4.071   3.548   6.197 -0.0616 -0.2825 -0.3813
  129OSM    H2F13915   4.169   3.591   6.168  1.3432 -1.9951  1.5768
  129OSM    H2G13916   4.021   3.634   6.248  1.9569 -1.1796  3.4606
  129OSM    C3F13917   3.973   3.497   6.085  0.5195  0.2310 -0.0633
  129OSM    H3F13918   3.960   3.576   6.008 -0.6158  0.4284  0.3161
  129OSM    H3G13919   3.873   3.473   6.126 -0.8902  0.9927 -2.8133
  129OSM    C4F13920   4.017   3.381   5.990 -0.0264 -0.3186  0.2538
  129OSM    H4F13921   3.930   3.386   5.921  0.6094  1.9776 -0.4502
  129OSM    H4G13922   4.007   3.279   6.033 -2.4015 -0.6046 -0.8183
  129OSM    C5F13923   4.152   3.403   5.922  0.0162  0.8716 -0.0480
  129OSM    H5F13924   4.236   3.380   5.991 -0.0294 -1.1569 -0.6279
  129OSM    H5G13925   4.159   3.510   5.891  1.2808  0.5383 -0.9746
  129OSM    C6F13926   4.178   3.307   5.804  0.3578  0.9017 -0.0350
  129OSM    H6F13927   4.109   3.336   5.722 -0.1615  1.3283  0.5444
  129OSM    H6G13928   4.151   3.206   5.839 -0.4653  0.3324 -2.1585
  129OSM    C7F13929   4.326   3.287   5.764  0.6401  0.4757  0.0544
  129OSM    H7F13930   4.371   3.256   5.860 -1.7729 -1.2468  0.7421
  129OSM    H7G13931   4.361   3.389   5.737 -0.0015 -0.0220 -3.0616
  129OSM    C8F13932   4.344   3.182   5.651  0.0869 -0.6328  0.0402
  129OSM    H8F13933   4.295   3.223   5.560 -2.3001 -0.0224  1.5147
  129OSM    H8G13934   4.310   3.079   5.676  1.9591 -1.8905 -2.1166
  129OSM    C9F13935   4.489   3.162   5.631  0.0303 -0.2073  0.7323
  129OSM    H9F13936   4.560   3.156   5.715  0.5147 -0.5523  0.3038
  129OSM   C10F13937   4.540   3.132   5.512  0.0385 -0.1393  1.0140
  129OSM   H10F13938   4.645   3.101   5.500  0.3475  1.2519 -0.1818
  129OSM   C11F13939   4.458   3.143   5.387  0.2473 -0.2045 -0.2448
  129OSM   H11F13940   4.410   3.243   5.388  0.5286 -0.0354  2.2126
  129OSM   H11G13941   4.381   3.062   5.386  1.5251 -1.4726 -1.1747
  129OSM   C12F13942   4.539   3.123   5.260 -0.0467 -0.6950  0.6195
  129OSM   H12F13943   4.578   3.022   5.234  1.6381  0.2682 -0.7340
  129OSM   H12G13944   4.636   3.175   5.276 -0.6695  0.2061  1.5846
  129OSM   C13F13945   4.462   3.161   5.132 -0.3629  0.3354  0.7482
  129OSM   H13F13946   4.469   3.271   5.120  1.1551  0.2423  0.5144
  129OSM   H13G13947   4.357   3.134   5.155 -0.4353 -0.8042 -0.7260
  129OSM   C14F13948   4.519   3.084   5.012  0.4226 -0.0912 -0.1556
  129OSM   H14F13949   4.516   2.975   5.032 -1.6985 -0.1014 -0.2384
  129OSM   H14G13950   4.625   3.110   4.994  1.2827 -1.0625  2.9234
  129OSM   C15F13951   4.435   3.115   4.885 -0.1042  0.6234  0.5480
  129OSM   H15F13952   4.402   3.221   4.890  1.0869  0.9321  2.7000
  129OSM   H15G13953   4.335   3.067   4.893 -0.7253  1.8826  0.5047
  129OSM   C16F13954   4.506   3.090   4.753 -0.7251  0.7877  0.3256
  129OSM   H16F13955   4.530   2.982   4.754 -0.9254  0.6942 -1.3048
  129OSM   H16G13956   4.610   3.129   4.752  0.6744 -2.6047 -2.1512
  129OSM   C17F13957   4.427   3.128   4.634  1.0230 -0.0775  0.2008
  129OSM   H17F13958   4.483   3.130   4.538 -1.5464  1.5385 -1.3968
  129OSM   H17G13959   4.389   3.231   4.651 -0.3089 -0.7794  1.7694
  129OSM   C18F13960   4.307   3.039   4.608  0.1227 -0.2315  0.3099
  129OSM   H18F13961   4.232   3.087   4.542 -0.9963  1.7200  2.8352
  129OSM   H18G13962   4.253   2.993   4.694  0.2052 -2.3740 -0.7214
  129OSM   H18H13963   4.354   2.955   4.553 -0.7592 -1.9226  2.0095
  130OSM      N13964   4.604   5.329   6.920  0.3916  0.1139 -0.8140
  130OSM    C1513965   4.588   5.285   7.067  0.0885  0.3173 -1.0278
  130OSM   H15A13966   4.538   5.191   7.084 -1.8490  1.4527 -0.0533
  130OSM   H15B13967   4.528   5.356   7.121  1.5788  1.0840 -0.3234
  130OSM   H15C13968   4.682   5.278   7.120  0.3884 -0.1170 -1.6036
  130OSM    C1413969   4.472   5.375   6.866  0.4057 -0.1433 -0.4481
  130OSM   H14A13970   4.435   5.465   6.912  1.1399  0.3184 -0.7447
  130OSM   H14B13971   4.394   5.303   6.890  0.2701 -0.3542 -1.4578
  130OSM   H14C13972   4.479   5.380   6.758  0.5318 -1.3084 -0.5096
  130OSM    C1313973   4.690   5.452   6.914 -0.6487  0.1878  0.2204
  130OSM   H13A13974   4.636   5.536   6.954 -0.2644  0.9855 -0.8817
  130OSM   H13B13975   4.719   5.477   6.813 -1.6644  0.8106  0.0675
  130OSM   H13C13976   4.778   5.438   6.975 -0.2740 -0.9695 -0.5493
  130OSM    C1213977   4.649   5.210   6.841 -0.2021  0.4151 -0.1304
  130OSM   H12A13978   4.754   5.192   6.854 -0.5217 -1.1918  0.4298
  130OSM   H12B13979   4.637   5.236   6.737 -0.5683 -2.1520 -0.7857
  130OSM    C1113980   4.577   5.070   6.869  0.3379 -0.2626  0.0301
  130OSM   H11A13981   4.582   5.026   6.971 -3.0372 -0.5244  0.2037
  130OSM   H11B13982   4.619   4.991   6.803  0.6836  1.2242 -1.6159
  130OSM      P13983   4.361   5.056   6.707  0.1666  0.3547  0.0364
  130OSM    O1313984   4.321   4.914   6.716 -0.2277 -0.2662  0.5081
  130OSM    O1413985   4.261   5.162   6.683  0.1294 -0.6761 -0.0010
  130OSM    O1113986   4.475   5.079   6.598  0.0477  0.8299  0.2734
  130OSM    O1213987   4.436   5.084   6.844 -0.3036 -0.0751  0.6372
  130OSM    C1S13988   4.557   4.984   6.534 -0.2439 -0.2958 -0.0563
  130OSM    H1S13989   4.538   4.882   6.575 -2.7580  0.3883  0.6615
  130OSM    H1T13990   4.664   5.007   6.557 -0.0687 -0.0383 -1.0808
  130OSM     NF13991   4.643   4.885   6.322 -0.2336 -0.3455 -0.0084
  130OSM    HNF13992   4.732   4.911   6.287 -0.0359  0.3073  0.9415
  130OSM    C2S13993   4.551   4.990   6.378 -0.7591  0.6473 -0.2178
  130OSM    H2S13994   4.452   4.948   6.349 -0.2280 -1.9534  1.4034
  130OSM    C3S13995   4.572   5.139   6.329 -0.2256  0.2965  0.1191
  130OSM    H3S13996   4.672   5.171   6.365 -0.7489  2.2476 -0.0297
  130OSM     O313997   4.479   5.231   6.392 -0.2285 -0.0302  0.1701
  130OSM    HO313998   4.474   5.189   6.478  1.0253 -0.3563  0.1005
  130OSM    C4S13999   4.579   5.142   6.175 -0.7162  0.1670 -0.1855
  130OSM    H4S14000   4.677   5.115   6.134 -1.2150 -0.1579 -1.2030
  130OSM    C5S14001   4.476   5.166   6.097  1.2501 -0.1922  0.3315
  130OSM    H5S14002   4.387   5.210   6.142  1.4056 -0.3435  0.7949
  130OSM    C6S14003   4.470   5.173   5.945 -0.1606 -0.2213  0.8735
  130OSM    H6S14004   4.466   5.276   5.903  1.7034 -0.5100 -0.1204
  130OSM    H6T14005   4.385   5.116   5.901 -0.6930 -0.1049  1.7347
  130OSM    C7S14006   4.599   5.119   5.875  0.0070  0.0251  0.0731
  130OSM    H7S14007   4.610   5.009   5.889  2.4464  0.1800 -0.0757
  130OSM    H7T14008   4.684   5.169   5.926  0.0041 -1.3343  1.4868
  130OSM    C8S14009   4.601   5.147   5.724  0.3336 -0.3379  0.0867
  130OSM    H8S14010   4.586   5.252   5.694 -2.3434 -1.0031 -1.2122
  130OSM    H8T14011   4.515   5.098   5.673  0.2472 -0.5022  0.3817
  130OSM    C9S14012   4.723   5.093   5.662  0.1190  0.2867  0.0800
  130OSM    H9S14013   4.734   4.984   5.680 -0.4798 -0.1185 -1.7764
  130OSM    H9T14014   4.809   5.156   5.694 -0.5787  1.5597 -0.4390
  130OSM   C10S14015   4.718   5.127   5.514 -0.2764 -0.1483 -0.4244
  130OSM   H10S14016   4.820   5.103   5.479  0.6809  0.6808  1.6884
  130OSM   H10T14017   4.692   5.234   5.498 -1.0469 -0.2787 -0.0866
  130OSM   C11S14018   4.617   5.046   5.430  0.4653 -0.6073 -0.3394
  130OSM   H11S14019   4.513   5.082   5.449  0.6493 -0.2681  0.0231
  130OSM   H11T14020   4.620   4.936   5.447 -2.0400 -0.4902  1.3969
  130OSM   C12S14021   4.640   5.081   5.284 -0.3687  0.6357  0.2935
  130OSM   H12S14022   4.746   5.060   5.262  0.0282  2.3328  0.4720
  130OSM   H12T14023   4.616   5.189   5.276  3.4629  1.5885  0.1126
  130OSM   C13S14024   4.554   4.998   5.195 -0.3891  0.1280  0.6427
  130OSM   H13S14025   4.451   5.024   5.228 -0.5104 -1.8838  2.0401
  130OSM   H13T14026   4.571   4.888   5.205 -0.9442 -0.3925 -2.9217
  130OSM   C14S14027   4.578   5.050   5.055 -0.5946  0.2106 -0.0187
  130OSM   H14S14028   4.684   5.031   5.027 -0.8759  0.6646 -1.4467
  130OSM   H14T14029   4.546   5.156   5.046  0.4177  0.5856  0.5718
  130OSM   C15S14030   4.476   4.984   4.961 -0.5512 -0.4128  0.9085
  130OSM   H15S14031   4.385   5.039   4.992  0.2828  0.8181  1.2135
  130OSM   H15T14032   4.472   4.874   4.976 -0.5821 -0.7149 -0.9864
  130OSM   C16S14033   4.525   5.009   4.816  0.0109 -0.3309  0.4820
  130OSM   H16S14034   4.632   4.983   4.797  0.7378  2.7355 -0.1665
  130OSM   H16T14035   4.505   5.115   4.790  0.2649 -0.0394  1.4687
  130OSM   C17S14036   4.452   4.935   4.703 -0.1964 -0.2811  0.1991
  130OSM   H17S14037   4.432   4.828   4.725 -1.4622 -0.3369 -1.1076
  130OSM   H17T14038   4.513   4.933   4.610  0.9566  0.6954  0.9062
  130OSM   C18S14039   4.314   5.000   4.678  0.7304 -0.6202  1.1189
  130OSM   H18S14040   4.307   5.100   4.725  0.6192 -0.8871  1.6844
  130OSM   H18T14041   4.229   4.941   4.718  1.7055 -3.5113 -0.7353
  130OSM   H18U14042   4.305   4.991   4.568  2.2916 -0.6245  0.9589
  130OSM    C1F14043   4.617   4.757   6.348 -0.3346 -0.7359  0.5296
  130OSM     OF14044   4.515   4.720   6.405  0.2893 -0.7411  0.3375
  130OSM    C2F14045   4.732   4.668   6.328  0.5517 -0.6822 -0.5458
  130OSM    H2F14046   4.775   4.653   6.430 -2.8147  3.4384  1.7852
  130OSM    H2G14047   4.806   4.720   6.264  1.5109 -1.5536 -0.1704
  130OSM    C3F14048   4.696   4.532   6.271  0.5454  0.5303  0.0136
  130OSM    H3F14049   4.614   4.479   6.324  2.0982 -0.1373  1.8512
  130OSM    H3G14050   4.788   4.472   6.285  1.8463  2.5021  0.2512
  130OSM    C4F14051   4.661   4.528   6.119 -0.0619  0.7858  0.6788
  130OSM    H4F14052   4.574   4.598   6.111 -1.4085 -0.7140  1.6796
  130OSM    H4G14053   4.607   4.434   6.094  1.4943  0.0051  0.1472
  130OSM    C5F14054   4.766   4.563   6.013  0.5081 -0.2582 -0.4135
  130OSM    H5F14055   4.866   4.546   6.059  1.2096  1.7045 -1.1040
  130OSM    H5G14056   4.758   4.670   5.982  1.5830 -0.2509 -0.7123
  130OSM    C6F14057   4.758   4.475   5.893 -0.3684  0.3470  0.5383
  130OSM    H6F14058   4.649   4.463   5.875 -0.3728 -0.0699  0.8415
  130OSM    H6G14059   4.799   4.376   5.922  0.7170  0.9333  1.0600
  130OSM    C7F14060   4.826   4.526   5.767  0.7617  0.3010 -0.3061
  130OSM    H7F14061   4.827   4.452   5.684 -3.1674 -0.1491 -0.1583
  130OSM    H7G14062   4.924   4.569   5.794  1.2400  0.5025 -2.1989
  130OSM    C8F14063   4.738   4.644   5.713  0.5234 -0.4391  0.2181
  130OSM    H8F14064   4.809   4.696   5.645 -0.3751  0.3229 -0.1580
  130OSM    H8G14065   4.729   4.725   5.789 -2.2609  1.4186 -1.8812
  130OSM    C9F14066   4.616   4.622   5.630  0.2446  0.1489  0.3628
  130OSM    H9F14067   4.521   4.649   5.678  1.1872  1.9109  1.3192
  130OSM   C10F14068   4.612   4.569   5.505  0.3450 -0.1473  0.0220
  130OSM   H10F14069   4.512   4.560   5.460  0.4675  0.0316 -0.2911
  130OSM   C11F14070   4.735   4.537   5.424  0.2258  0.2382  0.9371
  130OSM   H11F14071   4.810   4.487   5.488 -0.0676 -1.5221 -0.0426
  130OSM   H11G14072   4.783   4.633   5.393  0.7131 -0.4485 -0.5129
  130OSM   C12F14073   4.710   4.473   5.293  0.7014  0.2046  0.5052
  130OSM   H12F14074   4.673   4.369   5.310 -0.5792  0.1039 -2.2348
  130OSM   H12G14075   4.810   4.453   5.248  1.5974 -0.4175  2.6266
  130OSM   C13F14076   4.613   4.544   5.196 -0.0533 -0.4561  0.3198
  130OSM   H13F14077   4.657   4.646   5.188  0.9392 -0.6103  2.9614
  130OSM   H13G14078   4.508   4.550   5.231 -0.2813  1.9141 -0.5902
  130OSM   C14F14079   4.592   4.474   5.059  0.1950 -0.1117 -0.1509
  130OSM   H14F14080   4.544   4.375   5.073  0.0255 -0.3395 -2.0833
  130OSM   H14G14081   4.684   4.449   5.002 -0.2620  2.3171 -2.1074
  130OSM   C15F14082   4.510   4.551   4.956 -0.2763 -0.0781 -0.6610
  130OSM   H15F14083   4.562   4.646   4.931 -1.1656  0.7318  0.4980
  130OSM   H15G14084   4.409   4.574   4.996  0.6031  0.7817  1.2046
  130OSM   C16F14085   4.485   4.470   4.828  0.3591  0.5591 -0.0448
  130OSM   H16F14086   4.585   4.453   4.783  0.9073 -1.9283  1.9353
  130OSM   H16G14087   4.419   4.525   4.757 -3.9354 -2.2782  1.3499
  130OSM   C17F14088   4.424   4.325   4.849  0.5013  0.3834 -0.7398
  130OSM   H17F14089   4.345   4.335   4.926  0.0080  1.8564 -1.3988
  130OSM   H17G14090   4.504   4.259   4.889 -1.3030 -0.5988  1.4361
  130OSM   C18F14091   4.360   4.260   4.724  0.3426 -0.4959  0.2049
  130OSM   H18F14092   4.442   4.247   4.651  2.0722  0.2594  1.9220
  130OSM   H18G14093   4.274   4.317   4.684  0.8533  0.4085  0.3636
  130OSM   H18H14094   4.333   4.154   4.746  2.0253 -0.8081  0.9917
  131OSM      N14095   4.979   0.749   6.780  1.0074  0.1537 -0.4407
  131OSM    C1514096   5.015   0.741   6.631  0.7451  0.2812 -0.2561
  131OSM   H15A14097   5.031   0.844   6.604  1.4277  0.3261  0.2743
  131OSM   H15B14098   4.944   0.690   6.567  1.9462 -0.0696 -1.3278
  131OSM   H15C14099   5.110   0.689   6.632  0.7247  0.1805 -1.7146
  131OSM    C1414100   4.832   0.772   6.781  1.3326  0.3358  0.4828
  131OSM   H14A14101   4.790   0.788   6.879 -1.8844 -2.8267 -0.1711
  131OSM   H14B14102   4.795   0.681   6.737 -0.3601  0.4501  1.5834
  131OSM   H14C14103   4.804   0.863   6.730 -2.6038 -0.8286  0.2235
  131OSM    C1314104   5.006   0.620   6.850  0.5099  0.4165  0.1382
  131OSM   H13A14105   5.112   0.601   6.855  0.5764  0.9070  0.6413
  131OSM   H13B14106   4.955   0.534   6.807  1.3236 -0.4069  0.7761
  131OSM   H13C14107   4.977   0.629   6.953 -3.9874 -2.3315 -0.5853
  131OSM    C1214108   5.073   0.854   6.836 -0.6472  0.4040 -0.2502
  131OSM   H12A14109   5.174   0.823   6.813  0.2326 -0.0375  3.5380
  131OSM   H12B14110   5.077   0.855   6.944  3.8233  0.4534 -0.2326
  131OSM    C1114111   5.070   1.008   6.791 -0.3985  0.6161 -0.3216
  131OSM   H11A14112   5.140   1.070   6.852 -0.6664  1.1666 -0.5665
  131OSM   H11B14113   4.967   1.042   6.812 -1.0955 -1.4022 -0.2582
  131OSM      P14114   5.250   1.041   6.601  0.0683 -0.0004  0.0715
  131OSM    O1314115   5.262   1.171   6.531  0.3454 -0.4482  0.5263
  131OSM    O1414116   5.350   1.017   6.705 -0.4862 -0.2636 -0.3372
  131OSM    O1114117   5.260   0.926   6.491 -0.6202 -0.2516  0.0301
  131OSM    O1214118   5.105   1.019   6.653 -0.0402  0.7044 -0.5686
  131OSM    C1S14119   5.193   0.941   6.372 -0.6162 -0.3863  1.4527
  131OSM    H1S14120   5.223   1.039   6.330  1.5056 -1.2289  0.8748
  131OSM    H1T14121   5.084   0.932   6.390 -0.7074  0.0661  1.1331
  131OSM     NF14122   5.136   0.844   6.163 -0.6299 -0.1563  0.0682
  131OSM    HNF14123   5.046   0.803   6.175 -1.0711  0.2296 -1.6024
  131OSM    C2S14124   5.235   0.828   6.267  0.5892 -0.0469  0.1839
  131OSM    H2S14125   5.335   0.850   6.225 -0.1941 -0.8158 -2.2162
  131OSM    C3S14126   5.233   0.685   6.332  0.3246 -0.5279  0.1239
  131OSM    H3S14127   5.129   0.675   6.371 -1.1900  1.4775 -3.0326
  131OSM     O314128   5.320   0.663   6.439 -0.5875  0.5753 -0.4548
  131OSM    HO314129   5.327   0.756   6.462  0.2303  0.5060 -0.3962
  131OSM    C4S14130   5.271   0.587   6.226 -0.9983 -0.0695  0.3574
  131OSM    H4S14131   5.379   0.585   6.202 -0.6023 -0.0318  2.0152
  131OSM    C5S14132   5.181   0.513   6.157  0.5793 -0.1179  0.2812
  131OSM    H5S14133   5.072   0.521   6.169  0.6005 -1.3495  1.5569
  131OSM    C6S14134   5.207   0.412   6.043  0.1208  0.0646 -0.4038
  131OSM    H6S14135   5.145   0.451   5.960 -2.1528  0.6473  1.4535
  131OSM    H6T14136   5.162   0.316   6.076 -0.3573  1.0812  2.1534
  131OSM    C7S14137   5.358   0.367   5.999  0.7288 -1.4011 -0.3216
  131OSM    H7S14138   5.412   0.329   6.088 -1.0555 -1.8329  0.6204
  131OSM    H7T14139   5.385   0.467   5.959 -0.8952 -0.3432  1.0763
  131OSM    C8S14140   5.349   0.266   5.892 -0.0834  0.1276 -0.0532
  131OSM    H8S14141   5.261   0.201   5.910 -0.9508  1.2979  0.0226
  131OSM    H8T14142   5.435   0.196   5.887  0.7891  1.2597 -1.4455
  131OSM    C9S14143   5.333   0.327   5.749  0.1240 -0.1297 -0.0120
  131OSM    H9S14144   5.406   0.409   5.734  0.5426 -0.3422  0.8442
  131OSM    H9T14145   5.230   0.368   5.744 -0.9170 -2.5671 -0.0518
  131OSM   C10S14146   5.344   0.224   5.635 -0.5030  0.1401  0.6640
  131OSM   H10S14147   5.300   0.125   5.657  0.1547 -0.5086 -0.8793
  131OSM   H10T14148   5.451   0.194   5.639 -0.8249 -1.0614  0.6672
  131OSM   C11S14149   5.299   0.285   5.498 -0.5168 -0.4755 -0.0728
  131OSM   H11S14150   5.370   0.366   5.471  1.5352 -1.6380  1.5993
  131OSM   H11T14151   5.199   0.331   5.513 -0.4355  0.1620 -1.3372
  131OSM   C12S14152   5.288   0.183   5.389 -0.9052 -0.3349  0.2058
  131OSM   H12S14153   5.216   0.106   5.424 -1.0220 -0.8920 -1.1628
  131OSM   H12T14154   5.387   0.135   5.375 -1.1217 -0.2663 -2.0175
  131OSM   C13S14155   5.242   0.223   5.254 -0.2269  0.5841 -0.4019
  131OSM   H13S14156   5.303   0.310   5.222 -0.1034  0.8643  0.5716
  131OSM   H13T14157   5.139   0.264   5.260 -0.0405  0.8909  0.8734
  131OSM   C14S14158   5.242   0.109   5.157  0.2179  0.7966  0.0911
  131OSM   H14S14159   5.335   0.049   5.169  1.2731  2.6058  1.5686
  131OSM   H14T14160   5.241   0.150   5.053 -1.4196  2.7354  0.8024
  131OSM   C15S14161   5.134   0.002   5.171 -0.1615 -0.1299  0.3415
  131OSM   H15S14162   5.033   0.049   5.165 -1.3305 -2.3604  1.1768
  131OSM   H15T14163   5.122  -0.034   5.276 -1.7815 -0.9763 -0.0879
  131OSM   C16S14164   5.161  -0.126   5.084 -0.2339  0.4245  0.0565
  131OSM   H16S14165   5.260  -0.167   5.112 -0.2423 -1.3285 -2.2002
  131OSM   H16T14166   5.167  -0.106   4.975 -0.1856  0.9851  0.1579
  131OSM   C17S14167   5.065  -0.237   5.124  0.7897  0.4538 -0.2809
  131OSM   H17S14168   4.967  -0.188   5.142  1.3909  1.0193  1.7569
  131OSM   H17T14169   5.088  -0.281   5.223 -0.6327 -0.0803 -0.1581
  131OSM   C18S14170   5.051  -0.360   5.030  0.3821 -0.0476 -0.4644
  131OSM   H18S14171   4.986  -0.442   5.068 -1.8302  2.0752  0.5652
  131OSM   H18T14172   5.146  -0.404   4.993  0.3318 -1.0374  0.5301
  131OSM   H18U14173   4.984  -0.334   4.945 -1.9837 -2.9005  0.3640
  131OSM    C1F14174   5.138   0.947   6.078 -0.5222  0.3851 -1.0335
  131OSM     OF14175   5.216   1.040   6.089 -0.5577 -0.6389  0.4881
  131OSM    C2F14176   5.028   0.945   5.984  0.1374 -0.4921 -0.1002
  131OSM    H2F14177   4.939   0.981   6.039  0.5765 -0.7901  0.8307
  131OSM    H2G14178   5.015   0.837   5.962  1.9270 -1.0039  1.0569
  131OSM    C3F14179   5.054   1.030   5.858  0.2504 -0.3771  0.2234
  131OSM    H3F14180   5.136   0.997   5.790 -1.2429  0.5031 -2.1518
  131OSM    H3G14181   5.072   1.136   5.883 -0.3073 -0.2240 -0.0054
  131OSM    C4F14182   4.933   1.015   5.767  0.3990  0.1324 -0.0781
  131OSM    H4F14183   4.852   1.071   5.817  1.0910  1.1652 -0.0941
  131OSM    H4G14184   4.904   0.908   5.757  0.6362  0.2044 -2.0257
  131OSM    C5F14185   4.963   1.072   5.629  0.2013 -0.1410  0.1316
  131OSM    H5F14186   5.051   1.017   5.590 -0.0117 -0.7055  0.4353
  131OSM    H5G14187   4.981   1.181   5.628  1.2390 -0.3143 -1.1704
  131OSM    C6F14188   4.848   1.049   5.528  0.3990 -0.7584  0.0218
  131OSM    H6F14189   4.753   1.090   5.569  0.1419 -2.6965  1.4989
  131OSM    H6G14190   4.833   0.939   5.521  2.1249 -1.1995  2.1511
  131OSM    C7F14191   4.877   1.106   5.387 -0.3372 -0.4024 -0.5104
  131OSM    H7F14192   4.960   1.056   5.332 -0.6747 -3.4073  1.5197
  131OSM    H7G14193   4.907   1.213   5.398 -2.0760  0.0506  0.1021
  131OSM    C8F14194   4.757   1.099   5.293 -0.3246 -0.1860 -0.0375
  131OSM    H8F14195   4.664   1.125   5.347 -0.2557  2.5391 -1.0939
  131OSM    H8G14196   4.746   0.992   5.264 -0.8446 -0.4075  0.9593
  131OSM    C9F14197   4.754   1.193   5.172  0.6291 -0.2523 -0.1685
  131OSM    H9F14198   4.721   1.297   5.187  0.2671 -0.0468 -2.1106
  131OSM   C10F14199   4.801   1.168   5.054 -0.4122 -0.3895  0.4177
  131OSM   H10F14200   4.771   1.234   4.972 -4.8732 -0.9965  1.2769
  131OSM   C11F14201   4.867   1.048   5.006 -0.2105  0.6433  0.1190
  131OSM   H11F14202   4.782   0.978   4.989 -0.8741  0.7893  2.4996
  131OSM   H11G14203   4.929   1.000   5.085 -2.1811  0.9061  1.9099
  131OSM   C12F14204   4.943   1.066   4.874  0.1357  0.1992 -0.0376
  131OSM   H12F14205   4.958   0.965   4.830  2.6175  0.5810 -0.2221
  131OSM   H12G14206   5.043   1.109   4.897 -0.6067  2.8332 -1.3085
  131OSM   C13F14207   4.870   1.146   4.765  0.5093 -0.1823 -0.4173
  131OSM   H13F14208   4.936   1.144   4.676  1.8320 -3.2603  0.4842
  131OSM   H13G14209   4.856   1.252   4.794  0.3492 -0.4457  0.4975
  131OSM   C14F14210   4.728   1.084   4.732 -0.9263 -0.3094 -0.2486
  131OSM   H14F14211   4.666   1.154   4.671 -0.6056  0.5990  0.4372
  131OSM   H14G14212   4.680   1.060   4.829 -0.4462 -1.2882 -0.2431
  131OSM   C15F14213   4.729   0.942   4.677  0.2717  0.2981 -0.0785
  131OSM   H15F14214   4.781   0.872   4.745  1.2614  2.7123  1.8121
  131OSM   H15G14215   4.780   0.940   4.578  2.4807 -0.3655  1.0301
  131OSM   C16F14216   4.584   0.897   4.661  0.4335 -0.2284 -0.7033
  131OSM   H16F14217   4.526   0.955   4.586  1.0266  3.8107  1.7179
  131OSM   H16G14218   4.530   0.908   4.758 -0.1263  0.6296 -1.1050
  131OSM   C17F14219   4.570   0.750   4.620 -0.5061 -0.2265  0.3190
  131OSM   H17F14220   4.624   0.682   4.690  0.0033  1.1347  1.3063
  131OSM   H17G14221   4.613   0.738   4.518 -2.4590 -1.5404 -0.3938
  131OSM   C18F14222   4.420   0.704   4.610 -0.3231  0.1788  0.4843
  131OSM   H18F14223   4.361   0.740   4.696  3.2845  1.8232  2.4970
  131OSM   H18G14224   4.410   0.593   4.618  1.1649 -0.1527 -1.5526
  131OSM   H18H14225   4.380   0.740   4.513  2.1110 -0.9440 -1.0375
  132OSM      N14226   5.241   2.802   7.043  0.0931  0.2972 -1.0122
  132OSM    C1514227   5.252   2.924   7.131 -0.3552  0.3413 -0.7293
  132OSM   H15A14228   5.353   2.924   7.171  0.0030 -0.1166 -1.5964
  132OSM   H15B14229   5.185   2.914   7.214 -0.8185 -1.8248 -1.3041
  132OSM   H15C14230   5.220   3.006   7.070  1.0405  1.0430 -0.5663
  132OSM    C1414231   5.263   2.678   7.121 -0.1439 -0.4413 -0.2468
  132OSM   H14A14232   5.369   2.659   7.132  0.1545  0.7135 -1.0381
  132OSM   H14B14233   5.218   2.594   7.071 -0.8475 -1.4456  1.9127
  132OSM   H14C14234   5.215   2.683   7.218  1.1393 -1.6356  0.4845
  132OSM    C1314235   5.102   2.787   6.990 -0.6038 -0.5023 -0.2390
  132OSM   H13A14236   5.079   2.851   6.905  1.9602 -0.0726 -0.6963
  132OSM   H13B14237   5.036   2.819   7.068 -0.4275  1.5821 -0.8850
  132OSM   H13C14238   5.088   2.684   6.961  0.9597 -0.4489 -1.3408
  132OSM    C1214239   5.336   2.817   6.927  0.3516 -0.2776 -0.4848
  132OSM   H12A14240   5.356   2.724   6.876 -1.4092 -0.8058 -0.2667
  132OSM   H12B14241   5.432   2.846   6.966 -0.7013  1.1755  1.2097
  132OSM    C1114242   5.309   2.920   6.820  0.3950  0.0174  1.0235
  132OSM   H11A14243   5.205   2.909   6.783  0.1246  3.1685  0.5724
  132OSM   H11B14244   5.380   2.902   6.737  0.9718 -2.2162  1.9144
  132OSM      P14245   5.471   3.113   6.898 -0.0485 -0.2458  0.2004
  132OSM    O1314246   5.458   3.242   6.972 -0.2046 -0.2630  0.0229
  132OSM    O1414247   5.567   3.014   6.942 -0.1718 -0.0628  0.2948
  132OSM    O1114248   5.506   3.171   6.755  0.3167  0.3860  0.1406
  132OSM    O1214249   5.327   3.060   6.865 -0.2839  0.2493 -0.1611
  132OSM    C1S14250   5.406   3.240   6.680 -0.1034  0.0183 -0.2286
  132OSM    H1S14251   5.349   3.306   6.749  0.1797 -0.2589  0.2786
  132OSM    H1T14252   5.335   3.168   6.633 -1.4915  0.2426  1.4121
  132OSM     NF14253   5.398   3.434   6.515 -0.1669 -0.0068  0.7592
  132OSM    HNF14254   5.381   3.435   6.417 -0.3009  2.4410  0.7450
  132OSM    C2S14255   5.470   3.324   6.560 -0.4191  1.2228  0.1282
  132OSM    H2S14256   5.561   3.365   6.609 -0.0233 -0.0687  0.5062
  132OSM    C3S14257   5.511   3.228   6.444 -0.2703  0.0695  0.6714
  132OSM    H3S14258   5.422   3.190   6.390 -0.1064 -1.2480  1.3002
  132OSM     O314259   5.579   3.105   6.486 -0.4515 -0.2104  0.4109
  132OSM    HO314260   5.574   3.106   6.582  1.9417 -0.5303  0.6041
  132OSM    C4S14261   5.592   3.293   6.341  0.1909 -0.5002 -0.1170
  132OSM    H4S14262   5.531   3.321   6.254 -1.5596 -0.5944  1.0434
  132OSM    C5S14263   5.729   3.287   6.330  0.1135 -0.1560 -0.2743
  132OSM    H5S14264   5.785   3.223   6.399 -0.7532  0.6548  1.2486
  132OSM    C6S14265   5.805   3.326   6.204 -0.2641  0.3495 -0.2739
  132OSM    H6S14266   5.883   3.249   6.182 -0.4750  0.6562 -2.3506
  132OSM    H6T14267   5.874   3.412   6.216  3.0427 -2.1576  0.1191
  132OSM    C7S14268   5.729   3.357   6.074  0.1730 -0.5723 -0.0694
  132OSM    H7S14269   5.663   3.443   6.097 -0.1733 -0.5251 -1.1734
  132OSM    H7T14270   5.653   3.281   6.046 -0.2873  0.5325 -2.0136
  132OSM    C8S14271   5.822   3.393   5.958  0.1743  0.7465 -0.3792
  132OSM    H8S14272   5.892   3.311   5.930  0.1613  1.1850 -1.7617
  132OSM    H8T14273   5.899   3.466   5.990  1.1260 -0.7531  0.8931
  132OSM    C9S14274   5.746   3.437   5.836 -0.2030  0.0088 -0.9940
  132OSM    H9S14275   5.688   3.529   5.859  0.7473  0.2867  0.3762
  132OSM    H9T14276   5.685   3.355   5.792 -1.4507  0.5796 -0.3904
  132OSM   C10S14277   5.849   3.482   5.732  0.3311 -0.0057 -0.2736
  132OSM   H10S14278   5.911   3.392   5.710 -0.0749  0.0738 -1.8549
  132OSM   H10T14279   5.921   3.561   5.759 -1.6006  2.0443 -0.8045
  132OSM   C11S14280   5.778   3.532   5.597  0.0225 -0.4880 -0.5946
  132OSM   H11S14281   5.702   3.610   5.620 -0.5186 -1.1077 -0.2825
  132OSM   H11T14282   5.721   3.444   5.561  1.2426 -1.5175 -0.0898
  132OSM   C12S14283   5.874   3.585   5.484  0.7632 -0.2796 -0.3259
  132OSM   H12S14284   5.978   3.559   5.514 -0.1111 -0.0268  3.3710
  132OSM   H12T14285   5.888   3.695   5.481 -1.6371  0.1770  1.8369
  132OSM   C13S14286   5.825   3.552   5.341 -0.9068 -0.0754  0.6145
  132OSM   H13S14287   5.799   3.444   5.329 -0.9514 -0.0949  0.8741
  132OSM   H13T14288   5.912   3.574   5.276 -1.2042 -1.3051 -0.2310
  132OSM   C14S14289   5.721   3.655   5.307  0.4516 -0.0703 -0.3679
  132OSM   H14S14290   5.770   3.754   5.317 -1.3861  0.7294  1.4258
  132OSM   H14T14291   5.626   3.657   5.364  0.3023 -1.2391 -0.5570
  132OSM   C15S14292   5.684   3.632   5.165 -0.3544  0.2740  0.1124
  132OSM   H15S14293   5.638   3.531   5.167  0.5792 -0.1708 -0.0158
  132OSM   H15T14294   5.772   3.647   5.099 -1.7607 -1.3368 -2.2842
  132OSM   C16S14295   5.569   3.729   5.124 -0.5621 -0.6715  0.6165
  132OSM   H16S14296   5.609   3.829   5.154  0.4464 -1.0775  0.6634
  132OSM   H16T14297   5.482   3.717   5.192 -0.8524  1.9389  0.8076
  132OSM   C17S14298   5.525   3.718   4.982 -0.5759 -1.0093 -0.1090
  132OSM   H17S14299   5.484   3.615   4.973  1.1990 -1.7003 -0.5875
  132OSM   H17T14300   5.614   3.717   4.916 -1.1833  3.2105 -1.2794
  132OSM   C18S14301   5.418   3.821   4.931 -0.1216 -0.6189 -0.6427
  132OSM   H18S14302   5.448   3.928   4.930 -0.6893 -0.4513  0.0134
  132OSM   H18T14303   5.337   3.822   5.007  0.0899  3.1694 -0.2569
  132OSM   H18U14304   5.370   3.787   4.836 -1.8854 -0.0988  0.0281
  132OSM    C1F14305   5.367   3.532   6.601  0.0926  0.0921 -0.2862
  132OSM     OF14306   5.425   3.539   6.702  0.0228 -0.1518 -0.1895
  132OSM    C2F14307   5.277   3.642   6.546  0.7910 -0.2978  1.0632
  132OSM    H2F14308   5.217   3.690   6.626 -2.6670 -1.1074 -0.8687
  132OSM    H2G14309   5.200   3.595   6.481  2.3780 -0.5295 -0.7470
  132OSM    C3F14310   5.350   3.768   6.483  0.1835 -0.0075  1.3027
  132OSM    H3F14311   5.437   3.797   6.545  0.5710  0.1719  0.6809
  132OSM    H3G14312   5.277   3.851   6.490  0.0844 -0.1310  1.8019
  132OSM    C4F14313   5.400   3.744   6.339 -0.4860  0.1517  0.3181
  132OSM    H4F14314   5.317   3.701   6.279 -0.6486  1.0583 -0.1209
  132OSM    H4G14315   5.487   3.676   6.334  0.7972  1.6571  1.1745
  132OSM    C5F14316   5.447   3.873   6.266 -0.2122  0.5376 -0.0717
  132OSM    H5F14317   5.514   3.928   6.336 -0.7230  1.7118 -0.4779
  132OSM    H5G14318   5.354   3.931   6.250 -0.1296  0.7850  0.3362
  132OSM    C6F14319   5.511   3.847   6.132 -0.6701 -0.4523  0.6424
  132OSM    H6F14320   5.435   3.802   6.064  0.0931 -1.7194  0.5795
  132OSM    H6G14321   5.594   3.772   6.129  0.3043  0.6284 -0.2792
  132OSM    C7F14322   5.562   3.982   6.083  0.2764  0.1017 -0.1704
  132OSM    H7F14323   5.635   4.023   6.156  1.6430 -0.5476 -1.1237
  132OSM    H7G14324   5.472   4.047   6.084 -2.1796 -3.0382  1.4736
  132OSM    C8F14325   5.627   3.977   5.943  0.0086  1.3167 -0.5539
  132OSM    H8F14326   5.704   3.898   5.956 -0.7731  0.7801  1.1170
  132OSM    H8G14327   5.676   4.077   5.933  1.1242  1.0040  1.2418
  132OSM    C9F14328   5.532   3.950   5.825 -0.6338  0.2899 -0.1686
  132OSM    H9F14329   5.430   3.911   5.840  0.0530 -0.9396  1.5685
  132OSM   C10F14330   5.580   3.986   5.701 -0.1908 -0.2838 -0.2088
  132OSM   H10F14331   5.516   3.990   5.612  0.0611  3.9084 -0.4006
  132OSM   C11F14332   5.722   4.030   5.659  0.3909  0.5335 -0.0353
  132OSM   H11F14333   5.794   3.948   5.678 -0.7522 -0.4985  0.0113
  132OSM   H11G14334   5.759   4.116   5.717  0.9285  0.1583  0.1861
  132OSM   C12F14335   5.727   4.055   5.504  0.0345 -0.3557  1.0236
  132OSM   H12F14336   5.670   3.972   5.457  1.2503 -1.1239  0.8570
  132OSM   H12G14337   5.834   4.046   5.477  0.1468  0.2393  1.2464
  132OSM   C13F14338   5.684   4.194   5.469 -0.0664 -0.2834 -0.3722
  132OSM   H13F14339   5.731   4.270   5.535  1.4587 -0.6204 -1.0188
  132OSM   H13G14340   5.573   4.198   5.467 -0.1072 -0.9453  0.2024
  132OSM   C14F14341   5.739   4.230   5.328 -0.7510 -0.0368 -0.3214
  132OSM   H14F14342   5.849   4.223   5.340 -0.6532  0.3690 -0.9177
  132OSM   H14G14343   5.729   4.339   5.306  3.3087  0.6552  0.4862
  132OSM   C15F14344   5.680   4.145   5.216 -0.0166 -0.1746 -0.0848
  132OSM   H15F14345   5.571   4.165   5.203 -0.2183 -1.0810  0.1486
  132OSM   H15G14346   5.688   4.035   5.233 -2.0274 -0.6321 -1.7055
  132OSM   C16F14347   5.745   4.185   5.085  0.0733  0.0270 -0.2222
  132OSM   H16F14348   5.853   4.208   5.102 -0.0364  0.0396  0.4721
  132OSM   H16G14349   5.692   4.277   5.054 -1.1153 -0.2539  0.9060
  132OSM   C17F14350   5.730   4.079   4.983 -0.4492 -0.3894 -0.3199
  132OSM   H17F14351   5.621   4.062   4.971 -0.4612  0.1636 -1.0482
  132OSM   H17G14352   5.787   3.990   5.018 -1.2524 -0.4492  0.8900
  132OSM   C18F14353   5.778   4.119   4.843 -0.4817 -0.3616 -0.5974
  132OSM   H18F14354   5.888   4.107   4.838 -0.0778  2.3734  0.0430
  132OSM   H18G14355   5.757   4.226   4.820 -0.2217 -0.1898 -0.0328
  132OSM   H18H14356   5.733   4.056   4.763  0.6027  0.8201 -2.2034
  133OSM      N14357   3.081   3.865   6.613 -0.2272 -0.0421  0.1470
  133OSM    C1514358   2.979   3.915   6.513 -0.4191 -0.0790 -0.0693
  133OSM   H15A14359   3.023   4.004   6.471  1.0171 -0.1632  1.1526
  133OSM   H15B14360   2.890   3.951   6.562  0.5167 -0.3252  1.9097
  133OSM   H15C14361   2.953   3.837   6.443 -0.3159 -1.5456  1.4568
  133OSM    C1414362   3.117   3.986   6.691 -0.5418  0.0887 -0.2808
  133OSM   H14A14363   3.157   3.960   6.788 -0.3359  0.5129 -0.2474
  133OSM   H14B14364   3.019   4.024   6.717 -1.4216 -3.1763  1.7387
  133OSM   H14C14365   3.187   4.052   6.642  1.4031 -2.4602 -1.1398
  133OSM    C1314366   3.006   3.766   6.699 -0.6916  0.5277 -0.5727
  133OSM   H13A14367   2.960   3.687   6.642 -1.9479 -0.3143  1.4712
  133OSM   H13B14368   2.927   3.812   6.757  1.1095  1.7780  1.0111
  133OSM   H13C14369   3.073   3.721   6.770 -1.1028  2.4997  1.1919
  133OSM    C1214370   3.196   3.796   6.547  0.2824  0.5002  0.8057
  133OSM   H12A14371   3.163   3.702   6.505  0.9900  0.5701  0.0686
  133OSM   H12B14372   3.275   3.771   6.617  1.1152 -0.9607 -0.5906
  133OSM    C1114373   3.259   3.859   6.427  1.0075 -0.5142  0.4737
  133OSM   H11A14374   3.188   3.863   6.341 -0.2445 -2.3685  1.3636
  133OSM   H11B14375   3.345   3.797   6.394  2.7894  1.9851  0.2053
  133OSM      P14376   3.446   4.039   6.473  0.0517 -0.0127 -0.0371
  133OSM    O1314377   3.442   4.189   6.471 -0.2631 -0.2071 -0.0634
  133OSM    O1414378   3.512   3.973   6.589  0.2932 -0.1536 -0.4109
  133OSM    O1114379   3.514   3.992   6.337 -0.0879 -0.8815  0.0008
  133OSM    O1214380   3.296   3.995   6.452  0.4473 -0.7127 -0.4623
  133OSM    C1S14381   3.441   4.023   6.212 -0.0829 -0.4882 -0.1696
  133OSM    H1S14382   3.330   4.026   6.219 -0.3549 -3.4352 -1.5566
  133OSM    H1T14383   3.466   3.933   6.151  2.5352 -0.5550  0.8558
  133OSM     NF14384   3.436   4.151   6.005  0.0375  0.4202 -0.7396
  133OSM    HNF14385   3.483   4.095   5.938  1.0537  1.3727 -0.8499
  133OSM    C2S14386   3.505   4.146   6.132  0.6230  0.8378 -0.1697
  133OSM    H2S14387   3.481   4.239   6.187  1.3000  1.6856 -1.2629
  133OSM    C3S14388   3.656   4.121   6.114 -0.1790 -0.9094 -0.3392
  133OSM    H3S14389   3.663   4.019   6.071 -0.7700 -1.3888  0.6676
  133OSM     O314390   3.738   4.104   6.233  0.9622 -0.5568  0.2266
  133OSM    HO314391   3.670   4.116   6.300  0.2583 -0.1722 -0.5385
  133OSM    C4S14392   3.708   4.229   6.020  0.1431  0.6406 -0.1927
  133OSM    H4S14393   3.701   4.210   5.912  0.5842  3.4807 -0.7867
  133OSM    C5S14394   3.748   4.355   6.052  0.5379  0.1065  0.2824
  133OSM    H5S14395   3.729   4.396   6.152 -1.1443  1.3916 -0.5320
  133OSM    C6S14396   3.791   4.464   5.953  0.0372 -0.0082  0.7158
  133OSM    H6S14397   3.888   4.501   5.992 -0.4785  0.4392  1.6109
  133OSM    H6T14398   3.728   4.555   5.959  0.7979  0.5481  0.3661
  133OSM    C7S14399   3.824   4.435   5.799  0.1320 -0.1546 -0.9139
  133OSM    H7S14400   3.728   4.395   5.759 -1.2878  1.2571  0.8577
  133OSM    H7T14401   3.898   4.352   5.792  2.6068  1.6564  1.5901
  133OSM    C8S14402   3.877   4.563   5.731  0.4923 -0.0896  0.6357
  133OSM    H8S14403   3.974   4.591   5.777  0.6811 -1.0446  0.8352
  133OSM    H8T14404   3.811   4.651   5.746 -0.7339 -1.0943  1.3604
  133OSM    C9S14405   3.882   4.540   5.582 -0.0356 -0.4558 -0.3222
  133OSM    H9S14406   3.951   4.456   5.558 -0.1296 -0.5399 -0.3015
  133OSM    H9T14407   3.923   4.636   5.545  0.2569 -0.4865 -0.0794
  133OSM   C10S14408   3.749   4.514   5.513  0.0710  0.0920  0.0522
  133OSM   H10S14409   3.674   4.580   5.563  1.3515 -0.3266  2.6540
  133OSM   H10T14410   3.726   4.406   5.517 -0.4141  0.2162  0.8483
  133OSM   C11S14411   3.764   4.547   5.363 -1.0604  0.6979 -0.2362
  133OSM   H11S14412   3.859   4.507   5.321 -0.2216  1.2106  1.0780
  133OSM   H11T14413   3.773   4.656   5.344  1.4030  0.3061 -1.8240
  133OSM   C12S14414   3.653   4.476   5.291  0.6173 -0.6324 -0.6324
  133OSM   H12S14415   3.568   4.516   5.351  0.5272 -2.5631  0.6050
  133OSM   H12T14416   3.667   4.371   5.324 -2.0178 -0.4169  1.5775
  133OSM   C13S14417   3.648   4.518   5.144 -0.0995  0.6940  0.4888
  133OSM   H13S14418   3.751   4.513   5.105 -0.3597 -0.2324 -0.1139
  133OSM   H13T14419   3.630   4.627   5.145  0.8866  0.8756 -0.1714
  133OSM   C14S14420   3.547   4.448   5.051  0.3946  0.0924 -0.4117
  133OSM   H14S14421   3.442   4.467   5.083  1.2216  1.4286  1.7334
  133OSM   H14T14422   3.569   4.340   5.056  0.7410  0.1107 -1.4026
  133OSM   C15S14423   3.549   4.486   4.907  0.7916 -0.7808 -0.6308
  133OSM   H15S14424   3.646   4.441   4.877  0.3758 -2.5384  0.5178
  133OSM   H15T14425   3.535   4.592   4.875 -0.8714 -0.6651  0.3666
  133OSM   C16S14426   3.438   4.405   4.830 -0.1351  0.3310 -0.6245
  133OSM   H16S14427   3.340   4.444   4.866  1.1647  1.6706  1.7631
  133OSM   H16T14428   3.453   4.299   4.860  0.1009  0.8215  1.1615
  133OSM   C17S14429   3.460   4.423   4.678  0.6127  0.4721 -0.4959
  133OSM   H17S14430   3.561   4.382   4.661  0.3515 -1.8491  2.7875
  133OSM   H17T14431   3.447   4.528   4.642 -0.9905  0.3186 -0.4307
  133OSM   C18S14432   3.361   4.329   4.599  0.4061 -0.6788 -0.6207
  133OSM   H18S14433   3.255   4.352   4.627  0.5963  0.1981 -0.5846
  133OSM   H18T14434   3.387   4.224   4.621 -0.8763 -0.6391  1.3657
  133OSM   H18U14435   3.374   4.350   4.491  1.3093  0.3416 -0.3249
  133OSM    C1F14436   3.308   4.193   5.991 -0.1542  0.3413  0.1209
  133OSM     OF14437   3.248   4.246   6.086  0.0423  0.2771  0.0077
  133OSM    C2F14438   3.246   4.181   5.852 -0.9600  1.0973 -0.7881
  133OSM    H2F14439   3.247   4.073   5.824  0.0852  1.1665 -1.0538
  133OSM    H2G14440   3.313   4.242   5.788  0.7856  2.3749  2.0482
  133OSM    C3F14441   3.096   4.217   5.853 -0.5268  0.6111  0.0030
  133OSM    H3F14442   3.084   4.326   5.872 -1.1552  0.7506 -1.1286
  133OSM    H3G14443   3.038   4.177   5.939 -0.3185 -1.9599 -0.9857
  133OSM    C4F14444   3.019   4.175   5.719  0.0319 -0.7935 -0.3660
  133OSM    H4F14445   2.918   4.221   5.723 -0.3346 -1.6807  1.3742
  133OSM    H4G14446   3.003   4.066   5.729  0.3042 -0.8067 -0.0418
  133OSM    C5F14447   3.093   4.201   5.590 -0.1318 -0.4148  0.4314
  133OSM    H5F14448   3.189   4.147   5.607  0.6303  0.9852  0.6545
  133OSM    H5G14449   3.124   4.307   5.581 -0.0408 -0.4793 -0.0178
  133OSM    C6F14450   3.027   4.149   5.462  0.9178 -0.0360  0.4921
  133OSM    H6F14451   2.932   4.204   5.444  1.6986  0.7836 -1.2599
  133OSM    H6G14452   3.016   4.038   5.459 -0.2259  0.0124 -4.0695
  133OSM    C7F14453   3.110   4.188   5.330 -0.4140 -0.2392  0.3517
  133OSM    H7F14454   3.218   4.174   5.351 -0.9385 -0.8330  2.9451
  133OSM    H7G14455   3.092   4.297   5.317 -2.0276 -0.4739  0.4570
  133OSM    C8F14456   3.083   4.108   5.198  0.3697 -0.3796  0.3843
  133OSM    H8F14457   2.976   4.111   5.168  0.5274  1.2353 -0.1447
  133OSM    H8G14458   3.112   4.001   5.204 -0.1283 -0.5292  0.2137
  133OSM    C9F14459   3.164   4.176   5.091 -0.2580  0.0321  0.1615
  133OSM    H9F14460   3.268   4.142   5.092 -0.6559 -1.2218  0.7393
  133OSM   C10F14461   3.126   4.259   4.995 -0.5510  0.0189  0.1485
  133OSM   H10F14462   3.208   4.294   4.930 -0.1507 -1.0750  0.0566
  133OSM   C11F14463   2.985   4.308   4.966  0.2003  0.3347 -0.2089
  133OSM   H11F14464   2.987   4.400   4.903 -0.0498  2.3896  2.6193
  133OSM   H11G14465   2.921   4.338   5.051  0.0557 -1.3598  0.3125
  133OSM   C12F14466   2.904   4.197   4.897 -0.1310 -0.0214  0.5975
  133OSM   H12F14467   2.797   4.224   4.895 -0.1736  0.0183  2.4670
  133OSM   H12G14468   2.908   4.106   4.961  0.4741  0.2991  1.0275
  133OSM   C13F14469   2.960   4.166   4.757 -0.1686 -0.1393 -0.4215
  133OSM   H13F14470   2.922   4.067   4.724  2.7528 -1.4558 -0.1322
  133OSM   H13G14471   3.070   4.164   4.765 -0.2735  0.9746  2.0294
  133OSM   C14F14472   2.925   4.266   4.642  0.8651 -0.0449 -0.0601
  133OSM   H14F14473   2.976   4.242   4.546 -0.1693  2.9525 -1.4581
  133OSM   H14G14474   2.980   4.359   4.666  0.8394 -0.1129  0.2670
  133OSM   C15F14475   2.778   4.285   4.603  0.1137  0.2627 -0.0917
  133OSM   H15F14476   2.735   4.367   4.665  0.8217 -0.0873  0.8938
  133OSM   H15G14477   2.723   4.191   4.621  0.1880  0.5042  1.5929
  133OSM   C16F14478   2.752   4.334   4.462 -0.9181  0.1563  0.6199
  133OSM   H16F14479   2.790   4.266   4.384  2.0779  0.7068  1.4848
  133OSM   H16G14480   2.820   4.422   4.456 -1.3560  0.3913 -1.5874
  133OSM   C17F14481   2.609   4.382   4.433  0.8914  0.8259  0.8272
  133OSM   H17F14482   2.606   4.438   4.336  2.0822 -1.0910 -0.3710
  133OSM   H17G14483   2.580   4.467   4.498 -0.2889  2.6138 -1.8129
  133OSM   C18F14484   2.510   4.266   4.425 -0.8572 -0.4983  0.1953
  133OSM   H18F14485   2.538   4.189   4.501 -0.5619  1.3542  2.0735
  133OSM   H18G14486   2.513   4.213   4.328 -0.7641 -0.0038 -0.0759
  133OSM   H18H14487   2.405   4.293   4.445 -0.6844 -0.3897  0.9889
  134OSM      N14488   2.302   2.157   6.977 -0.0160 -0.4834  0.2529
  134OSM    C1514489   2.191   2.081   7.041 -0.7855 -0.1226 -0.6911
  134OSM   H15A14490   2.124   2.143   7.099 -0.5285 -1.6251  1.2786
  134OSM   H15B14491   2.236   2.005   7.103 -1.1880  0.2460  0.0645
  134OSM   H15C14492   2.142   2.033   6.957 -0.5900  1.1456 -1.5748
  134OSM    C1414493   2.397   2.200   7.077 -0.2319 -0.2702  0.1477
  134OSM   H14A14494   2.362   2.254   7.164 -0.7008 -1.4220  0.6877
  134OSM   H14B14495   2.466   2.269   7.030 -1.7530  0.3325 -1.2866
  134OSM   H14C14496   2.451   2.116   7.119 -1.9429 -0.7611  1.4517
  134OSM    C1314497   2.363   2.063   6.881 -0.3783  0.0620 -0.3932
  134OSM   H13A14498   2.387   1.969   6.927  1.3798 -0.8701 -2.9926
  134OSM   H13B14499   2.457   2.107   6.848 -0.1376 -0.1537 -0.0060
  134OSM   H13C14500   2.300   2.052   6.794 -1.5611  1.0988  0.2986
  134OSM    C1214501   2.245   2.279   6.903 -0.3099  0.4537  0.0766
  134OSM   H12A14502   2.221   2.343   6.986  0.7365  0.7040  0.1952
  134OSM   H12B14503   2.157   2.252   6.846  0.6394  0.7664 -1.6047
  134OSM    C1114504   2.339   2.358   6.820  0.0757  0.0962  0.2432
  134OSM   H11A14505   2.277   2.426   6.758  1.6100  0.8866 -0.4654
  134OSM   H11B14506   2.390   2.283   6.757 -1.4520 -0.2882 -0.5764
  134OSM      P14507   2.574   2.455   6.829 -0.6001 -0.1820  0.0499
  134OSM    O1314508   2.601   2.599   6.843 -0.3017  0.0410 -0.4245
  134OSM    O1414509   2.663   2.351   6.894 -0.1135 -0.0871  0.1816
  134OSM    O1114510   2.560   2.430   6.671  0.0104 -0.7171  0.0762
  134OSM    O1214511   2.429   2.435   6.892 -0.4315  0.2013 -0.2275
  134OSM    C1S14512   2.508   2.545   6.594 -0.5597 -0.6896 -0.2018
  134OSM    H1S14513   2.585   2.625   6.596 -0.5376 -0.6329 -2.0614
  134OSM    H1T14514   2.415   2.582   6.642  0.5480  0.0739  1.4492
  134OSM     NF14515   2.496   2.633   6.360  0.6903  0.2492  0.4110
  134OSM    HNF14516   2.401   2.648   6.333  0.3190 -0.8889  0.9999
  134OSM    C2S14517   2.501   2.514   6.439  0.1511  0.8269  0.0363
  134OSM    H2S14518   2.597   2.470   6.406 -0.5023 -0.8257  0.2089
  134OSM    C3S14519   2.400   2.401   6.411  0.1206  0.2026  0.3111
  134OSM    H3S14520   2.299   2.448   6.411  1.0034  2.2521 -1.5565
  134OSM     O314521   2.406   2.301   6.507 -0.2736 -0.3687 -0.3601
  134OSM    HO314522   2.483   2.322   6.561  0.2857 -0.4004 -1.1302
  134OSM    C4S14523   2.436   2.331   6.286 -0.3123 -0.0980 -0.3005
  134OSM    H4S14524   2.521   2.261   6.287 -0.8960 -0.8361  1.6624
  134OSM    C5S14525   2.381   2.364   6.167  0.1521  0.1253 -0.2595
  134OSM    H5S14526   2.298   2.435   6.165 -2.0503 -2.2966 -0.7619
  134OSM    C6S14527   2.421   2.310   6.034  0.3284 -0.1736 -0.3404
  134OSM    H6S14528   2.333   2.247   6.007 -0.5111  1.3095 -1.1639
  134OSM    H6T14529   2.500   2.232   6.033  0.9914  0.4811 -0.0909
  134OSM    C7S14530   2.461   2.411   5.925  0.8017 -0.1817 -0.3771
  134OSM    H7S14531   2.550   2.469   5.957 -1.0442  2.6257  0.0377
  134OSM    H7T14532   2.374   2.478   5.913  1.3657  0.4518 -0.9768
  134OSM    C8S14533   2.491   2.335   5.803  0.1491  0.2314  1.2833
  134OSM    H8S14534   2.410   2.263   5.779  0.2418 -0.0998  1.9540
  134OSM    H8T14535   2.582   2.271   5.801 -1.4663 -2.1790 -0.1441
  134OSM    C9S14536   2.487   2.420   5.678 -0.5553 -0.3154  0.0279
  134OSM    H9S14537   2.565   2.499   5.681  1.5428 -2.2829 -0.5625
  134OSM    H9T14538   2.389   2.470   5.661  0.7407  2.7953  0.8259
  134OSM   C10S14539   2.513   2.340   5.551 -0.1736  0.1503  0.1096
  134OSM   H10S14540   2.449   2.250   5.538  0.3583 -0.1246 -0.6251
  134OSM   H10T14541   2.616   2.303   5.566  0.4707  1.1145 -1.6264
  134OSM   C11S14542   2.511   2.428   5.428  0.2922 -0.1604 -0.1411
  134OSM   H11S14543   2.594   2.502   5.438  2.5015 -2.1188 -2.5368
  134OSM   H11T14544   2.421   2.492   5.423 -0.7537 -1.6055 -0.5029
  134OSM   C12S14545   2.506   2.359   5.294 -0.0341  0.9255 -0.7081
  134OSM   H12S14546   2.399   2.330   5.290 -0.9198  3.4989  1.3864
  134OSM   H12T14547   2.573   2.270   5.289 -1.7168 -0.4899  0.6736
  134OSM   C13S14548   2.525   2.443   5.168  0.5962 -0.1630 -0.3609
  134OSM   H13S14549   2.629   2.482   5.165  0.6054 -0.2387 -1.5349
  134OSM   H13T14550   2.466   2.534   5.190  2.3400  0.9125  0.0254
  134OSM   C14S14551   2.490   2.391   5.028  0.8327  0.2029 -0.1518
  134OSM   H14S14552   2.381   2.367   5.027  0.0735  3.2476 -2.0966
  134OSM   H14T14553   2.553   2.301   5.009 -0.8495 -0.3443 -4.2067
  134OSM   C15S14554   2.511   2.496   4.916 -0.4622 -0.5309  0.4207
  134OSM   H15S14555   2.614   2.536   4.929 -0.0284 -0.5980 -2.2610
  134OSM   H15T14556   2.455   2.591   4.931 -0.2669 -0.5470  1.3116
  134OSM   C16S14557   2.520   2.433   4.773 -0.2380 -0.6692 -0.5128
  134OSM   H16S14558   2.422   2.393   4.740  0.5577 -0.9778 -2.6032
  134OSM   H16T14559   2.575   2.337   4.785 -0.9358 -1.1023 -0.6833
  134OSM   C17S14560   2.587   2.510   4.670  0.1200  1.0714  1.1253
  134OSM   H17S14561   2.684   2.551   4.705  1.2977  0.0254 -0.7213
  134OSM   H17T14562   2.526   2.596   4.635 -0.4406  0.0033 -0.6989
  134OSM   C18S14563   2.622   2.420   4.548  0.1676 -0.9395 -0.0480
  134OSM   H18S14564   2.532   2.399   4.486  0.4788 -1.3081 -0.3758
  134OSM   H18T14565   2.663   2.319   4.567 -0.3440 -1.1679 -0.1353
  134OSM   H18U14566   2.705   2.472   4.496  0.6873 -0.9855  0.7291
  134OSM    C1F14567   2.596   2.713   6.336  0.3867 -0.4165  0.1061
  134OSM     OF14568   2.702   2.709   6.393 -0.2455  0.5018 -0.0099
  134OSM    C2F14569   2.560   2.820   6.238 -0.3924  0.5608 -0.1692
  134OSM    H2F14570   2.532   2.917   6.284 -1.3467  0.1041  0.2441
  134OSM    H2G14571   2.473   2.771   6.190 -1.4330  1.1830  1.0250
  134OSM    C3F14572   2.670   2.845   6.129  0.4947 -0.2014 -1.0295
  134OSM    H3F14573   2.709   2.747   6.094 -1.2735 -0.9317 -1.1059
  134OSM    H3G14574   2.763   2.880   6.178 -0.7027  0.3586  0.9653
  134OSM    C4F14575   2.626   2.937   6.019 -0.2160  0.8733  0.1758
  134OSM    H4F14576   2.719   2.978   5.973 -0.2884 -1.2987 -2.0907
  134OSM    H4G14577   2.571   3.027   6.054 -0.7609 -0.0438  1.7315
  134OSM    C5F14578   2.542   2.867   5.909  0.0971  0.6974  0.7478
  134OSM    H5F14579   2.440   2.885   5.950  0.2056  1.1438  0.8266
  134OSM    H5G14580   2.561   2.758   5.908 -0.3167  0.6173 -0.9664
  134OSM    C6F14581   2.556   2.927   5.773 -0.0286 -0.0303 -0.2373
  134OSM    H6F14582   2.656   2.960   5.738  0.2789  0.1667  0.7709
  134OSM    H6G14583   2.495   3.019   5.768  0.2303  0.0571 -2.4305
  134OSM    C7F14584   2.520   2.839   5.659 -0.1782  0.5420  0.7129
  134OSM    H7F14585   2.413   2.813   5.667 -0.1672  0.9273  2.5157
  134OSM    H7G14586   2.576   2.743   5.656  1.4728  1.4786  0.2385
  134OSM    C8F14587   2.535   2.905   5.513  0.0241 -0.7262  0.1210
  134OSM    H8F14588   2.637   2.942   5.489  0.1780 -0.7264  0.7687
  134OSM    H8G14589   2.472   2.995   5.525 -2.1283 -1.7806 -2.1878
  134OSM    C9F14590   2.460   2.828   5.406 -0.3601  0.2984  1.1209
  134OSM    H9F14591   2.380   2.763   5.444  0.8781 -1.2352  1.1965
  134OSM   C10F14592   2.499   2.817   5.277  0.2244 -0.5594 -0.3380
  134OSM   H10F14593   2.437   2.750   5.215 -1.1566 -1.4032  1.8466
  134OSM   C11F14594   2.616   2.882   5.212 -0.3189 -0.4745 -0.4668
  134OSM   H11F14595   2.681   2.809   5.160  1.0709  2.2665 -2.8699
  134OSM   H11G14596   2.687   2.936   5.279 -1.6546 -1.3020  1.6978
  134OSM   C12F14597   2.575   2.971   5.089  0.7500 -0.6432  0.1924
  134OSM   H12F14598   2.639   3.061   5.087  0.3970 -0.2950  2.2564
  134OSM   H12G14599   2.474   3.014   5.106  1.4787  0.5903  1.6935
  134OSM   C13F14600   2.586   2.897   4.951 -0.1592 -0.2898  0.1008
  134OSM   H13F14601   2.523   2.805   4.947  0.5530 -0.8738  1.7332
  134OSM   H13G14602   2.693   2.873   4.939  0.5304  2.3273  0.5039
  134OSM   C14F14603   2.562   2.996   4.832 -0.1710 -0.6528 -0.0369
  134OSM   H14F14604   2.619   3.091   4.834 -0.0298 -0.6734 -1.5070
  134OSM   H14G14605   2.459   3.040   4.828  0.3443  0.6224  0.0799
  134OSM   C15F14606   2.598   2.929   4.699  0.0466 -1.1756  0.4196
  134OSM   H15F14607   2.555   2.826   4.705  0.3895 -1.3073  0.6945
  134OSM   H15G14608   2.708   2.923   4.693  0.4598  2.9880  1.2812
  134OSM   C16F14609   2.526   2.990   4.575 -0.5732 -0.2306 -0.0755
  134OSM   H16F14610   2.421   3.002   4.610  0.3099  2.1975  2.1566
  134OSM   H16G14611   2.521   2.917   4.492  2.8507  1.5858 -2.1215
  134OSM   C17F14612   2.579   3.132   4.534 -0.1453 -0.0311 -0.3166
  134OSM   H17F14613   2.687   3.115   4.519 -0.4354 -1.3828 -1.0566
  134OSM   H17G14614   2.563   3.205   4.617  2.2986  1.1927 -0.8386
  134OSM   C18F14615   2.508   3.191   4.409  0.5772  0.7222  0.2014
  134OSM   H18F14616   2.495   3.105   4.341  2.1732 -1.1614  2.1276
  134OSM   H18G14617   2.568   3.271   4.361  1.0353  0.8350  0.9453
  134OSM   H18H14618   2.405   3.225   4.434 -0.2956  0.1672 -2.4079
  135OSM      N14619   2.470   1.437   6.654 -0.0069  0.1067 -0.5658
  135OSM    C1514620   2.453   1.436   6.806  0.4056  0.9625  0.2970
  135OSM   H15A14621   2.432   1.534   6.845 -0.4269  0.4480  1.1546
  135OSM   H15B14622   2.537   1.390   6.856  0.5145 -1.2671 -1.7307
  135OSM   H15C14623   2.361   1.387   6.834  0.0043  0.5772 -1.5552
  135OSM    C1414624   2.453   1.300   6.603  0.3109  0.6583  0.1298
  135OSM   H14A14625   2.361   1.259   6.642  0.6901 -1.8679 -1.3658
  135OSM   H14B14626   2.533   1.231   6.625 -0.9517 -0.4203  1.6097
  135OSM   H14C14627   2.436   1.296   6.496 -0.1704  1.4402  0.1725
  135OSM    C1314628   2.350   1.517   6.607 -0.2329  0.2066 -0.6992
  135OSM   H13A14629   2.357   1.622   6.631  0.3098  0.1697 -0.6730
  135OSM   H13B14630   2.259   1.467   6.636 -0.0490 -1.3364 -2.5309
  135OSM   H13C14631   2.339   1.517   6.500 -1.4744  1.5933 -0.5962
  135OSM    C1214632   2.598   1.503   6.613  0.3629 -0.0962 -0.3085
  135OSM   H12A14633   2.591   1.597   6.666 -1.2735 -1.1349  1.4397
  135OSM   H12B14634   2.604   1.535   6.510  0.7569  0.3105 -0.1651
  135OSM    C1114635   2.732   1.442   6.651 -0.3523  0.1810 -1.0224
  135OSM   H11A14636   2.710   1.418   6.758 -0.5323 -3.7332 -1.8102
  135OSM   H11B14637   2.815   1.514   6.636 -0.8089  0.9810  0.1472
  135OSM      P14638   2.797   1.317   6.434 -0.3479 -0.2193 -0.1207
  135OSM    O1314639   2.886   1.435   6.414 -0.3028 -0.1305 -0.1666
  135OSM    O1414640   2.850   1.175   6.399  0.3271 -0.0724 -0.0551
  135OSM    O1114641   2.658   1.334   6.356 -0.0894 -0.6811  0.0926
  135OSM    O1214642   2.753   1.323   6.582 -0.1531  0.3586 -0.0166
  135OSM    C1S14643   2.619   1.230   6.264  0.2987 -0.1353  0.6854
  135OSM    H1S14644   2.597   1.134   6.316 -0.0107 -0.7771 -0.5855
  135OSM    H1T14645   2.685   1.217   6.176 -2.4579  0.5222 -1.6105
  135OSM     NF14646   2.450   1.144   6.100  0.3563 -0.3942 -0.2998
  135OSM    HNF14647   2.467   1.167   6.004 -0.1419 -1.4338 -0.6529
  135OSM    C2S14648   2.480   1.258   6.189 -0.1704 -0.3175  0.2581
  135OSM    H2S14649   2.408   1.265   6.273 -1.2227  2.2318 -0.7607
  135OSM    C3S14650   2.483   1.396   6.116 -0.2277  0.4317 -0.5382
  135OSM    H3S14651   2.570   1.392   6.048  0.8481 -1.3910  0.8369
  135OSM     O314652   2.528   1.507   6.195 -0.1098  0.0274 -0.1616
  135OSM    HO314653   2.573   1.464   6.268 -1.3251  0.3885  0.8163
  135OSM    C4S14654   2.354   1.436   6.054 -0.6623  0.0993  0.0314
  135OSM    H4S14655   2.261   1.447   6.112 -0.0620  0.7421  0.8886
  135OSM    C5S14656   2.352   1.469   5.923 -0.2548 -0.1978 -0.0756
  135OSM    H5S14657   2.453   1.479   5.880 -0.1516  1.7291  0.4829
  135OSM    C6S14658   2.234   1.504   5.834 -0.4795  0.4882  0.0532
  135OSM    H6S14659   2.238   1.614   5.818  3.5208  0.3742 -0.8107
  135OSM    H6T14660   2.135   1.489   5.882 -0.6807  0.4984 -0.3483
  135OSM    C7S14661   2.242   1.443   5.691 -0.2492 -0.0110  0.6049
  135OSM    H7S14662   2.226   1.333   5.698  0.0541 -0.1923 -1.0967
  135OSM    H7T14663   2.341   1.456   5.642  0.0604 -2.7255  0.3150
  135OSM    C8S14664   2.138   1.498   5.599  0.5130 -0.7260 -0.4991
  135OSM    H8S14665   2.149   1.607   5.580 -1.5494 -0.1345  1.2475
  135OSM    H8T14666   2.035   1.486   5.639  0.2254 -0.0177 -0.9952
  135OSM    C9S14667   2.132   1.438   5.458  0.6096  0.2049 -0.0081
  135OSM    H9S14668   2.048   1.486   5.403  0.6649 -0.3884 -0.6268
  135OSM    H9T14669   2.106   1.330   5.467  0.1556  0.4234  1.5879
  135OSM   C10S14670   2.252   1.459   5.366 -0.3565  0.0068  0.6188
  135OSM   H10S14671   2.327   1.386   5.402 -0.5712 -0.6006 -0.1308
  135OSM   H10T14672   2.304   1.554   5.391  3.6186 -1.5560 -0.9879
  135OSM   C11S14673   2.235   1.429   5.217 -0.5266  0.3681 -0.3342
  135OSM   H11S14674   2.147   1.491   5.189 -4.0225 -3.6722  0.5124
  135OSM   H11T14675   2.234   1.321   5.192 -0.8118 -0.5281  3.0018
  135OSM   C12S14676   2.352   1.485   5.134  0.4422 -0.4817 -0.5084
  135OSM   H12S14677   2.443   1.424   5.156  1.2924 -0.3100 -3.1877
  135OSM   H12T14678   2.374   1.592   5.154 -1.3428  0.2070 -1.9584
  135OSM   C13S14679   2.322   1.465   4.982  0.6059  0.5470  0.1019
  135OSM   H13S14680   2.225   1.511   4.954 -0.3280 -1.5239 -0.2587
  135OSM   H13T14681   2.320   1.355   4.971 -1.8309  0.4875  0.5049
  135OSM   C14S14682   2.436   1.539   4.906 -0.4907 -0.3597  0.8268
  135OSM   H14S14683   2.529   1.485   4.932  0.1064  1.1141  1.8541
  135OSM   H14T14684   2.453   1.640   4.949 -1.5199  0.8424 -1.3831
  135OSM   C15S14685   2.423   1.541   4.751 -0.9570 -0.8267 -0.4219
  135OSM   H15S14686   2.507   1.589   4.696 -0.8938 -1.2446 -0.6957
  135OSM   H15T14687   2.336   1.611   4.750  0.0276  0.6881  3.3414
  135OSM   C16S14688   2.375   1.415   4.681 -0.1029 -0.2763 -0.0040
  135OSM   H16S14689   2.288   1.365   4.730  0.4104 -1.6941 -0.5041
  135OSM   H16T14690   2.462   1.347   4.684 -0.0460 -0.3427 -1.8765
  135OSM   C17S14691   2.333   1.441   4.540  0.4765 -0.1757  0.0529
  135OSM   H17S14692   2.405   1.510   4.490 -0.5312  1.1974  0.4522
  135OSM   H17T14693   2.231   1.484   4.552  0.4154 -0.6487  1.4474
  135OSM   C18S14694   2.315   1.309   4.462  0.6116 -0.2283 -0.1813
  135OSM   H18S14695   2.249   1.242   4.520  2.1662  0.6562  2.8431
  135OSM   H18T14696   2.414   1.259   4.471  0.2430 -0.9028  0.1802
  135OSM   H18U14697   2.294   1.326   4.355  1.1204  0.2492 -0.2151
  135OSM    C1F14698   2.416   1.017   6.114 -0.2565  0.0885 -0.5902
  135OSM     OF14699   2.380   0.978   6.221 -0.5259  0.0492  0.1641
  135OSM    C2F14700   2.423   0.925   5.995  0.8910 -0.3420 -0.3300
  135OSM    H2F14701   2.514   0.863   6.011  0.3795 -0.4249  3.1973
  135OSM    H2G14702   2.416   0.981   5.900  0.9469  0.4419  0.1164
  135OSM    C3F14703   2.298   0.833   5.997 -0.6593 -0.0945 -0.2942
  135OSM    H3F14704   2.204   0.891   6.000  0.3037  1.4711  0.6264
  135OSM    H3G14705   2.298   0.765   6.085 -0.8991  2.2628  1.6131
  135OSM    C4F14706   2.291   0.750   5.866  0.1433 -0.6392 -0.2224
  135OSM    H4F14707   2.191   0.703   5.853  0.3306 -0.3472 -3.5059
  135OSM    H4G14708   2.277   0.829   5.790 -0.5862 -2.8437 -2.5100
  135OSM    C5F14709   2.405   0.657   5.843 -0.4588 -0.5339  0.0816
  135OSM    H5F14710   2.396   0.581   5.923  1.2311 -0.5891  0.2620
  135OSM    H5G14711   2.502   0.711   5.852 -1.2220  1.4522 -2.4022
  135OSM    C6F14712   2.411   0.586   5.701 -0.2055 -0.1320 -0.1256
  135OSM    H6F14713   2.325   0.518   5.686 -1.1381  1.2542 -1.3172
  135OSM    H6G14714   2.504   0.527   5.710  0.6207  1.0769 -0.5546
  135OSM    C7F14715   2.430   0.680   5.586 -0.1978 -0.6165 -0.5981
  135OSM    H7F14716   2.530   0.727   5.602 -0.3453 -0.9855  1.7610
  135OSM    H7G14717   2.358   0.764   5.594  1.6383  0.8453  1.8859
  135OSM    C8F14718   2.421   0.611   5.449  0.1849  0.8192  0.6066
  135OSM    H8F14719   2.489   0.523   5.449  0.5557  1.0117 -1.8669
  135OSM    H8G14720   2.467   0.665   5.363 -0.7933  1.1951  0.3111
  135OSM    C9F14721   2.276   0.583   5.408 -0.3415  1.0500 -0.6581
  135OSM    H9F14722   2.228   0.502   5.465  2.1747  0.4707  0.7591
  135OSM   C10F14723   2.214   0.623   5.299  0.2802 -0.4250  0.8835
  135OSM   H10F14724   2.115   0.584   5.273  0.1863  0.7358 -0.6343
  135OSM   C11F14725   2.246   0.727   5.196 -0.0674 -0.2371  0.4528
  135OSM   H11F14726   2.338   0.782   5.228  0.0432  0.6486 -1.2667
  135OSM   H11G14727   2.165   0.802   5.194  0.3089  0.1977 -2.0149
  135OSM   C12F14728   2.287   0.680   5.059 -0.3276  0.3922  0.7474
  135OSM   H12F14729   2.289   0.759   4.981  1.1724 -0.4056 -0.0766
  135OSM   H12G14730   2.213   0.600   5.036  1.6402 -1.2678 -0.1074
  135OSM   C13F14731   2.431   0.624   5.065 -0.0470 -0.0832 -0.4101
  135OSM   H13F14732   2.433   0.541   5.139 -0.1847 -0.7603 -1.1498
  135OSM   H13G14733   2.502   0.703   5.100 -1.2872  0.7595  0.2992
  135OSM   C14F14734   2.482   0.555   4.938  0.3782  0.1789 -0.1926
  135OSM   H14F14735   2.415   0.474   4.902 -1.3295  2.0138 -1.4000
  135OSM   H14G14736   2.579   0.506   4.960  0.2657 -0.5377 -1.2064
  135OSM   C15F14737   2.495   0.647   4.815  0.7084 -0.3024  0.7873
  135OSM   H15F14738   2.567   0.730   4.837  2.7750 -1.6220 -0.6534
  135OSM   H15G14739   2.400   0.697   4.789  2.3551  1.6901 -1.9585
  135OSM   C16F14740   2.538   0.579   4.685 -0.1155 -0.6222  0.4254
  135OSM   H16F14741   2.457   0.513   4.647 -0.9989  0.3975  0.5155
  135OSM   H16G14742   2.633   0.524   4.701  0.2933 -0.2007 -0.4658
  135OSM   C17F14743   2.563   0.681   4.573 -0.7529  0.1381  0.5017
  135OSM   H17F14744   2.626   0.645   4.488 -1.1219  2.1151 -0.6767
  135OSM   H17G14745   2.638   0.752   4.615 -1.3664  0.4959  1.0096
  135OSM   C18F14746   2.455   0.749   4.510 -0.4384 -0.1505  0.5569
  135OSM   H18F14747   2.491   0.848   4.473 -1.9366  0.2303  0.0618
  135OSM   H18G14748   2.370   0.773   4.577 -0.8810 -1.9446  0.6764
  135OSM   H18H14749   2.411   0.701   4.420  1.7540 -0.2221 -0.5563
  136OSM      N14750   5.132   2.253   6.763  0.2925 -0.7250  0.2141
  136OSM    C1514751   5.146   2.118   6.695 -0.3473 -0.3121 -0.6108
  136OSM   H15A14752   5.197   2.122   6.600  0.5690 -0.9950 -0.1736
  136OSM   H15B14753   5.051   2.077   6.666 -0.3890 -0.3282 -0.4545
  136OSM   H15C14754   5.198   2.051   6.762 -0.0554  2.4762  2.1848
  136OSM    C1414755   5.082   2.350   6.661 -0.0511  0.3139 -0.3314
  136OSM   H14A14756   4.981   2.322   6.633  0.6853 -2.3478 -0.6019
  136OSM   H14B14757   5.142   2.346   6.571 -0.0314 -0.6428 -0.2832
  136OSM   H14C14758   5.086   2.451   6.698  1.3059  0.6067 -1.2277
  136OSM    C1314759   5.037   2.242   6.879  0.5357 -0.3010  0.1656
  136OSM   H13A14760   5.065   2.171   6.954 -2.1808 -2.3019 -0.5587
  136OSM   H13B14761   4.946   2.211   6.830 -0.2168 -0.5988  1.7044
  136OSM   H13C14762   5.028   2.341   6.921  1.4341 -0.6610  1.2373
  136OSM    C1214763   5.273   2.302   6.812 -0.7488 -0.0314 -0.0725
  136OSM   H12A14764   5.340   2.293   6.728  0.5751  1.8324  0.7162
  136OSM   H12B14765   5.316   2.233   6.883 -2.1955 -1.1464 -0.2226
  136OSM    C1114766   5.286   2.448   6.868  0.6302  0.3649 -0.5059
  136OSM   H11A14767   5.202   2.457   6.940  0.0969  2.9340 -1.3508
  136OSM   H11B14768   5.263   2.524   6.791 -1.4080 -1.0672 -1.4149
  136OSM      P14769   5.544   2.485   6.861 -0.0983  0.3656 -0.2139
  136OSM    O1314770   5.555   2.628   6.834  0.0398 -0.6989  0.6278
  136OSM    O1414771   5.656   2.432   6.944  0.2865  0.3552 -0.3073
  136OSM    O1114772   5.528   2.403   6.728 -0.8731 -0.0593 -0.0614
  136OSM    O1214773   5.413   2.460   6.936  0.2905 -0.5213 -0.1635
  136OSM    C1S14774   5.651   2.390   6.652 -0.0948 -0.3774 -0.3735
  136OSM    H1S14775   5.720   2.320   6.704  0.2441  0.4708  0.3502
  136OSM    H1T14776   5.702   2.488   6.636 -1.4126  0.3315 -0.4439
  136OSM     NF14777   5.753   2.305   6.445  0.1754 -0.2278  0.2121
  136OSM    HNF14778   5.808   2.354   6.377  0.2047 -1.5843 -0.7871
  136OSM    C2S14779   5.624   2.340   6.500 -0.3194  0.4331 -1.1854
  136OSM    H2S14780   5.571   2.242   6.504  0.9252 -0.2351 -0.6712
  136OSM    C3S14781   5.519   2.424   6.431 -0.2076 -0.4071  0.6097
  136OSM    H3S14782   5.560   2.525   6.451 -1.3869  0.2710 -0.2220
  136OSM     O314783   5.383   2.420   6.486 -0.7553  0.4514 -0.6301
  136OSM    HO314784   5.398   2.410   6.580  0.4697  0.8595 -0.7534
  136OSM    C4S14785   5.504   2.387   6.292  0.2101 -0.0178 -0.1829
  136OSM    H4S14786   5.456   2.289   6.277  0.7193 -0.2238 -0.5166
  136OSM    C5S14787   5.531   2.462   6.184 -0.7484  0.1530 -0.0384
  136OSM    H5S14788   5.555   2.569   6.187 -1.2888  0.3128 -1.0270
  136OSM    C6S14789   5.485   2.414   6.044  0.5485  0.4004 -0.2132
  136OSM    H6S14790   5.397   2.465   5.998  0.5064 -0.1220 -0.7282
  136OSM    H6T14791   5.458   2.306   6.036  2.0628  0.1106 -1.9403
  136OSM    C7S14792   5.604   2.438   5.954  0.1783  0.2403  0.0944
  136OSM    H7S14793   5.696   2.396   6.000 -0.5682 -2.2023 -0.4903
  136OSM    H7T14794   5.620   2.545   5.932  0.2884 -0.2782 -2.7329
  136OSM    C8S14795   5.591   2.392   5.813 -0.6007  0.3658  0.0826
  136OSM    H8S14796   5.503   2.451   5.778 -0.9402  0.0771  0.4374
  136OSM    H8T14797   5.561   2.286   5.798 -0.5650  0.5749 -1.6189
  136OSM    C9S14798   5.701   2.428   5.716 -0.5324 -0.4416 -0.5281
  136OSM    H9S14799   5.682   2.394   5.612 -0.5212  2.4217 -1.5502
  136OSM    H9T14800   5.800   2.394   5.753  0.2193  1.9172 -0.1785
  136OSM   C10S14801   5.720   2.577   5.691  0.4085 -0.2402  0.5534
  136OSM   H10S14802   5.733   2.641   5.780  1.0087  0.0894  0.2355
  136OSM   H10T14803   5.623   2.612   5.650  0.1859 -2.2955 -0.8809
  136OSM   C11S14804   5.834   2.611   5.590 -0.1342 -0.1263  0.1063
  136OSM   H11S14805   5.937   2.600   5.630  0.5647 -0.1681 -1.6208
  136OSM   H11T14806   5.825   2.722   5.579  3.9655  0.2828 -0.8458
  136OSM   C12S14807   5.815   2.532   5.462 -0.6538  0.1384  0.2735
  136OSM   H12S14808   5.706   2.520   5.449 -0.8103  0.0413  1.5603
  136OSM   H12T14809   5.863   2.432   5.468 -1.0404 -0.2827 -2.2156
  136OSM   C13S14810   5.868   2.614   5.342  0.6511 -0.9226  0.0406
  136OSM   H13S14811   5.965   2.660   5.372  0.3280 -0.7032  0.7842
  136OSM   H13T14812   5.792   2.693   5.328 -0.7015 -2.0879  0.5828
  136OSM   C14S14813   5.879   2.527   5.224  0.2213  0.1793 -0.4753
  136OSM   H14S14814   5.786   2.467   5.216  1.0931 -1.2333 -0.3815
  136OSM   H14T14815   5.958   2.450   5.233 -0.8825 -0.9278 -0.0285
  136OSM   C15S14816   5.924   2.596   5.092 -0.6500 -0.1100  0.4011
  136OSM   H15S14817   5.949   2.510   5.026  0.1132 -0.6456  1.3475
  136OSM   H15T14818   6.020   2.653   5.099 -0.2987 -0.6283 -0.0993
  136OSM   C16S14819   5.816   2.672   5.016  0.2883 -0.1604  0.7718
  136OSM   H16S14820   5.780   2.763   5.068  1.0458  1.9471 -2.1134
  136OSM   H16T14821   5.727   2.608   4.994 -0.7639  1.7983 -0.9642
  136OSM   C17S14822   5.863   2.735   4.884 -0.6362  0.2506  0.0399
  136OSM   H17S14823   5.938   2.815   4.902 -0.7540  0.6088 -0.9906
  136OSM   H17T14824   5.775   2.780   4.832  0.4249  1.0489 -1.1444
  136OSM   C18S14825   5.923   2.636   4.779 -0.4425 -0.2861  0.2450
  136OSM   H18S14826   6.003   2.571   4.821 -0.0711 -1.8174 -2.6291
  136OSM   H18T14827   5.956   2.681   4.683 -2.4075 -1.0788 -0.8676
  136OSM   H18U14828   5.835   2.572   4.755 -1.8221  1.0510  1.4578
  136OSM    C1F14829   5.820   2.194   6.486 -0.0907 -0.1455 -0.1433
  136OSM     OF14830   5.782   2.121   6.571 -0.2113  0.3615 -0.1969
  136OSM    C2F14831   5.945   2.168   6.403 -0.0976  0.3386  1.1897
  136OSM    H2F14832   6.034   2.223   6.440  1.3675 -1.6345  0.7804
  136OSM    H2G14833   5.928   2.202   6.299  3.3453 -1.5022 -0.1582
  136OSM    C3F14834   5.995   2.023   6.405 -0.3838  0.1077 -0.3276
  136OSM    H3F14835   5.931   1.950   6.351  2.0701 -0.6730 -2.3844
  136OSM    H3G14836   6.014   1.987   6.509  1.9966 -1.6787 -1.2783
  136OSM    C4F14837   6.135   2.008   6.332 -0.2737  0.8417  0.2942
  136OSM    H4F14838   6.176   1.910   6.363  0.4166  0.1929 -2.4239
  136OSM    H4G14839   6.208   2.086   6.362 -0.3168  1.4107 -0.9857
  136OSM    C5F14840   6.126   2.000   6.183 -0.0501 -0.3510  0.5578
  136OSM    H5F14841   6.077   2.091   6.143  1.5449  1.3640  2.2943
  136OSM    H5G14842   6.058   1.919   6.148  0.8461 -1.2864  0.9190
  136OSM    C6F14843   6.259   1.980   6.113  0.3434  0.9657 -0.8129
  136OSM    H6F14844   6.313   1.899   6.165 -1.2207 -0.1661 -0.8730
  136OSM    H6G14845   6.317   2.075   6.119 -0.0705  1.3205 -1.9973
  136OSM    C7F14846   6.240   1.949   5.966 -0.4312  0.5517  0.4035
  136OSM    H7F14847   6.160   2.021   5.936 -1.4780 -1.3476 -1.6162
  136OSM    H7G14848   6.197   1.848   5.950 -1.1770  0.9386 -0.0871
  136OSM    C8F14849   6.366   1.963   5.872  0.1583 -0.3081 -0.0706
  136OSM    H8F14850   6.406   2.063   5.898  0.0889 -0.3163  0.0650
  136OSM    H8G14851   6.328   1.967   5.767  0.8223 -2.5552 -0.4523
  136OSM    C9F14852   6.477   1.865   5.901  0.2414  0.9175  0.2107
  136OSM    H9F14853   6.566   1.893   5.958 -0.0988  0.5283  0.9452
  136OSM   C10F14854   6.495   1.750   5.830 -0.1567  0.1085 -0.4579
  136OSM   H10F14855   6.576   1.680   5.858  1.1685  1.5783 -0.4465
  136OSM   C11F14856   6.401   1.699   5.723 -0.1031  0.7108  0.1938
  136OSM   H11F14857   6.294   1.728   5.735 -0.9432  0.0096 -4.0340
  136OSM   H11G14858   6.394   1.588   5.723  1.4849  0.5008 -3.0098
  136OSM   C12F14859   6.440   1.749   5.583  0.5281 -0.3868  0.0393
  136OSM   H12F14860   6.550   1.750   5.567  0.2664  1.5596 -2.0665
  136OSM   H12G14861   6.408   1.855   5.575  2.7323  0.4139  1.0973
  136OSM   C13F14862   6.359   1.671   5.469 -0.2022  0.3870 -0.1047
  136OSM   H13F14863   6.255   1.712   5.472 -0.3215  1.2191 -5.5578
  136OSM   H13G14864   6.360   1.562   5.486 -0.5750  0.2575 -0.8525
  136OSM   C14F14865   6.409   1.696   5.324  0.1400  0.0771 -0.5591
  136OSM   H14F14866   6.498   1.630   5.314 -0.9214 -1.4108 -0.4944
  136OSM   H14G14867   6.434   1.802   5.301 -0.2381 -0.1335 -1.9889
  136OSM   C15F14868   6.318   1.652   5.204  0.6281  0.4284 -0.4711
  136OSM   H15F14869   6.300   1.543   5.215 -0.4879  0.8409  3.0743
  136OSM   H15G14870   6.369   1.666   5.107 -0.2243  0.6764 -0.8958
  136OSM   C16F14871   6.183   1.721   5.205 -0.4743 -0.1288  0.7410
  136OSM   H16F14872   6.171   1.828   5.234 -1.7110  0.3809 -1.4135
  136OSM   H16G14873   6.119   1.678   5.286 -2.3175  1.2741  0.0949
  136OSM   C17F14874   6.111   1.706   5.072  0.3038  0.1728  0.0914
  136OSM   H17F14875   6.120   1.607   5.021  0.7642  0.3998 -0.2652
  136OSM   H17G14876   6.161   1.775   5.002 -1.8394  1.7816  0.0300
  136OSM   C18F14877   5.969   1.763   5.074  0.4791 -0.5492 -0.3443
  136OSM   H18F14878   5.909   1.711   5.151  0.3677 -0.3203 -0.2741
  136OSM   H18G14879   5.907   1.738   4.985  1.1353  0.9267 -1.2619
  136OSM   H18H14880   5.966   1.873   5.090  0.4689 -0.7955  1.6314
  137OSM      N14881   1.140   0.715   6.762 -0.2534  0.1333  0.1012
  137OSM    C1514882   1.005   0.758   6.798 -0.1520 -0.1465 -0.4906
  137OSM   H15A14883   0.982   0.723   6.898 -1.4039  3.5395  0.6814
  137OSM   H15B14884   0.927   0.728   6.729 -1.3552 -1.1002  1.1900
  137OSM   H15C14885   1.010   0.865   6.805  0.9023 -0.1812 -0.6428
  137OSM    C1414886   1.237   0.771   6.866 -0.1452  0.1076 -0.0570
  137OSM   H14A14887   1.340   0.740   6.855  0.3399  1.0483  1.5773
  137OSM   H14B14888   1.211   0.740   6.966  1.6723  1.0227  0.7476
  137OSM   H14C14889   1.243   0.879   6.864 -1.1576  0.1840 -1.9474
  137OSM    C1314890   1.139   0.563   6.770  0.7150 -0.1209 -0.0772
  137OSM   H13A14891   1.070   0.528   6.694  0.8323  1.3061 -0.8707
  137OSM   H13B14892   1.104   0.524   6.864  0.3876  1.0292  0.2890
  137OSM   H13C14893   1.235   0.518   6.749  1.7135  1.4524  0.9710
  137OSM    C1214894   1.189   0.754   6.620  0.0101 -0.1162  0.4907
  137OSM   H12A14895   1.125   0.703   6.550  1.2585 -0.4240 -0.4478
  137OSM   H12B14896   1.290   0.725   6.597 -0.0840  1.5449 -2.6308
  137OSM    C1114897   1.184   0.899   6.582  0.0539 -0.5346 -0.4053
  137OSM   H11A14898   1.082   0.943   6.585  0.3227  0.0191  0.9713
  137OSM   H11B14899   1.221   0.910   6.477 -0.7828 -0.9617 -0.7581
  137OSM      P14900   1.415   1.015   6.646  0.0998 -0.0092 -0.4084
  137OSM    O1314901   1.450   1.148   6.707  0.1830  0.4399 -0.0592
  137OSM    O1414902   1.500   0.897   6.696 -1.0573 -0.1747  0.8403
  137OSM    O1114903   1.428   1.036   6.488 -0.0533 -0.8679 -0.6083
  137OSM    O1214904   1.260   0.983   6.671 -0.3248  0.0329 -0.3705
  137OSM    C1S14905   1.552   1.089   6.438  0.4033 -0.5450  0.0714
  137OSM    H1S14906   1.642   1.056   6.493 -0.4437 -0.9020  1.2787
  137OSM    H1T14907   1.548   1.200   6.442  0.1963 -0.4150 -2.0846
  137OSM     NF14908   1.688   1.128   6.220  0.3655 -0.0701 -0.3180
  137OSM    HNF14909   1.676   1.201   6.152  1.4170  1.9621  1.5558
  137OSM    C2S14910   1.569   1.061   6.278  0.9207 -0.3118 -0.5300
  137OSM    H2S14911   1.588   0.951   6.279  0.3335 -0.4173 -0.4231
  137OSM    C3S14912   1.435   1.093   6.203 -0.6633  1.1385  0.2350
  137OSM    H3S14913   1.434   1.203   6.186 -0.7067  1.1890  0.5611
  137OSM     O314914   1.316   1.051   6.265 -0.6383 -0.1607 -0.1603
  137OSM    HO314915   1.348   1.024   6.351  1.0112  0.4337 -0.5644
  137OSM    C4S14916   1.451   1.036   6.059  0.8718 -0.0780  0.0197
  137OSM    H4S14917   1.528   1.077   5.992 -0.3065 -0.1877 -1.4593
  137OSM    C5S14918   1.388   0.933   6.010 -0.1666  0.1440 -0.0518
  137OSM    H5S14919   1.324   0.871   6.074  0.3498  0.3805  0.7131
  137OSM    C6S14920   1.415   0.883   5.868  0.2836  0.1986  1.2387
  137OSM    H6S14921   1.320   0.865   5.815  2.1517 -0.8535 -2.0038
  137OSM    H6T14922   1.456   0.780   5.872  0.5992  0.2659  0.1068
  137OSM    C7S14923   1.495   0.967   5.768  0.1497 -0.4563  0.3088
  137OSM    H7S14924   1.603   0.959   5.790  0.1959  0.6749  0.5358
  137OSM    H7T14925   1.460   1.072   5.767 -2.2117 -1.1734  0.9569
  137OSM    C8S14926   1.472   0.917   5.620  0.5042  0.2510  0.1309
  137OSM    H8S14927   1.365   0.903   5.597  1.2104 -1.8997 -2.2619
  137OSM    H8T14928   1.518   0.817   5.604  1.3371  0.5535  0.5388
  137OSM    C9S14929   1.549   1.006   5.519 -0.3253  0.0246 -0.5020
  137OSM    H9S14930   1.659   0.997   5.529 -0.1528  0.4485 -1.8485
  137OSM    H9T14931   1.519   1.113   5.531 -1.8027 -0.0525 -2.8888
  137OSM   C10S14932   1.511   0.982   5.379 -0.4406  0.7922 -0.4301
  137OSM   H10S14933   1.414   0.932   5.354  0.2049 -0.1038 -1.1948
  137OSM   H10T14934   1.588   0.911   5.343  0.2533 -0.9199  3.7988
  137OSM   C11S14935   1.513   1.105   5.288  0.6808 -0.3821 -0.0542
  137OSM   H11S14936   1.613   1.149   5.312 -0.6144  3.6632 -1.2891
  137OSM   H11T14937   1.440   1.182   5.320  0.5478 -0.7963  0.6591
  137OSM   C12S14938   1.515   1.072   5.136 -0.0841  0.3860 -0.3131
  137OSM   H12S14939   1.416   1.031   5.106  0.0093  0.3590 -0.5850
  137OSM   H12T14940   1.589   0.990   5.128  0.7412  0.5068  3.8068
  137OSM   C13S14941   1.540   1.193   5.048 -0.4143 -0.8531 -0.4047
  137OSM   H13S14942   1.639   1.239   5.067 -1.3659  1.6028 -1.0627
  137OSM   H13T14943   1.468   1.275   5.068  2.3333  1.6795 -0.1780
  137OSM   C14S14944   1.543   1.152   4.904 -0.7239 -0.3937  0.5173
  137OSM   H14S14945   1.453   1.095   4.872 -1.2909  0.1858  1.0472
  137OSM   H14T14946   1.624   1.076   4.900 -2.0575 -1.8341 -0.6270
  137OSM   C15S14947   1.561   1.266   4.796 -0.1839  1.0123 -0.5918
  137OSM   H15S14948   1.648   1.335   4.805  0.8809 -0.4809  1.4702
  137OSM   H15T14949   1.472   1.328   4.820 -1.1262 -1.1004  1.8310
  137OSM   C16S14950   1.546   1.224   4.650  0.6739  0.4069 -0.8705
  137OSM   H16S14951   1.472   1.141   4.646  2.0954 -1.0519  0.9855
  137OSM   H16T14952   1.639   1.178   4.611  0.9442  1.3022 -1.3102
  137OSM   C17S14953   1.507   1.332   4.550  0.5766  0.2218 -0.2090
  137OSM   H17S14954   1.471   1.282   4.458  1.3928  0.0554 -0.4440
  137OSM   H17T14955   1.593   1.399   4.527 -0.5255  1.4368 -0.9364
  137OSM   C18S14956   1.378   1.405   4.595  0.1040  0.1433  1.1189
  137OSM   H18S14957   1.410   1.477   4.673  0.6545  0.9638  0.1714
  137OSM   H18T14958   1.302   1.336   4.636 -0.7787  1.9180  2.5757
  137OSM   H18U14959   1.328   1.456   4.510 -0.2610 -1.9649 -0.0118
  137OSM    C1F14960   1.810   1.106   6.267 -1.2711  0.2094  0.0312
  137OSM     OF14961   1.842   1.003   6.319 -0.1052 -0.2966 -0.5267
  137OSM    C2F14962   1.913   1.212   6.231 -0.3581  0.1819 -0.1732
  137OSM    H2F14963   1.970   1.229   6.325  3.9853 -2.7913 -1.9721
  137OSM    H2G14964   1.858   1.305   6.203 -0.6843 -0.2282 -0.9045
  137OSM    C3F14965   2.004   1.154   6.116  0.1788  0.4652  0.1719
  137OSM    H3F14966   2.035   1.051   6.145 -0.1694  0.9933  2.6455
  137OSM    H3G14967   2.094   1.217   6.129 -0.0295  0.8056 -0.0232
  137OSM    C4F14968   1.947   1.150   5.974  0.7704 -0.0988 -0.0346
  137OSM    H4F14969   1.908   1.253   5.958  0.0496 -0.3705 -0.0634
  137OSM    H4G14970   1.865   1.074   5.968  0.8045 -0.2571  1.1616
  137OSM    C5F14971   2.046   1.109   5.867  0.0899  0.0088  0.0061
  137OSM    H5F14972   2.088   1.015   5.908  0.3330  0.8584  1.8296
  137OSM    H5G14973   2.140   1.169   5.865  0.7825 -1.0744 -0.9530
  137OSM    C6F14974   1.981   1.103   5.731 -0.0594  0.5565 -0.1998
  137OSM    H6F14975   1.961   1.205   5.693  0.4439 -0.4956 -3.6793
  137OSM    H6G14976   1.882   1.054   5.743  0.4626  0.0951  2.8229
  137OSM    C7F14977   2.067   1.051   5.616  0.1979  0.0801  0.3995
  137OSM    H7F14978   2.106   0.949   5.635  0.9151  0.0022 -1.3254
  137OSM    H7G14979   2.153   1.115   5.589  2.0005 -0.8091  3.5112
  137OSM    C8F14980   1.986   1.038   5.479  0.2413  0.1589  0.1624
  137OSM    H8F14981   1.917   1.123   5.467 -1.0798 -1.1166 -1.9421
  137OSM    H8G14982   1.918   0.951   5.492  0.8973 -1.2990 -4.3379
  137OSM    C9F14983   2.064   1.015   5.352 -0.3379  0.0150 -0.5857
  137OSM    H9F14984   2.162   0.965   5.360 -0.2276  0.5406  2.2484
  137OSM   C10F14985   2.017   1.049   5.226 -0.1100 -0.1482 -0.9939
  137OSM   H10F14986   2.089   1.037   5.144  0.3396  0.4371 -0.6851
  137OSM   C11F14987   1.898   1.123   5.178  0.3784  0.2494 -0.3881
  137OSM   H11F14988   1.835   1.148   5.267 -0.6659  0.3746 -1.1455
  137OSM   H11G14989   1.834   1.069   5.105  1.0245 -0.8886 -0.1307
  137OSM   C12F14990   1.933   1.266   5.124 -0.0821 -0.0826  0.5820
  137OSM   H12F14991   1.995   1.326   5.194 -0.5163  0.3918  0.5683
  137OSM   H12G14992   1.836   1.320   5.115  0.6133  1.3301  1.1172
  137OSM   C13F14993   2.015   1.264   4.988 -0.3442 -0.1135 -0.0406
  137OSM   H13F14994   2.101   1.195   5.000  1.3218  1.9256  0.1174
  137OSM   H13G14995   2.063   1.364   4.984  0.0555 -0.3409 -2.5248
  137OSM   C14F14996   1.935   1.226   4.861  0.9986 -0.0298  0.5445
  137OSM   H14F14997   1.843   1.288   4.854 -1.2331 -2.8291  2.4732
  137OSM   H14G14998   1.898   1.121   4.862  1.1886 -0.0936  1.2085
  137OSM   C15F14999   2.020   1.244   4.728 -0.1906  0.7792  0.0558
  137OSM   H15F15000   2.113   1.185   4.746 -1.6864 -1.5379  0.6426
  137OSM   H15G15001   2.046   1.352   4.721 -0.6975  0.8150 -1.8937
  137OSM   C16F15002   1.956   1.202   4.600 -0.0852 -0.0787  0.1891
  137OSM   H16F15003   2.000   1.237   4.503  2.2811  1.2269  1.6343
  137OSM   H16G15004   1.866   1.267   4.609  0.6822  0.6755  5.0630
  137OSM   C17F15005   1.933   1.051   4.598  0.5555 -0.1523 -0.0905
  137OSM   H17F15006   1.880   1.030   4.502  2.6144 -1.8683 -0.9198
  137OSM   H17G15007   1.856   1.027   4.675  1.4725  2.1130  1.6640
  137OSM   C18F15008   2.054   0.954   4.589 -0.1626  0.4491 -0.2613
  137OSM   H18F15009   2.127   0.981   4.669 -0.0462 -4.3618  1.5944
  137OSM   H18G15010   2.116   0.957   4.497 -1.0491 -1.4444 -0.9635
  137OSM   H18H15011   2.016   0.850   4.594 -2.1660  1.1606  0.6693
  138OSM      N15012   4.781   0.101   6.697 -0.1852  0.3980 -0.1486
  138OSM    C1515013   4.843   0.091   6.834  0.0787  0.0267  0.7077
  138OSM   H15A15014   4.882  -0.009   6.844  0.1984 -0.1026 -0.8090
  138OSM   H15B15015   4.772   0.109   6.914  1.1803 -1.9789  2.2583
  138OSM   H15C15016   4.923   0.163   6.843  2.2403 -2.2289  0.4832
  138OSM    C1415017   4.884   0.096   6.594  0.3049 -0.3846  0.0212
  138OSM   H14A15018   4.936   0.189   6.577 -1.1396  0.7468  1.5377
  138OSM   H14B15019   4.851   0.069   6.495  0.6206  2.2814 -0.8973
  138OSM   H14C15020   4.957   0.022   6.627  1.7280  0.6141 -0.7645
  138OSM    C1315021   4.710  -0.037   6.679 -0.1869 -0.4104  0.3467
  138OSM   H13A15022   4.635  -0.047   6.756  1.5526 -0.5515  2.0856
  138OSM   H13B15023   4.779  -0.120   6.684 -2.5034 -2.6093 -1.3869
  138OSM   H13C15024   4.663  -0.031   6.582 -2.2042  1.4183  1.3480
  138OSM    C1215025   4.691   0.213   6.685 -0.0684 -0.1548 -0.0652
  138OSM   H12A15026   4.606   0.205   6.751 -0.4130 -1.1454 -0.6198
  138OSM   H12B15027   4.649   0.217   6.586  0.4690  0.2385 -0.2824
  138OSM    C1115028   4.748   0.361   6.706  0.5768 -0.4734 -0.3190
  138OSM   H11A15029   4.773   0.382   6.812  2.5787 -0.5541 -0.7450
  138OSM   H11B15030   4.662   0.429   6.686  0.7929 -0.3314 -0.7768
  138OSM      P15031   4.860   0.406   6.470  0.3061 -0.0999 -0.4832
  138OSM    O1315032   4.862   0.549   6.439 -0.1312 -0.2970  0.0414
  138OSM    O1415033   4.975   0.337   6.411  0.0632  0.2704 -0.1434
  138OSM    O1115034   4.723   0.340   6.438 -0.1020  0.0668 -0.3361
  138OSM    O1215035   4.861   0.389   6.629 -0.1963 -0.3065 -0.2805
  138OSM    C1S15036   4.620   0.405   6.364  0.5515 -0.7267 -0.2793
  138OSM    H1S15037   4.611   0.513   6.390  0.4821 -0.8160  0.0788
  138OSM    H1T15038   4.520   0.365   6.393  0.4728 -0.5252 -0.2678
  138OSM     NF15039   4.529   0.467   6.141 -0.4522 -0.5691  0.4297
  138OSM    HNF15040   4.475   0.417   6.073  0.9963  0.3237 -1.4653
  138OSM    C2S15041   4.634   0.390   6.212  0.7957  0.2331  0.1484
  138OSM    H2S15042   4.730   0.441   6.189  0.8955 -0.3249 -0.7509
  138OSM    C3S15043   4.639   0.237   6.177  0.0131  0.8651 -0.1822
  138OSM    H3S15044   4.533   0.210   6.157 -0.1481  1.6736 -0.4623
  138OSM     O315045   4.679   0.147   6.278  0.9229 -0.3284 -0.4465
  138OSM    HO315046   4.709   0.205   6.348 -0.1430  0.7056 -0.7990
  138OSM    C4S15047   4.712   0.206   6.048  0.1288  0.6676  0.7668
  138OSM    H4S15048   4.653   0.173   5.960 -0.2854 -0.5833  1.4836
  138OSM    C5S15049   4.844   0.194   6.040  0.2053 -0.4180 -0.3901
  138OSM    H5S15050   4.908   0.206   6.128  2.2448 -0.0498 -1.8539
  138OSM    C6S15051   4.918   0.158   5.909  0.6258 -0.2287 -0.1032
  138OSM    H6S15052   4.975   0.062   5.918  1.1411  0.2327  2.5947
  138OSM    H6T15053   5.001   0.230   5.892 -0.8211  1.4107 -0.3583
  138OSM    C7S15054   4.847   0.147   5.767 -0.5693  0.2959 -0.1869
  138OSM    H7S15055   4.785   0.239   5.767  0.0921  0.7540 -0.9235
  138OSM    H7T15056   4.776   0.061   5.767 -1.2131  0.7749  1.5351
  138OSM    C8S15057   4.949   0.136   5.653  0.1657 -0.1720 -0.5878
  138OSM    H8S15058   5.017   0.051   5.677  0.9914  0.6211 -0.0486
  138OSM    H8T15059   4.999   0.235   5.661  0.7248 -0.4943  0.0746
  138OSM    C9S15060   4.900   0.122   5.508 -0.5174  0.0562  0.0057
  138OSM    H9S15061   4.874   0.021   5.469 -1.1821 -0.3471  1.3911
  138OSM    H9T15062   4.982   0.160   5.445 -0.7982  1.1617  0.2823
  138OSM   C10S15063   4.768   0.195   5.493 -0.2432  0.0587 -0.3153
  138OSM   H10S15064   4.789   0.301   5.518 -0.7281  0.0844 -0.0069
  138OSM   H10T15065   4.695   0.152   5.566 -2.4372  2.9330 -0.6485
  138OSM   C11S15066   4.707   0.207   5.358  0.7868  0.2696 -0.2785
  138OSM   H11S15067   4.688   0.108   5.313  0.4422 -0.5958  1.6722
  138OSM   H11T15068   4.779   0.259   5.291 -0.1057 -0.5076 -1.8876
  138OSM   C12S15069   4.582   0.293   5.366  0.1000 -0.1880 -0.3323
  138OSM   H12S15070   4.624   0.390   5.400  2.5597 -1.2733 -0.0835
  138OSM   H12T15071   4.513   0.253   5.443  2.0599 -0.7672  1.2104
  138OSM   C13S15072   4.523   0.323   5.229  0.8041  0.8213  0.0734
  138OSM   H13S15073   4.603   0.362   5.162  0.5799  1.4352  0.1528
  138OSM   H13T15074   4.444   0.401   5.236 -0.4279 -0.3664 -0.2453
  138OSM   C14S15075   4.464   0.200   5.164  0.4468 -0.4467  1.0686
  138OSM   H14S15076   4.385   0.154   5.227  1.1044 -0.7793  1.6694
  138OSM   H14T15077   4.542   0.123   5.148  1.9771  1.1187  0.6230
  138OSM   C15S15078   4.400   0.234   5.022 -0.2306 -0.7574  0.0370
  138OSM   H15S15079   4.360   0.337   5.031  3.6973  0.8767  0.9161
  138OSM   H15T15080   4.319   0.165   4.989 -1.1626 -0.6959  2.0561
  138OSM   C16S15081   4.508   0.229   4.913 -0.0554 -0.5940 -0.2962
  138OSM   H16S15082   4.532   0.124   4.887 -1.9146 -0.5995 -2.2246
  138OSM   H16T15083   4.598   0.283   4.950  0.3851 -1.3660 -0.2261
  138OSM   C17S15084   4.463   0.307   4.791  0.2799 -0.4157  0.0663
  138OSM   H17S15085   4.472   0.409   4.833  1.2452  0.7581 -2.7709
  138OSM   H17T15086   4.357   0.277   4.775  0.5054 -1.3626  0.2664
  138OSM   C18S15087   4.554   0.281   4.671  0.1435  0.3523 -0.3683
  138OSM   H18S15088   4.659   0.287   4.708  0.0253 -2.2371  0.5775
  138OSM   H18T15089   4.528   0.351   4.589  0.2356 -2.6912 -3.2290
  138OSM   H18U15090   4.542   0.177   4.634 -1.6211  0.0043  1.0702
  138OSM    C1F15091   4.517   0.597   6.150 -0.0302 -0.3759  0.5770
  138OSM     OF15092   4.595   0.666   6.216 -0.1399  0.3002  0.4657
  138OSM    C2F15093   4.417   0.665   6.059  0.0292  0.1977 -0.3934
  138OSM    H2F15094   4.317   0.681   6.105  0.4587  1.2902  0.2141
  138OSM    H2G15095   4.397   0.599   5.972  0.1205  1.3469 -1.3139
  138OSM    C3F15096   4.470   0.802   6.009 -0.2351 -0.1759  0.0111
  138OSM    H3F15097   4.567   0.785   5.957 -0.3820 -0.8145 -0.0678
  138OSM    H3G15098   4.492   0.872   6.093 -2.5461 -1.2451  1.6068
  138OSM    C4F15099   4.379   0.869   5.901  0.4832 -0.3160  0.4686
  138OSM    H4F15100   4.286   0.893   5.958  0.6873  0.2715  0.5646
  138OSM    H4G15101   4.349   0.800   5.819  0.8960 -0.9130  0.8231
  138OSM    C5F15102   4.439   1.001   5.852 -0.3646 -0.3215 -0.5189
  138OSM    H5F15103   4.547   0.982   5.836  0.8232  3.0805  2.0791
  138OSM    H5G15104   4.436   1.071   5.938  0.5779 -1.3281  0.3568
  138OSM    C6F15105   4.367   1.068   5.732 -0.2237  0.3757  0.0788
  138OSM    H6F15106   4.270   1.116   5.756 -1.0602 -0.5009 -1.4155
  138OSM    H6G15107   4.359   0.996   5.647  2.5327  1.9690 -1.6846
  138OSM    C7F15108   4.459   1.184   5.672  0.5615 -0.2609 -0.4458
  138OSM    H7F15109   4.559   1.138   5.655 -0.1506 -2.1149  0.0596
  138OSM    H7G15110   4.456   1.261   5.751  1.9380  1.1971 -1.7561
  138OSM    C8F15111   4.401   1.249   5.549  0.6087  0.0566  0.7104
  138OSM    H8F15112   4.309   1.305   5.577  1.9689  1.3681  2.8213
  138OSM    H8G15113   4.359   1.168   5.485 -1.5684 -1.6117  3.9643
  138OSM    C9F15114   4.491   1.347   5.484 -0.4839  0.3013  0.4512
  138OSM    H9F15115   4.581   1.369   5.544 -1.8180 -1.5935  3.3741
  138OSM   C10F15116   4.468   1.394   5.363 -0.5296 -0.2304  0.1944
  138OSM   H10F15117   4.519   1.486   5.328 -1.0783  0.4543  1.1414
  138OSM   C11F15118   4.350   1.354   5.280 -0.2793  0.0436 -0.0764
  138OSM   H11F15119   4.277   1.438   5.281 -1.6416 -1.0954 -0.1511
  138OSM   H11G15120   4.291   1.273   5.327  1.0776  0.7984  3.2486
  138OSM   C12F15121   4.373   1.346   5.130 -0.1611  0.1749 -0.3286
  138OSM   H12F15122   4.278   1.318   5.079  0.1775  1.4951 -1.7599
  138OSM   H12G15123   4.437   1.256   5.112  1.9520  1.2047  1.6307
  138OSM   C13F15124   4.422   1.474   5.059 -0.4371  0.5653 -0.3164
  138OSM   H13F15125   4.513   1.506   5.113  0.8404 -0.3596 -1.8548
  138OSM   H13G15126   4.354   1.562   5.064  0.8671  1.6615 -1.2197
  138OSM   C14F15127   4.455   1.468   4.913  0.3200 -0.2767  0.3840
  138OSM   H14F15128   4.362   1.430   4.864  0.2783  0.9350 -0.5314
  138OSM   H14G15129   4.526   1.387   4.888 -0.0660 -0.2494 -0.8872
  138OSM   C15F15130   4.500   1.607   4.856  0.6324  0.0708  0.1854
  138OSM   H15F15131   4.571   1.658   4.925  1.3180 -0.0219 -0.4460
  138OSM   H15G15132   4.405   1.665   4.853  1.1680  0.9118 -1.4463
  138OSM   C16F15133   4.560   1.601   4.714 -0.3804  0.1670 -0.5489
  138OSM   H16F15134   4.567   1.700   4.663  0.4500  0.2800 -0.2335
  138OSM   H16G15135   4.508   1.527   4.650  0.1114  0.2266 -1.0284
  138OSM   C17F15136   4.707   1.549   4.733 -0.0883 -0.5315  0.3198
  138OSM   H17F15137   4.706   1.480   4.820 -1.6305  0.4941  1.1472
  138OSM   H17G15138   4.791   1.620   4.749  0.6279 -0.9494 -1.3707
  138OSM   C18F15139   4.750   1.458   4.620 -0.4982  0.1438 -0.2657
  138OSM   H18F15140   4.858   1.435   4.633 -0.4888  0.8278  0.9781
  138OSM   H18G15141   4.729   1.504   4.521 -0.7873  0.1975 -0.1796
  138OSM   H18H15142   4.695   1.362   4.634 -1.8229  1.0648  1.1307
  139OSM      N15143   0.486   3.701   7.102 -0.5970  0.3034  0.2855
  139OSM    C1515144   0.382   3.807   7.109  0.3416 -0.0221  0.1374
  139OSM   H15A15145   0.381   3.834   7.213 -1.4559 -1.6592  0.5974
  139OSM   H15B15146   0.287   3.776   7.069  2.6325 -5.1517 -2.2288
  139OSM   H15C15147   0.419   3.885   7.044  0.2669 -0.7489 -0.8016
  139OSM    C1415148   0.617   3.756   7.133  0.0550 -0.5843 -1.0541
  139OSM   H14A15149   0.640   3.843   7.074  0.2911  0.5681  0.6583
  139OSM   H14B15150   0.700   3.687   7.142  3.4140  3.2882  4.7294
  139OSM   H14C15151   0.605   3.806   7.228  0.9367 -0.5223 -0.9663
  139OSM    C1315152   0.455   3.594   7.197 -0.4958 -0.3089  0.6132
  139OSM   H13A15153   0.446   3.641   7.294 -1.8143  2.9394 -0.9244
  139OSM   H13B15154   0.534   3.520   7.187  1.3924  1.8359 -1.9717
  139OSM   H13C15155   0.361   3.545   7.177  1.2050 -3.0483 -1.3844
  139OSM    C1215156   0.492   3.646   6.954 -0.1463 -0.4032 -0.5412
  139OSM   H12A15157   0.565   3.567   6.954  2.0071  1.4042  1.8811
  139OSM   H12B15158   0.527   3.727   6.892  0.8839 -0.0963  0.4034
  139OSM    C1115159   0.363   3.593   6.891 -0.7726  0.0786  0.4017
  139OSM   H11A15160   0.372   3.590   6.781 -2.4113  0.9406  0.2007
  139OSM   H11B15161   0.269   3.651   6.908 -0.9590 -0.1730  0.2242
  139OSM      P15162   0.400   3.341   6.923  0.0880  0.2565  0.2028
  139OSM    O1315163   0.537   3.375   6.960  0.5606 -0.4838 -0.2210
  139OSM    O1415164   0.329   3.248   7.011  0.1159  0.7791  0.4614
  139OSM    O1115165   0.403   3.304   6.767  0.3012  0.2433  0.5982
  139OSM    O1215166   0.318   3.469   6.940  0.3411  0.4149  0.1470
  139OSM    C1S15167   0.273   3.289   6.700 -0.3109  0.0891  0.1273
  139OSM    H1S15168   0.189   3.343   6.749 -0.6964  0.2896 -0.7406
  139OSM    H1T15169   0.255   3.180   6.702  0.3834 -0.0309  0.0703
  139OSM     NF15170   0.155   3.344   6.477  0.0132  0.5306  0.5781
  139OSM    HNF15171   0.136   3.273   6.409 -1.8898  0.0688  1.5090
  139OSM    C2S15172   0.284   3.340   6.553  0.2635 -0.4148 -0.4181
  139OSM    H2S15173   0.323   3.444   6.558 -1.4112  0.1843  1.2715
  139OSM    C3S15174   0.393   3.257   6.478  0.7971  0.6251 -0.1168
  139OSM    H3S15175   0.332   3.166   6.461 -2.8115  2.7516  0.2431
  139OSM     O315176   0.507   3.218   6.553 -0.2216  0.5181  0.5240
  139OSM    HO315177   0.493   3.251   6.642 -0.1479 -0.1883  0.7970
  139OSM    C4S15178   0.446   3.320   6.355 -0.8007 -0.1718  0.5924
  139OSM    H4S15179   0.475   3.424   6.376 -2.2484  0.6185 -1.0882
  139OSM    C5S15180   0.459   3.267   6.233 -0.4363 -0.2765  0.0049
  139OSM    H5S15181   0.426   3.164   6.209 -1.5817  0.6347 -2.8148
  139OSM    C6S15182   0.536   3.334   6.128  0.1977  0.6374 -0.4328
  139OSM    H6S15183   0.564   3.438   6.158 -0.0750  0.2054  1.4477
  139OSM    H6T15184   0.469   3.334   6.039 -1.4488 -1.7420  0.7088
  139OSM    C7S15185   0.659   3.254   6.098 -0.2663  0.8322 -0.4188
  139OSM    H7S15186   0.648   3.144   6.092  0.2749  0.7723 -0.3834
  139OSM    H7T15187   0.725   3.262   6.187 -1.2805  0.4256  0.3753
  139OSM    C8S15188   0.734   3.286   5.970  0.1062  0.3598  0.2126
  139OSM    H8S15189   0.737   3.397   5.973 -0.1171  0.3537  1.6750
  139OSM    H8T15190   0.667   3.257   5.886  0.8457  0.7504 -0.5211
  139OSM    C9S15191   0.874   3.221   5.960  0.0369 -0.4147 -0.9551
  139OSM    H9S15192   0.878   3.127   6.020 -0.3257 -0.4057 -0.9188
  139OSM    H9T15193   0.949   3.285   6.013 -1.0889  0.8895 -0.8840
  139OSM   C10S15194   0.928   3.204   5.813  0.0973  0.6965  0.0733
  139OSM   H10S15195   1.038   3.212   5.820  0.1564  0.0062 -0.0113
  139OSM   H10T15196   0.910   3.301   5.760 -0.5537  0.7832  0.4418
  139OSM   C11S15197   0.892   3.077   5.755  0.6860  0.6025  0.1080
  139OSM   H11S15198   0.781   3.072   5.751  0.6870  0.4729  0.2543
  139OSM   H11T15199   0.928   3.002   5.828  1.0236  1.7789  1.1777
  139OSM   C12S15200   0.937   3.054   5.617  0.3121  0.1452  0.1768
  139OSM   H12S15201   1.048   3.049   5.611  0.4360  0.1619  1.8504
  139OSM   H12T15202   0.904   3.146   5.564 -0.7117 -0.7912 -0.8716
  139OSM   C13S15203   0.877   2.930   5.552  0.2209 -1.0063  0.2351
  139OSM   H13S15204   0.766   2.923   5.562  0.1474  1.2515  1.8766
  139OSM   H13T15205   0.899   2.838   5.609 -3.3017 -1.7582  0.6180
  139OSM   C14S15206   0.907   2.906   5.398  0.4678  0.3369  0.0883
  139OSM   H14S15207   0.838   2.823   5.375  0.7451 -0.2178  1.1498
  139OSM   H14T15208   1.009   2.864   5.382 -0.1483 -1.1309 -0.1382
  139OSM   C15S15209   0.887   3.036   5.318  0.7647  0.0961  0.1783
  139OSM   H15S15210   0.985   3.088   5.326  0.8929 -0.2163  0.6701
  139OSM   H15T15211   0.802   3.082   5.373  0.4894 -1.2407  0.9109
  139OSM   C16S15212   0.865   3.015   5.163  0.0001  0.0019 -0.6293
  139OSM   H16S15213   0.963   2.986   5.118  0.1981  2.0005 -1.6095
  139OSM   H16T15214   0.849   3.113   5.112  0.4192 -0.5361 -1.8414
  139OSM   C17S15215   0.749   2.917   5.124 -0.2706 -0.4221 -0.4986
  139OSM   H17S15216   0.653   2.952   5.170 -0.2636 -2.0957  0.8942
  139OSM   H17T15217   0.761   2.818   5.173 -1.1703  0.3761  1.4683
  139OSM   C18S15218   0.728   2.907   4.971  0.2997  0.5617  0.3527
  139OSM   H18S15219   0.823   2.876   4.923 -1.3570 -0.9923 -2.1356
  139OSM   H18T15220   0.705   3.000   4.915  0.1444 -1.0439 -2.4640
  139OSM   H18U15221   0.646   2.836   4.948 -0.3686  1.0225  1.2465
  139OSM    C1F15222   0.050   3.420   6.511  0.0848 -0.1730  0.5567
  139OSM     OF15223   0.056   3.492   6.609 -0.0468  0.0800  0.5095
  139OSM    C2F15224  -0.073   3.412   6.420  0.4737 -0.6342 -0.3155
  139OSM    H2F15225  -0.104   3.305   6.416  0.6308 -0.8645  2.5413
  139OSM    H2G15226  -0.048   3.443   6.317 -1.2958  0.9746 -0.3061
  139OSM    C3F15227  -0.200   3.476   6.479  0.9052  0.2004 -0.4713
  139OSM    H3F15228  -0.172   3.578   6.512 -0.2285 -0.0100  1.2517
  139OSM    H3G15229  -0.236   3.423   6.570  0.9278  1.6603  0.4158
  139OSM    C4F15230  -0.326   3.493   6.385  0.1476 -0.5438 -0.3889
  139OSM    H4F15231  -0.412   3.538   6.440  0.9808 -1.3915  1.7102
  139OSM    H4G15232  -0.357   3.389   6.360  2.1087 -1.2948  0.0960
  139OSM    C5F15233  -0.292   3.566   6.251  0.0750  0.9943 -0.8951
  139OSM    H5F15234  -0.384   3.565   6.188  1.0266 -2.0252 -2.4264
  139OSM    H5G15235  -0.215   3.499   6.207 -0.8887 -2.7103  2.3906
  139OSM    C6F15236  -0.248   3.713   6.265 -0.4221 -1.0940 -0.6843
  139OSM    H6F15237  -0.140   3.721   6.288 -0.7427  2.1315  0.1384
  139OSM    H6G15238  -0.307   3.765   6.344  1.4663  1.7739 -1.0374
  139OSM    C7F15239  -0.268   3.798   6.143  0.6641 -0.0509 -0.0568
  139OSM    H7F15240  -0.250   3.904   6.171 -0.3986 -0.0584  0.6744
  139OSM    H7G15241  -0.374   3.785   6.112  1.3301 -0.7575 -2.2888
  139OSM    C8F15242  -0.170   3.762   6.033 -0.6620  0.6133  0.8441
  139OSM    H8F15243  -0.172   3.652   6.020 -0.4020  0.5275  1.4624
  139OSM    H8G15244  -0.068   3.779   6.074 -0.4744  1.9858 -0.1102
  139OSM    C9F15245  -0.187   3.855   5.911  0.1573  0.2502 -0.4784
  139OSM    H9F15246  -0.200   3.962   5.937  0.3332  0.2436 -0.3616
  139OSM   C10F15247  -0.194   3.829   5.781  0.4120  0.2625 -0.2994
  139OSM   H10F15248  -0.200   3.904   5.701 -0.9759 -1.8144 -2.2887
  139OSM   C11F15249  -0.170   3.689   5.730 -0.0092 -0.1307 -0.2157
  139OSM   H11F15250  -0.265   3.636   5.706  1.0706 -1.8135 -1.0104
  139OSM   H11G15251  -0.114   3.631   5.807  1.9599  0.0368 -1.4480
  139OSM   C12F15252  -0.077   3.679   5.611 -0.2571  0.4636  0.1652
  139OSM   H12F15253  -0.052   3.571   5.606 -0.0897  0.5181 -0.2880
  139OSM   H12G15254   0.017   3.736   5.627  0.6843 -0.9499 -0.1323
  139OSM   C13F15255  -0.129   3.730   5.475  0.5579 -0.5118 -0.0748
  139OSM   H13F15256  -0.159   3.835   5.497  1.5261 -0.4655  1.1444
  139OSM   H13G15257  -0.218   3.668   5.451 -0.1857  0.5120 -0.0407
  139OSM   C14F15258  -0.019   3.715   5.370 -0.2194  0.7650  0.3808
  139OSM   H14F15259   0.071   3.770   5.404 -0.1901  3.4575 -3.4629
  139OSM   H14G15260  -0.063   3.764   5.281 -1.5730 -0.4526  0.3299
  139OSM   C15F15261   0.034   3.569   5.336  0.6196  0.0497  0.1820
  139OSM   H15F15262  -0.054   3.504   5.320  0.3889 -0.1824  2.2192
  139OSM   H15G15263   0.085   3.537   5.429 -1.7809  1.3301  2.0433
  139OSM   C16F15264   0.115   3.562   5.206  0.6542  0.2587  0.5682
  139OSM   H16F15265   0.050   3.599   5.125  1.3408  1.8762  0.7274
  139OSM   H16G15266   0.133   3.457   5.175  1.9401  0.4284  0.6842
  139OSM   C17F15267   0.243   3.647   5.209 -0.2057  0.3674  0.2319
  139OSM   H17F15268   0.279   3.635   5.313  0.2987  1.6988  0.2261
  139OSM   H17G15269   0.215   3.754   5.212  0.3307  0.4930  1.2369
  139OSM   C18F15270   0.338   3.607   5.090  0.4035 -0.5050 -0.2592
  139OSM   H18F15271   0.287   3.632   4.995 -1.0237 -1.8117  0.1149
  139OSM   H18G15272   0.367   3.499   5.091  1.3912 -0.2520  0.5130
  139OSM   H18H15273   0.427   3.673   5.089 -1.7682  2.6251  0.4611
  140OSM      N15274   0.967   1.891   6.905 -0.2483  0.0734  0.0730
  140OSM    C1515275   0.957   1.783   7.002  0.3056 -0.2669  0.5043
  140OSM   H15A15276   1.019   1.699   6.974  1.7090  1.8811 -3.6582
  140OSM   H15B15277   0.858   1.739   7.002 -0.1374  0.6171 -1.1597
  140OSM   H15C15278   0.992   1.821   7.096  2.1717  0.9509 -0.6205
  140OSM    C1415279   0.862   1.996   6.926  0.3189 -0.1672 -0.6631
  140OSM   H14A15280   0.767   1.955   6.956  0.5673 -0.1323  0.1786
  140OSM   H14B15281   0.862   2.065   6.843  0.8224  0.1829 -0.3798
  140OSM   H14C15282   0.885   2.056   7.012  2.7144  0.1079 -1.3987
  140OSM    C1315283   1.090   1.972   6.913  0.6794  0.7189  0.4768
  140OSM   H13A15284   1.093   2.007   7.015 -0.8604 -1.9576  1.5341
  140OSM   H13B15285   1.094   2.055   6.843  0.8535  0.4928  0.2170
  140OSM   H13C15286   1.170   1.901   6.896  0.3778  0.6273 -0.6523
  140OSM    C1215287   0.958   1.832   6.767 -0.6750 -0.0002  0.7883
  140OSM   H12A15288   0.941   1.914   6.699  0.0232 -1.7652 -1.6445
  140OSM   H12B15289   0.869   1.772   6.768 -0.5416 -0.2425 -0.5644
  140OSM    C1115290   1.084   1.749   6.727  0.3671  0.4963 -0.1614
  140OSM   H11A15291   1.177   1.804   6.752 -0.2425  0.6258  1.9793
  140OSM   H11B15292   1.078   1.731   6.617  2.2365 -2.0572  0.0755
  140OSM      P15293   1.176   1.498   6.762 -0.2603 -0.0272 -0.2450
  140OSM    O1315294   1.319   1.508   6.802 -0.0292  0.7282 -0.4387
  140OSM    O1415295   1.103   1.393   6.831  0.4790  0.0180 -0.0392
  140OSM    O1115296   1.175   1.486   6.610 -0.0622 -0.4708  0.3985
  140OSM    O1215297   1.087   1.629   6.800 -0.0265  0.1123  0.2453
  140OSM    C1S15298   1.153   1.356   6.550  0.0069  0.0387 -0.1671
  140OSM    H1S15299   1.051   1.321   6.577 -0.4682  0.6215 -1.1463
  140OSM    H1T15300   1.240   1.294   6.579  1.2691  1.6012 -0.4423
  140OSM     NF15301   1.110   1.232   6.347  0.2414 -0.1128  0.0138
  140OSM    HNF15302   1.167   1.171   6.293 -0.2306 -1.5401  1.0860
  140OSM    C2S15303   1.147   1.360   6.396  0.0966 -0.7725 -0.0660
  140OSM    H2S15304   1.059   1.424   6.374  0.1310  0.5475  3.0296
  140OSM    C3S15305   1.267   1.431   6.333 -1.2408  0.7221  0.1038
  140OSM    H3S15306   1.351   1.358   6.333 -1.2978  0.6558 -0.1935
  140OSM     O315307   1.303   1.545   6.396 -0.5729 -0.0959  0.2959
  140OSM    HO315308   1.259   1.542   6.482  0.6394 -0.0455  0.9393
  140OSM    C4S15309   1.247   1.463   6.195 -0.6586 -0.0094  0.0190
  140OSM    H4S15310   1.310   1.398   6.134 -1.5487  0.1254 -1.0860
  140OSM    C5S15311   1.156   1.542   6.136  0.1478 -0.2508  0.3869
  140OSM    H5S15312   1.077   1.592   6.195 -1.8591 -0.1582 -2.1827
  140OSM    C6S15313   1.146   1.546   5.984 -0.2471  0.2104 -0.3329
  140OSM    H6S15314   1.226   1.497   5.924  0.3583  1.5825 -0.6823
  140OSM    H6T15315   1.153   1.652   5.950 -1.3092  0.6088  0.6496
  140OSM    C7S15316   1.018   1.479   5.927 -0.3446 -0.3225  0.3417
  140OSM    H7S15317   0.933   1.537   5.969  0.7445  2.6661 -1.2878
  140OSM    H7T15318   1.009   1.375   5.964  0.9744 -0.4198  0.4272
  140OSM    C8S15319   1.015   1.476   5.773  0.2881  1.2511  0.6328
  140OSM    H8S15320   0.911   1.442   5.752  0.1696  1.6894  0.5039
  140OSM    H8T15321   1.092   1.404   5.737 -0.3514  1.2110 -0.7349
  140OSM    C9S15322   1.016   1.616   5.704  0.0637 -0.3893 -0.1707
  140OSM    H9S15323   1.118   1.654   5.681 -0.1212  1.2431  1.4760
  140OSM    H9T15324   0.957   1.685   5.768 -1.2113 -0.2178 -1.4906
  140OSM   C10S15325   0.938   1.621   5.572 -0.1045 -0.3020 -1.2547
  140OSM   H10S15326   0.834   1.580   5.575  0.1233 -0.9188 -1.5208
  140OSM   H10T15327   0.979   1.541   5.506 -1.8018 -1.9102 -0.4786
  140OSM   C11S15328   0.929   1.757   5.503  0.4890 -0.4061 -0.1704
  140OSM   H11S15329   1.029   1.800   5.480 -0.4241  1.8160 -0.2056
  140OSM   H11T15330   0.867   1.827   5.564  1.3672 -0.1624  0.4737
  140OSM   C12S15331   0.846   1.735   5.377 -0.3990  0.1938 -0.8014
  140OSM   H12S15332   0.740   1.724   5.408 -0.0003  1.5890  1.2469
  140OSM   H12T15333   0.877   1.634   5.343  0.0847 -0.3192  1.0196
  140OSM   C13S15334   0.864   1.838   5.265 -0.0948  0.0784 -0.1797
  140OSM   H13S15335   0.970   1.831   5.233  0.2766 -1.1039  1.2051
  140OSM   H13T15336   0.857   1.943   5.300  0.3576  0.7032 -1.8429
  140OSM   C14S15337   0.777   1.815   5.137  0.3990  0.4341  0.1356
  140OSM   H14S15338   0.672   1.834   5.166  0.2201 -1.8571  1.2796
  140OSM   H14T15339   0.782   1.707   5.109 -1.7605  0.0046  1.1564
  140OSM   C15S15340   0.831   1.889   5.013 -0.1961  0.3363 -1.0872
  140OSM   H15S15341   0.936   1.858   4.999 -1.0923 -3.0996 -1.0698
  140OSM   H15T15342   0.832   1.999   5.027  0.4718  0.0995  1.0747
  140OSM   C16S15343   0.760   1.849   4.886 -0.2838 -0.2580  0.6379
  140OSM   H16S15344   0.654   1.822   4.909  0.4226 -2.9775  1.0492
  140OSM   H16T15345   0.802   1.763   4.830 -1.0500 -0.1715 -0.0920
  140OSM   C17S15346   0.744   1.959   4.780  0.1263 -0.3933  0.9843
  140OSM   H17S15347   0.844   1.995   4.750 -0.4461  0.6003  0.2074
  140OSM   H17T15348   0.692   2.041   4.833 -0.2489  0.0240 -0.0263
  140OSM   C18S15349   0.666   1.925   4.646  0.5292  0.0705  0.2087
  140OSM   H18S15350   0.565   1.892   4.679  0.2702  1.3145  0.7443
  140OSM   H18T15351   0.724   1.854   4.584 -2.2036  0.5547 -3.1583
  140OSM   H18U15352   0.661   2.012   4.577 -0.7823 -0.2551 -0.1240
  140OSM    C1F15353   0.988   1.193   6.375  0.2194  0.1193  0.2225
  140OSM     OF15354   0.905   1.273   6.413  0.0582 -0.0934  0.8859
  140OSM    C2F15355   0.952   1.051   6.349  0.0419 -0.5828 -0.8635
  140OSM    H2F15356   0.876   1.028   6.427 -1.1569  1.4357 -1.3499
  140OSM    H2G15357   1.041   0.987   6.364  0.4281  0.1892  0.3137
  140OSM    C3F15358   0.889   1.034   6.214 -0.0870 -0.6321 -0.4163
  140OSM    H3F15359   0.809   1.107   6.193  0.8901  1.1709  1.6795
  140OSM    H3G15360   0.834   0.937   6.216 -2.1505  0.4986  0.6568
  140OSM    C4F15361   0.991   1.039   6.093  1.0257  0.1738 -0.3192
  140OSM    H4F15362   1.051   0.946   6.098  1.4633  0.5272  2.3047
  140OSM    H4G15363   1.064   1.123   6.103  2.5600 -1.0539 -0.7601
  140OSM    C5F15364   0.923   1.049   5.954  0.2826  0.4559  0.9086
  140OSM    H5F15365   0.874   1.149   5.956 -1.3268 -0.3234  1.8131
  140OSM    H5G15366   0.847   0.970   5.941 -0.6697  1.4587  0.1847
  140OSM    C6F15367   1.027   1.033   5.843 -0.1268  0.1991 -0.0937
  140OSM    H6F15368   1.096   0.953   5.878  0.7799  1.1777  0.4309
  140OSM    H6G15369   1.082   1.130   5.844 -0.1869  0.2935  2.9645
  140OSM    C7F15370   0.971   1.017   5.700 -0.0433  0.0593 -0.0932
  140OSM    H7F15371   0.916   1.112   5.685  0.6721  0.5980  0.6341
  140OSM    H7G15372   0.905   0.928   5.691 -0.0568 -0.0425  0.9432
  140OSM    C8F15373   1.084   1.003   5.599  0.0550  0.7142 -0.7953
  140OSM    H8F15374   1.033   0.974   5.504  1.7169  0.1777 -1.5680
  140OSM    H8G15375   1.150   0.914   5.609 -0.8143  0.0718 -0.6119
  140OSM    C9F15376   1.171   1.121   5.586  0.4507 -0.0858 -1.0013
  140OSM    H9F15377   1.247   1.146   5.661  0.1852 -0.5456 -0.5785
  140OSM   C10F15378   1.151   1.221   5.497  0.7952 -0.7764 -0.4036
  140OSM   H10F15379   1.241   1.285   5.497  0.0460  0.3504  0.6689
  140OSM   C11F15380   1.047   1.235   5.388 -0.5660  0.0971  0.2131
  140OSM   H11F15381   1.001   1.336   5.400 -1.9097 -0.5025  0.3437
  140OSM   H11G15382   0.960   1.168   5.405 -0.4115  0.1139  1.0951
  140OSM   C12F15383   1.110   1.210   5.244  0.3609  0.0487  0.0939
  140OSM   H12F15384   1.134   1.102   5.236  0.9696  0.3339 -2.7502
  140OSM   H12G15385   1.206   1.265   5.236  1.0013 -1.1787 -1.1009
  140OSM   C13F15386   1.015   1.256   5.133  0.2346 -0.2986  0.2360
  140OSM   H13F15387   1.011   1.367   5.137 -1.5553 -0.2384 -1.4644
  140OSM   H13G15388   0.911   1.218   5.146 -0.0497  0.2409 -0.4326
  140OSM   C14F15389   1.055   1.199   4.999  0.0862  0.8915 -0.3096
  140OSM   H14F15390   1.049   1.088   5.000 -1.4088  0.9533 -1.0361
  140OSM   H14G15391   1.160   1.231   4.980  0.3703  0.0106 -0.3085
  140OSM   C15F15392   0.965   1.244   4.889  0.0059  0.3569  0.0656
  140OSM   H15F15393   0.958   1.355   4.888 -0.8032  0.3281 -2.2986
  140OSM   H15G15394   0.861   1.207   4.894  0.5512 -1.1498  2.7030
  140OSM   C16F15395   1.011   1.209   4.746  0.0435  0.3261  0.1248
  140OSM   H16F15396   1.027   1.099   4.740  2.1666  0.6261 -0.9009
  140OSM   H16G15397   1.112   1.253   4.726  0.1351  0.5230  0.9766
  140OSM   C17F15398   0.924   1.264   4.631  0.1968  0.7724 -0.6642
  140OSM   H17F15399   0.911   1.373   4.650  3.1632  0.9046  1.4286
  140OSM   H17G15400   0.821   1.223   4.641  0.4095  0.0823 -1.2519
  140OSM   C18F15401   0.983   1.238   4.490 -0.3251  1.1217 -0.0953
  140OSM   H18F15402   0.998   1.128   4.484 -0.7560  1.0477  0.1180
  140OSM   H18G15403   1.073   1.302   4.482  0.7727 -0.4817 -0.9871
  140OSM   H18H15404   0.910   1.269   4.413  2.1516 -0.0715 -3.1108
  141OSM      N15405   0.588   0.616   6.760  0.2917 -0.1282 -0.0538
  141OSM    C1515406   0.498   0.619   6.637 -0.4479 -0.1488  0.0773
  141OSM   H15A15407   0.472   0.524   6.593 -1.3304  0.4454 -0.7103
  141OSM   H15B15408   0.550   0.665   6.555 -4.2194  0.9072 -1.9735
  141OSM   H15C15409   0.408   0.674   6.660 -0.7360  0.2734 -1.9021
  141OSM    C1415410   0.516   0.534   6.862 -0.6109 -0.2737  0.0056
  141OSM   H14A15411   0.429   0.581   6.906  0.0522  0.6502  0.3465
  141OSM   H14B15412   0.580   0.497   6.940 -0.6969  0.7238  0.5583
  141OSM   H14C15413   0.472   0.443   6.822  1.0206 -1.0781 -0.0413
  141OSM    C1315414   0.706   0.525   6.729 -0.0566  0.2476 -0.0661
  141OSM   H13A15415   0.777   0.534   6.809 -2.1813  0.1069  1.9468
  141OSM   H13B15416   0.746   0.564   6.636  0.0494  0.9055  0.2510
  141OSM   H13C15417   0.686   0.419   6.715  0.7406  0.1274 -0.3614
  141OSM    C1215418   0.635   0.750   6.806  0.7367  0.4884 -0.0617
  141OSM   H12A15419   0.710   0.741   6.883  0.8685  0.2548 -0.2164
  141OSM   H12B15420   0.552   0.801   6.853 -0.8385 -0.1969 -1.9880
  141OSM    C1115421   0.694   0.862   6.710  0.7190  0.0409  0.3953
  141OSM   H11A15422   0.781   0.820   6.656  1.7003  2.4515 -0.0134
  141OSM   H11B15423   0.727   0.950   6.768  4.0827 -1.7328  1.4412
  141OSM      P15424   0.493   1.001   6.658  0.3012 -0.4427  0.2933
  141OSM    O1315425   0.359   0.957   6.628  0.5060  0.1695 -0.2358
  141OSM    O1415426   0.515   1.038   6.802 -0.6703 -0.5284 -0.0186
  141OSM    O1115427   0.521   1.130   6.573  0.2549 -0.1696 -0.3138
  141OSM    O1215428   0.596   0.893   6.614 -0.8919 -0.6039 -0.1732
  141OSM    C1S15429   0.572   1.121   6.436  0.5563  0.4614  0.2319
  141OSM    H1S15430   0.632   1.028   6.421  1.1682  0.8798  0.0471
  141OSM    H1T15431   0.645   1.203   6.419 -0.2320  1.5639  1.9105
  141OSM     NF15432   0.483   1.102   6.207 -0.2838  0.2771  0.0557
  141OSM    HNF15433   0.485   1.182   6.147 -1.5401  0.8175  0.7162
  141OSM    C2S15434   0.454   1.132   6.340 -0.0717 -0.0518  0.6409
  141OSM    H2S15435   0.378   1.060   6.377  0.0156  0.4770  1.9004
  141OSM    C3S15436   0.391   1.276   6.349 -0.0083 -0.1165 -0.4351
  141OSM    H3S15437   0.476   1.348   6.342 -1.1611  1.3461  0.1082
  141OSM     O315438   0.339   1.312   6.482 -0.4316  0.0781  0.2705
  141OSM    HO315439   0.353   1.231   6.532  0.8231 -0.4076 -0.8089
  141OSM    C4S15440   0.298   1.316   6.237 -0.0368 -0.4063  0.0019
  141OSM    H4S15441   0.351   1.375   6.161 -0.0052 -1.4287 -0.7957
  141OSM    C5S15442   0.163   1.297   6.231 -0.4257  0.0151  0.0498
  141OSM    H5S15443   0.114   1.244   6.314 -1.1853 -1.2290 -1.1288
  141OSM    C6S15444   0.061   1.343   6.130  0.0372 -0.5688  0.3350
  141OSM    H6S15445  -0.018   1.405   6.178 -0.0025  0.0357 -0.4724
  141OSM    H6T15446  -0.002   1.258   6.096 -1.4986  0.1210  1.3245
  141OSM    C7S15447   0.122   1.414   6.006  0.4346  0.4052 -0.0621
  141OSM    H7S15448   0.197   1.341   5.969  0.7390  1.0063 -0.6484
  141OSM    H7T15449   0.170   1.506   6.044 -1.2594  0.7900  1.2858
  141OSM    C8S15450   0.010   1.433   5.906 -0.1020  0.0917  0.4593
  141OSM    H8S15451  -0.048   1.522   5.939  1.6067  0.5638  2.4266
  141OSM    H8T15452  -0.051   1.340   5.910  1.0680 -0.8027 -1.2871
  141OSM    C9S15453   0.057   1.454   5.765  0.5726 -0.3045 -0.9628
  141OSM    H9S15454   0.146   1.388   5.753  0.7922 -0.3649  0.6622
  141OSM    H9T15455   0.099   1.556   5.761 -1.6270  0.7076 -0.1915
  141OSM   C10S15456  -0.040   1.445   5.654  0.1716  0.0135  0.8476
  141OSM   H10S15457  -0.115   1.525   5.670  0.8978  0.4316  2.3097
  141OSM   H10T15458  -0.104   1.354   5.654  0.4686 -0.2180  2.3028
  141OSM   C11S15459   0.027   1.461   5.517 -0.4931 -0.8665  0.1761
  141OSM   H11S15460   0.108   1.388   5.495  1.2211  0.2956  2.2775
  141OSM   H11T15461   0.092   1.550   5.499 -0.2906 -0.7876  1.2673
  141OSM   C12S15462  -0.085   1.435   5.412 -0.6878  0.0753 -0.3598
  141OSM   H12S15463  -0.143   1.529   5.424  1.1388  1.2141  0.0917
  141OSM   H12T15464  -0.147   1.346   5.437 -0.2770  0.3433  1.8836
  141OSM   C13S15465  -0.036   1.441   5.268 -0.9587  0.1465  0.0138
  141OSM   H13S15466   0.002   1.341   5.240  1.1162  0.5404  1.2160
  141OSM   H13T15467   0.031   1.529   5.255 -4.1634  2.3447 -4.0074
  141OSM   C14S15468  -0.141   1.461   5.157  0.5693 -0.2424 -1.0102
  141OSM   H14S15469  -0.162   1.570   5.147  0.9731  0.0391  0.8409
  141OSM   H14T15470  -0.232   1.413   5.197  1.1901 -0.9440 -0.4177
  141OSM   C15S15471  -0.101   1.408   5.015  0.1012 -0.3381  0.9236
  141OSM   H15S15472  -0.087   1.298   5.013  1.4723 -0.1856  1.3153
  141OSM   H15T15473   0.002   1.446   4.999 -0.9899  2.1497 -0.9813
  141OSM   C16S15474  -0.199   1.447   4.894  0.5059  0.0197 -0.1363
  141OSM   H16S15475  -0.152   1.402   4.804 -0.4927 -0.4417 -0.4350
  141OSM   H16T15476  -0.217   1.557   4.891 -1.4227 -0.2827 -1.2339
  141OSM   C17S15477  -0.337   1.390   4.924  0.9078  0.0631 -0.0254
  141OSM   H17S15478  -0.387   1.406   5.021  0.3062  1.1913 -0.5027
  141OSM   H17T15479  -0.322   1.280   4.929 -2.2030 -0.4539 -0.3561
  141OSM   C18S15480  -0.435   1.394   4.808 -0.0377 -0.2137  0.4392
  141OSM   H18S15481  -0.448   1.500   4.778 -1.2454 -1.1398 -2.7745
  141OSM   H18T15482  -0.529   1.341   4.836 -0.0357 -1.0820 -1.0645
  141OSM   H18U15483  -0.398   1.338   4.720  1.1266 -0.5164  1.0981
  141OSM    C1F15484   0.502   0.975   6.168  0.1492 -0.1686  0.7693
  141OSM     OF15485   0.487   0.878   6.239 -0.1286 -1.3239  0.1466
  141OSM    C2F15486   0.545   0.956   6.023  0.3740  0.0254 -1.0163
  141OSM    H2F15487   0.649   0.995   6.014  0.2788  0.3986 -0.5007
  141OSM    H2G15488   0.484   1.014   5.951 -1.2019 -3.1445 -2.4440
  141OSM    C3F15489   0.549   0.807   5.998 -0.2600 -0.1542  0.1564
  141OSM    H3F15490   0.448   0.767   6.022 -0.3563 -0.1022 -0.1590
  141OSM    H3G15491   0.622   0.754   6.063  0.5543 -0.7794 -1.2147
  141OSM    C4F15492   0.594   0.775   5.852  0.3642 -0.3148  0.3011
  141OSM    H4F15493   0.591   0.665   5.837 -1.8258 -0.2115 -0.3460
  141OSM    H4G15494   0.702   0.795   5.838  0.0908  1.8151  0.8619
  141OSM    C5F15495   0.504   0.839   5.739 -0.1708  0.1260 -0.0010
  141OSM    H5F15496   0.481   0.946   5.757 -0.4077  0.1873 -0.6401
  141OSM    H5G15497   0.409   0.781   5.726 -0.3483  1.0137 -3.9008
  141OSM    C6F15498   0.580   0.847   5.603 -0.0228 -0.0945 -0.4964
  141OSM    H6F15499   0.680   0.895   5.614  0.3802 -1.0672  0.2064
  141OSM    H6G15500   0.521   0.911   5.535 -0.0584  2.0761  1.4452
  141OSM    C7F15501   0.608   0.714   5.542 -0.6015  0.7554  0.0893
  141OSM    H7F15502   0.520   0.652   5.567 -0.3555  0.2664 -0.2354
  141OSM    H7G15503   0.685   0.651   5.591 -0.7963  0.7619  0.4081
  141OSM    C8F15504   0.625   0.732   5.394  0.2316  0.0743  0.4480
  141OSM    H8F15505   0.541   0.800   5.365 -0.4955 -1.2963 -0.8184
  141OSM    H8G15506   0.614   0.635   5.342 -2.9956  0.4581  0.1699
  141OSM    C9F15507   0.756   0.792   5.370 -0.0402 -0.6578 -0.2623
  141OSM    H9F15508   0.846   0.745   5.412  0.5521  0.0539 -0.6992
  141OSM   C10F15509   0.783   0.910   5.309  0.1132  0.8583  0.0934
  141OSM   H10F15510   0.890   0.931   5.304  0.6928 -1.1582  2.0740
  141OSM   C11F15511   0.686   1.011   5.258 -0.1491 -0.7246  0.4894
  141OSM   H11F15512   0.719   1.113   5.286  0.6345 -0.6529 -0.6391
  141OSM   H11G15513   0.585   1.000   5.303 -0.9572 -1.0463 -1.3217
  141OSM   C12F15514   0.681   1.012   5.105 -0.0511 -0.7602 -0.0903
  141OSM   H12F15515   0.778   0.987   5.056 -0.5004 -1.1162 -0.8054
  141OSM   H12G15516   0.665   1.120   5.084  0.0816 -0.8142 -0.4903
  141OSM   C13F15517   0.581   0.915   5.048  0.1378 -0.8017 -0.0010
  141OSM   H13F15518   0.478   0.948   5.075 -0.0929 -1.4016 -0.1278
  141OSM   H13G15519   0.591   0.818   5.100  2.0654  0.2744  1.7723
  141OSM   C14F15520   0.596   0.903   4.904  0.4404 -0.3383  0.4473
  141OSM   H14F15521   0.528   0.820   4.876 -0.5021 -0.1425  2.0535
  141OSM   H14G15522   0.700   0.877   4.873  0.6444  0.4057  0.4884
  141OSM   C15F15523   0.549   1.032   4.833  0.5879  0.7845 -0.5853
  141OSM   H15F15524   0.612   1.124   4.843  0.2619  1.1094 -1.3904
  141OSM   H15G15525   0.443   1.056   4.854  0.1918  0.4932 -2.1352
  141OSM   C16F15526   0.551   1.012   4.677  0.1653  0.1763 -0.2517
  141OSM   H16F15527   0.502   0.916   4.653  1.3726 -0.9410  1.5695
  141OSM   H16G15528   0.659   1.011   4.649  0.6239  0.8212  1.3982
  141OSM   C17F15529   0.473   1.119   4.609  0.4667  0.1782 -0.0005
  141OSM   H17F15530   0.498   1.221   4.645  2.0800  0.6888 -2.3045
  141OSM   H17G15531   0.364   1.102   4.623  0.5895 -2.1372 -1.3026
  141OSM   C18F15532   0.489   1.115   4.456  0.6990  0.0033  0.2738
  141OSM   H18F15533   0.461   1.013   4.422 -1.1594 -0.0102  1.6535
  141OSM   H18G15534   0.595   1.129   4.426  1.0436 -4.3913 -1.3502
  141OSM   H18H15535   0.418   1.182   4.403  0.1238  0.9304  2.1541
  142OSM      N15536   0.111   6.733   7.085  0.0138  0.1671 -0.2280
  142OSM    C1515537   0.149   6.764   7.230 -0.1218  0.0024  0.1047
  142OSM   H15A15538   0.056   6.788   7.281 -1.3037 -0.4588 -1.7215
  142OSM   H15B15539   0.226   6.840   7.230  0.6387 -0.7580 -0.8442
  142OSM   H15C15540   0.194   6.678   7.277  1.0420  0.0400 -0.9218
  142OSM    C1415541   0.021   6.611   7.096  0.3233 -0.4369  0.0487
  142OSM   H14A15542   0.071   6.543   7.163  0.3645  0.0891  0.5649
  142OSM   H14B15543   0.014   6.550   7.007 -0.0526 -2.2167  1.2552
  142OSM   H14C15544  -0.079   6.634   7.130 -0.9030 -2.9435 -1.5621
  142OSM    C1315545   0.030   6.847   7.030 -0.7427 -0.0021 -0.2327
  142OSM   H13A15546   0.029   6.839   6.923  0.9225 -0.1169 -0.2609
  142OSM   H13B15547   0.072   6.941   7.061 -0.0436 -0.7966  1.3505
  142OSM   H13C15548  -0.068   6.835   7.074 -1.0205 -0.2004 -0.8939
  142OSM    C1215549   0.244   6.707   7.020  0.8673 -0.0262 -0.2240
  142OSM   H12A15550   0.296   6.629   7.073 -0.6286 -0.5213  0.5852
  142OSM   H12B15551   0.295   6.802   7.031 -0.4103  0.6159  0.4823
  142OSM    C1115552   0.249   6.675   6.863  0.5294 -0.0540 -0.2849
  142OSM   H11A15553   0.194   6.580   6.844 -0.9985  1.0084 -1.3306
  142OSM   H11B15554   0.346   6.647   6.816  0.4927  1.1092 -1.1016
  142OSM      P15555   0.234   6.910   6.745 -0.2701  0.2348  0.0203
  142OSM    O1315556   0.128   7.015   6.731 -0.6123  0.4242  0.0419
  142OSM    O1415557   0.337   6.940   6.841 -0.0893  0.5257  0.1028
  142OSM    O1115558   0.298   6.899   6.604 -0.6703 -0.2996 -0.2965
  142OSM    O1215559   0.174   6.767   6.776  0.2632  0.2113 -0.1665
  142OSM    C1S15560   0.415   6.841   6.567  0.0242 -0.0935 -0.7580
  142OSM    H1S15561   0.400   6.732   6.549  0.5651 -0.1526 -0.8675
  142OSM    H1T15562   0.497   6.850   6.641  2.0774 -2.0495 -2.6288
  142OSM     NF15563   0.583   6.807   6.386  0.4883  0.0084  0.2734
  142OSM    HNF15564   0.671   6.836   6.423  0.4204 -0.0416  0.4774
  142OSM    C2S15565   0.468   6.894   6.434  0.0567 -0.3085 -0.6498
  142OSM    H2S15566   0.374   6.874   6.378 -0.3621 -1.2509  0.3591
  142OSM    C3S15567   0.505   7.051   6.448 -0.0729  0.9506  0.5736
  142OSM    H3S15568   0.580   7.057   6.529 -1.3209 -2.6271  2.2104
  142OSM     O315569   0.399   7.136   6.496  0.1645  0.3517 -0.0805
  142OSM    HO315570   0.344   7.074   6.543 -0.9095  1.3382 -0.0035
  142OSM    C4S15571   0.560   7.086   6.317 -0.0286  0.8633  0.6093
  142OSM    H4S15572   0.507   7.054   6.226 -0.2687  0.0970  1.0160
  142OSM    C5S15573   0.676   7.149   6.306 -0.1787 -0.4384  0.4363
  142OSM    H5S15574   0.730   7.182   6.396 -1.6665  0.1972  1.1460
  142OSM    C6S15575   0.743   7.187   6.172  0.0652  0.1502  0.0612
  142OSM    H6S15576   0.845   7.144   6.180  0.8612  2.2374  2.3073
  142OSM    H6T15577   0.754   7.296   6.159 -2.4514  0.3755 -0.7691
  142OSM    C7S15578   0.667   7.139   6.039 -0.2876 -0.4870  0.5654
  142OSM    H7S15579   0.564   7.179   6.033 -0.2401 -0.4281  0.0514
  142OSM    H7T15580   0.670   7.028   6.041  0.0779 -0.6611 -2.7806
  142OSM    C8S15581   0.759   7.182   5.921  0.1730  0.0448 -0.0933
  142OSM    H8S15582   0.857   7.139   5.950 -0.0767 -1.0286 -0.7560
  142OSM    H8T15583   0.777   7.292   5.923 -2.2463  0.5984 -2.3584
  142OSM    C9S15584   0.723   7.141   5.785  0.3504 -0.1761 -0.1987
  142OSM    H9S15585   0.634   7.200   5.753 -1.0283 -2.0614 -0.0058
  142OSM    H9T15586   0.697   7.034   5.775  0.6009 -0.5105  2.2407
  142OSM   C10S15587   0.828   7.174   5.676  0.0178 -0.5378  0.0579
  142OSM   H10S15588   0.912   7.115   5.719  1.9330  2.2500  0.4374
  142OSM   H10T15589   0.861   7.280   5.679 -0.0670 -0.1880 -4.5751
  142OSM   C11S15590   0.772   7.138   5.532  0.0796 -0.3522 -0.1848
  142OSM   H11S15591   0.680   7.200   5.525  0.4755  0.1089 -1.7264
  142OSM   H11T15592   0.748   7.030   5.523 -1.9631  0.1169 -0.7994
  142OSM   C12S15593   0.865   7.191   5.415 -0.2743 -0.2622  0.3354
  142OSM   H12S15594   0.968   7.149   5.424 -1.2319 -2.6089  1.2798
  142OSM   H12T15595   0.863   7.302   5.410 -0.9119 -0.2833  0.1257
  142OSM   C13S15596   0.812   7.132   5.278 -0.2294  0.1802 -0.4403
  142OSM   H13S15597   0.702   7.144   5.288 -0.2137  1.0979 -1.1938
  142OSM   H13T15598   0.845   7.031   5.247 -2.0913 -0.4829 -0.3600
  142OSM   C14S15599   0.871   7.239   5.180  0.3783  0.7510  0.8098
  142OSM   H14S15600   0.982   7.251   5.182  0.5571 -0.4554 -0.1347
  142OSM   H14T15601   0.823   7.338   5.194 -4.1612 -1.2030  0.8503
  142OSM   C15S15602   0.840   7.205   5.038  0.0286 -0.1991  0.2770
  142OSM   H15S15603   0.730   7.199   5.030 -0.0090 -0.7527  1.0977
  142OSM   H15T15604   0.880   7.105   5.011 -2.0049 -1.5990  2.1239
  142OSM   C16S15605   0.900   7.306   4.936  0.1521 -0.1092 -0.4141
  142OSM   H16S15606   1.010   7.320   4.936  0.5014 -2.3214 -1.5232
  142OSM   H16T15607   0.857   7.406   4.959 -1.1756 -0.6906 -0.2792
  142OSM   C17S15608   0.864   7.269   4.792  0.2224 -0.0074  1.0063
  142OSM   H17S15609   0.757   7.240   4.805 -0.0728  1.1545  1.2519
  142OSM   H17T15610   0.920   7.178   4.761 -0.1309  0.2458 -0.4891
  142OSM   C18S15611   0.884   7.378   4.687  0.5854  0.0979 -0.7521
  142OSM   H18S15612   0.807   7.458   4.679  0.9437  0.4467 -0.7979
  142OSM   H18T15613   0.893   7.327   4.589  1.1387 -2.4077  0.5247
  142OSM   H18U15614   0.980   7.433   4.695 -1.2076  3.6759 -1.7080
  142OSM    C1F15615   0.574   6.685   6.331  0.3940 -0.0982 -0.1516
  142OSM     OF15616   0.469   6.622   6.346  0.1472  0.3057 -0.7042
  142OSM    C2F15617   0.689   6.627   6.254  0.3296  0.3028  0.0866
  142OSM    H2F15618   0.701   6.522   6.289 -0.2761  0.4041  0.6155
  142OSM    H2G15619   0.781   6.684   6.280  0.0568  1.0047 -0.4711
  142OSM    C3F15620   0.678   6.626   6.099 -0.0997  0.0197  0.5326
  142OSM    H3F15621   0.585   6.576   6.063 -0.7959 -0.0200  2.2592
  142OSM    H3G15622   0.768   6.569   6.070 -1.2719 -0.9913 -1.3449
  142OSM    C4F15623   0.687   6.758   6.029  0.3255 -0.4021  0.3157
  142OSM    H4F15624   0.775   6.817   6.061 -0.4905  0.6193  0.7399
  142OSM    H4G15625   0.605   6.828   6.058  0.6281 -0.0546  0.3354
  142OSM    C5F15626   0.719   6.765   5.872  0.1045 -0.5811 -0.4451
  142OSM    H5F15627   0.758   6.866   5.848  0.6685 -0.9851 -1.2764
  142OSM    H5G15628   0.622   6.757   5.818 -1.0203  0.5558  1.3085
  142OSM    C6F15629   0.818   6.657   5.820 -0.4599 -0.5720  0.7191
  142OSM    H6F15630   0.759   6.563   5.812  0.1699 -0.9493  0.3697
  142OSM    H6G15631   0.907   6.624   5.879  0.1024  2.4348  1.7343
  142OSM    C7F15632   0.872   6.691   5.671  0.3958  0.5009 -0.1410
  142OSM    H7F15633   0.961   6.627   5.650  1.4477  1.0368  2.2934
  142OSM    H7G15634   0.909   6.795   5.686  0.5895  0.3638  0.3455
  142OSM    C8F15635   0.758   6.678   5.572 -0.3778 -0.6252  0.3135
  142OSM    H8F15636   0.686   6.757   5.604  0.8854  0.5009  0.4944
  142OSM    H8G15637   0.701   6.583   5.566  0.5409 -1.2142  0.6835
  142OSM    C9F15638   0.801   6.718   5.432 -0.4852  0.2702  0.4616
  142OSM    H9F15639   0.910   6.730   5.427 -0.3667 -0.7621  0.4327
  142OSM   C10F15640   0.719   6.756   5.330 -0.3298  0.0407 -0.1462
  142OSM   H10F15641   0.759   6.774   5.230  0.0923 -2.9387 -0.5873
  142OSM   C11F15642   0.573   6.757   5.327  0.4909 -0.3122 -0.2013
  142OSM   H11F15643   0.524   6.707   5.414 -2.4176  1.2162 -0.8296
  142OSM   H11G15644   0.541   6.698   5.238 -0.9471  2.4922 -1.6703
  142OSM   C12F15645   0.504   6.897   5.310 -0.6025  0.6414 -0.1669
  142OSM   H12F15646   0.558   6.955   5.388  2.0735 -1.7249 -0.1016
  142OSM   H12G15647   0.396   6.902   5.337 -0.5969  0.7952 -0.1698
  142OSM   C13F15648   0.517   6.961   5.169 -0.2790  0.4015  1.2830
  142OSM   H13F15649   0.625   6.960   5.145  0.1298  0.1471  2.9704
  142OSM   H13G15650   0.494   7.070   5.163 -0.0476  0.3942  0.0922
  142OSM   C14F15651   0.436   6.881   5.066 -0.4105 -0.4594 -0.1539
  142OSM   H14F15652   0.334   6.862   5.103 -0.5632 -0.8792 -0.7751
  142OSM   H14G15653   0.480   6.780   5.049  2.4552  0.7355 -0.5544
  142OSM   C15F15654   0.420   6.949   4.932  0.0887 -0.2180  0.7929
  142OSM   H15F15655   0.520   6.968   4.886 -0.9370  1.0244 -1.0538
  142OSM   H15G15656   0.372   7.048   4.943  1.0403  0.2491  0.8907
  142OSM   C16F15657   0.345   6.861   4.830 -0.1284 -0.3885 -0.2721
  142OSM   H16F15658   0.241   6.836   4.858  0.4956 -1.1064  1.6001
  142OSM   H16G15659   0.389   6.762   4.805  1.6370  0.2250  0.1786
  142OSM   C17F15660   0.332   6.934   4.701  0.2366 -0.7963 -0.8969
  142OSM   H17F15661   0.437   6.956   4.669 -0.0817 -2.1081 -2.9745
  142OSM   H17G15662   0.277   7.026   4.731  2.5304  0.9330 -1.6634
  142OSM   C18F15663   0.253   6.864   4.591 -0.7227  0.1422  0.2415
  142OSM   H18F15664   0.149   6.843   4.622 -0.6867 -1.3156 -0.5584
  142OSM   H18G15665   0.306   6.767   4.584  0.9533  0.9633  1.0238
  142OSM   H18H15666   0.252   6.914   4.492 -2.3997 -1.8481 -0.8262
  143OSM      N15667   1.180   3.096   6.623 -0.3638  0.0987 -0.1342
  143OSM    C1515668   1.219   3.174   6.503  0.0338  0.2251 -0.4169
  143OSM   H15A15669   1.317   3.137   6.477 -0.9394 -2.7728 -0.2424
  143OSM   H15B15670   1.223   3.280   6.521 -1.3403  0.2583 -0.1549
  143OSM   H15C15671   1.149   3.149   6.424 -2.4802  2.3119  0.9934
  143OSM    C1415672   1.208   2.947   6.600 -0.0031 -0.0334  0.0789
  143OSM   H14A15673   1.162   2.891   6.680 -1.9093  0.4806 -0.6034
  143OSM   H14B15674   1.313   2.921   6.589  0.1137  0.4303  0.0788
  143OSM   H14C15675   1.149   2.910   6.517  0.5539 -0.6125 -0.0692
  143OSM    C1315676   1.260   3.146   6.732  0.6237  0.0272 -0.0296
  143OSM   H13A15677   1.231   3.247   6.756  1.3740  0.0818  0.6684
  143OSM   H13B15678   1.366   3.144   6.711  0.9032  2.8271  0.7760
  143OSM   H13C15679   1.230   3.094   6.821 -2.3693 -0.9530 -1.4505
  143OSM    C1215680   1.042   3.113   6.662 -0.4672 -0.5748  0.0301
  143OSM   H12A15681   1.031   3.066   6.758 -2.2467 -1.0999 -0.3870
  143OSM   H12B15682   0.984   3.048   6.598 -0.3316 -0.7787  0.1137
  143OSM    C1115683   0.984   3.252   6.664  0.1003 -0.0173  0.8209
  143OSM   H11A15684   0.883   3.234   6.706 -0.8291  1.5498 -0.5987
  143OSM   H11B15685   0.981   3.296   6.562  1.3680  2.1180  1.6186
  143OSM      P15686   1.029   3.477   6.798  0.1895  0.1374  0.1316
  143OSM    O1315687   0.910   3.488   6.889 -0.8807  0.2441 -0.1578
  143OSM    O1415688   1.156   3.530   6.846 -0.0053 -0.4486 -0.2804
  143OSM    O1115689   0.994   3.544   6.656  0.1112  0.2390  0.0088
  143OSM    O1215690   1.049   3.326   6.763 -0.4483 -0.3422  0.0156
  143OSM    C1S15691   1.086   3.634   6.591 -0.4405 -0.1877  0.1700
  143OSM    H1S15692   1.183   3.581   6.574 -0.8927 -0.3615 -2.2952
  143OSM    H1T15693   1.101   3.730   6.644  1.2656 -0.8177  0.8952
  143OSM     NF15694   1.139   3.756   6.375  0.1911  0.0227 -0.1426
  143OSM    HNF15695   1.119   3.848   6.341  0.4654  0.2720  0.3610
  143OSM    C2S15696   1.043   3.675   6.441  0.3723 -0.3179  0.1727
  143OSM    H2S15697   1.040   3.583   6.378 -1.7816 -0.6255  0.6663
  143OSM    C3S15698   0.899   3.726   6.438  0.2614  0.0744  0.4481
  143OSM    H3S15699   0.893   3.819   6.498  1.3136 -0.2323  1.0403
  143OSM     O315700   0.803   3.642   6.507  0.1791  0.0430  0.4967
  143OSM    HO315701   0.860   3.579   6.551  1.0079  2.5691  3.4152
  143OSM    C4S15702   0.853   3.755   6.292  0.7506  0.1570  0.0718
  143OSM    H4S15703   0.849   3.861   6.264  0.1221  0.1647  0.1771
  143OSM    C5S15704   0.828   3.660   6.194 -0.2252  0.4337 -0.4937
  143OSM    H5S15705   0.832   3.554   6.225 -3.4687  0.9423  2.3414
  143OSM    C6S15706   0.773   3.689   6.055  0.4701 -0.0260 -0.2431
  143OSM    H6S15707   0.670   3.649   6.050 -0.3294  2.0540 -2.1157
  143OSM    H6T15708   0.828   3.627   5.982  0.2825 -0.4251 -0.0503
  143OSM    C7S15709   0.784   3.834   6.016  0.4010  0.0854 -0.1750
  143OSM    H7S15710   0.894   3.849   6.014  0.4388 -0.1731 -0.1392
  143OSM    H7T15711   0.733   3.902   6.087 -3.0927 -2.6116  0.2161
  143OSM    C8S15712   0.719   3.862   5.883  0.0471  0.3748  0.6867
  143OSM    H8S15713   0.765   3.793   5.809 -1.5833 -2.0664  1.7997
  143OSM    H8T15714   0.738   3.966   5.848 -0.2578  0.0508 -0.5164
  143OSM    C9S15715   0.571   3.843   5.864  0.1855  0.2128  0.6904
  143OSM    H9S15716   0.521   3.881   5.957 -1.2155  2.4202 -0.8598
  143OSM    H9T15717   0.545   3.735   5.861 -0.5529  0.3473  1.5882
  143OSM   C10S15718   0.500   3.921   5.745  0.1921  0.3842 -0.2418
  143OSM   H10S15719   0.563   4.012   5.741  2.6981 -1.2095  0.2065
  143OSM   H10T15720   0.395   3.940   5.777 -0.1174 -0.8935 -0.4148
  143OSM   C11S15721   0.518   3.835   5.621  0.9907 -0.0055  0.1598
  143OSM   H11S15722   0.447   3.750   5.632 -0.6555  1.2170 -0.6066
  143OSM   H11T15723   0.619   3.788   5.615 -0.0418 -2.4213  0.6455
  143OSM   C12S15724   0.475   3.903   5.485 -0.3193  1.1287 -0.8498
  143OSM   H12S15725   0.493   3.836   5.398  0.9376  0.3211  0.0095
  143OSM   H12T15726   0.548   3.985   5.467  0.1084  0.9298 -0.0343
  143OSM   C13S15727   0.332   3.960   5.457  0.1169  0.2200 -0.4409
  143OSM   H13S15728   0.292   4.022   5.540  0.6245  0.3930 -0.3225
  143OSM   H13T15729   0.271   3.869   5.438  1.9366 -1.4220  1.1859
  143OSM   C14S15730   0.336   4.070   5.348 -0.6290  0.5875 -0.3356
  143OSM   H14S15731   0.228   4.086   5.326 -1.8979 -2.2396  2.9847
  143OSM   H14T15732   0.388   4.029   5.258 -1.2015 -3.0254  0.8345
  143OSM   C15S15733   0.399   4.204   5.391 -0.1922 -0.3697 -0.6882
  143OSM   H15S15734   0.505   4.190   5.421 -0.7903 -2.2018  0.7030
  143OSM   H15T15735   0.333   4.227   5.478 -0.4825  0.0555 -1.0106
  143OSM   C16S15736   0.402   4.318   5.287  0.4157 -0.2778  0.3270
  143OSM   H16S15737   0.302   4.315   5.239  1.1212  1.7933 -1.4231
  143OSM   H16T15738   0.472   4.274   5.212  0.8549 -1.9960  1.6963
  143OSM   C17S15739   0.441   4.455   5.343  1.1594 -0.6104  0.1572
  143OSM   H17S15740   0.545   4.449   5.382  1.1651  1.1102  0.4638
  143OSM   H17T15741   0.376   4.476   5.431  0.0060 -0.3296 -0.7482
  143OSM   C18S15742   0.412   4.566   5.242 -0.5644  0.2872 -0.4361
  143OSM   H18S15743   0.483   4.547   5.158 -2.3505 -0.4284 -1.8430
  143OSM   H18T15744   0.430   4.666   5.286  0.1476  1.3887 -3.0834
  143OSM   H18U15745   0.309   4.552   5.204 -0.4476 -3.1217  0.1259
  143OSM    C1F15746   1.260   3.707   6.342 -0.6112  0.1207  0.0798
  143OSM     OF15747   1.287   3.589   6.362  0.1235 -0.2956  0.2589
  143OSM    C2F15748   1.358   3.806   6.292  0.6324 -0.3881  0.2589
  143OSM    H2F15749   1.401   3.855   6.381 -0.2198  0.2048  0.3527
  143OSM    H2G15750   1.304   3.876   6.225 -2.2043 -0.4234  2.3359
  143OSM    C3F15751   1.475   3.743   6.217  0.5579  0.4606 -0.2725
  143OSM    H3F15752   1.524   3.659   6.269 -0.0430  1.9675  3.0358
  143OSM    H3G15753   1.560   3.813   6.231  1.4866 -1.0676  2.6490
  143OSM    C4F15754   1.445   3.719   6.066  0.2726 -0.6089 -0.5183
  143OSM    H4F15755   1.543   3.704   6.016 -0.8794  0.5079 -3.3527
  143OSM    H4G15756   1.407   3.817   6.031  0.5452 -0.6508 -0.9370
  143OSM    C5F15757   1.344   3.611   6.036  0.5352 -0.6148  0.0202
  143OSM    H5F15758   1.246   3.659   6.057  0.4725 -0.0135 -1.5006
  143OSM    H5G15759   1.355   3.522   6.102  0.0109  0.6044  1.8112
  143OSM    C6F15760   1.348   3.575   5.885  0.2021  0.0891 -0.4546
  143OSM    H6F15761   1.442   3.516   5.877  0.1643 -0.1877  0.8883
  143OSM    H6G15762   1.365   3.665   5.823 -0.3264 -0.1143 -0.9083
  143OSM    C7F15763   1.230   3.483   5.852  1.1885 -0.1779  0.2167
  143OSM    H7F15764   1.224   3.396   5.922  0.4891 -2.3204 -2.3330
  143OSM    H7G15765   1.256   3.446   5.751 -0.9978 -2.6595  0.4360
  143OSM    C8F15766   1.095   3.556   5.856  0.4837 -0.3764  0.7014
  143OSM    H8F15767   1.071   3.598   5.956  0.8863  0.2388  0.5456
  143OSM    H8G15768   1.019   3.478   5.832  0.5155 -0.3144  0.4011
  143OSM    C9F15769   1.097   3.657   5.744  0.0808 -0.2515 -0.0795
  143OSM    H9F15770   1.154   3.750   5.756  1.6005 -1.2185  0.3815
  143OSM   C10F15771   1.012   3.658   5.632  0.4931 -0.0402 -0.3469
  143OSM   H10F15772   1.023   3.739   5.558  2.0215 -0.0298 -0.1350
  143OSM   C11F15773   0.911   3.559   5.594  0.1085 -0.7376  0.5715
  143OSM   H11F15774   0.820   3.602   5.547  1.1737  0.3745 -0.5734
  143OSM   H11G15775   0.871   3.507   5.683  1.9862  0.6492  2.3136
  143OSM   C12F15776   0.965   3.448   5.498 -0.0893  0.2549  0.0032
  143OSM   H12F15777   0.894   3.364   5.481  1.3925 -1.1284  0.3458
  143OSM   H12G15778   1.047   3.392   5.549 -0.0832 -0.0255 -0.3145
  143OSM   C13F15779   1.026   3.492   5.360 -0.5012  0.4005 -0.0915
  143OSM   H13F15780   1.097   3.576   5.376 -0.1347  0.0169  0.2999
  143OSM   H13G15781   0.949   3.543   5.298 -0.6384 -0.0292 -0.2780
  143OSM   C14F15782   1.099   3.378   5.275 -0.3078 -0.7321  0.6226
  143OSM   H14F15783   1.157   3.418   5.188 -2.1612 -0.2537 -0.4350
  143OSM   H14G15784   1.018   3.306   5.252  1.1345 -1.9381 -0.9927
  143OSM   C15F15785   1.205   3.296   5.350 -0.6044  1.2111  0.5605
  143OSM   H15F15786   1.155   3.218   5.412  1.0246 -0.2656  0.0979
  143OSM   H15G15787   1.266   3.369   5.408 -1.6574  1.1724  1.7544
  143OSM   C16F15788   1.300   3.215   5.260  0.9651 -0.2246  0.3585
  143OSM   H16F15789   1.335   3.129   5.321  0.7950 -1.1492 -0.8005
  143OSM   H16G15790   1.390   3.270   5.226  0.7336  0.4334  0.8042
  143OSM   C17F15791   1.239   3.149   5.136  0.3212 -0.0598 -0.0107
  143OSM   H17F15792   1.195   3.230   5.073 -1.1284 -0.8742 -0.0701
  143OSM   H17G15793   1.152   3.084   5.158 -1.3536  2.2772  0.6516
  143OSM   C18F15794   1.340   3.070   5.049  0.9697  0.8063  0.1755
  143OSM   H18F15795   1.292   3.065   4.949  0.7014  3.7061  0.0835
  143OSM   H18G15796   1.355   2.970   5.097 -0.5714  0.3967 -0.1386
  143OSM   H18H15797   1.436   3.124   5.044  0.4354  1.7131 -4.4371
  144OSM      N15798   0.771   2.834   7.099  0.4144 -0.4690  0.5119
  144OSM    C1515799   0.728   2.978   7.069 -0.6612 -0.0356  0.7709
  144OSM   H15A15800   0.801   3.028   7.007 -0.5042 -0.5495  0.5367
  144OSM   H15B15801   0.709   3.038   7.157  0.4895 -1.5744  2.1520
  144OSM   H15C15802   0.634   2.970   7.017 -0.3419 -0.9056  0.3095
  144OSM    C1415803   0.884   2.838   7.195 -0.1443 -0.1217 -0.2374
  144OSM   H14A15804   0.900   2.738   7.232 -1.9448  0.1186  1.3741
  144OSM   H14B15805   0.860   2.892   7.285  2.0456  0.0643  0.2709
  144OSM   H14C15806   0.970   2.878   7.144  1.9829 -2.4093  1.3163
  144OSM    C1315807   0.661   2.768   7.179 -0.9903  0.2330 -0.1971
  144OSM   H13A15808   0.567   2.781   7.127 -0.7329  2.2131 -0.2418
  144OSM   H13B15809   0.651   2.813   7.276  2.5237 -0.3936  0.5894
  144OSM   H13C15810   0.664   2.660   7.182 -0.9683  0.1298 -2.2746
  144OSM    C1215811   0.800   2.757   6.970 -0.4583  0.0310 -0.5108
  144OSM   H12A15812   0.710   2.743   6.912 -0.3463 -1.3327 -0.4019
  144OSM   H12B15813   0.828   2.661   7.011  0.4434  0.5790  0.2009
  144OSM    C1115814   0.904   2.815   6.872  0.2871 -0.2322 -0.1049
  144OSM   H11A15815   1.001   2.823   6.926  0.1411  2.8710 -0.1119
  144OSM   H11B15816   0.883   2.923   6.853  0.9092  0.1624  1.3332
  144OSM      P15817   1.001   2.613   6.743  0.2053 -0.0450 -0.0246
  144OSM    O1315818   1.141   2.659   6.762 -0.2310 -0.1305  0.2901
  144OSM    O1415819   0.951   2.501   6.826 -0.7659  0.5594  0.1226
  144OSM    O1115820   0.983   2.576   6.595 -0.1101  0.4262 -0.7324
  144OSM    O1215821   0.907   2.744   6.751 -0.8947  0.0766  0.1079
  144OSM    C1S15822   0.951   2.668   6.482 -0.7618  1.2050 -0.6906
  144OSM    H1S15823   1.028   2.748   6.491  1.2946 -0.7908  0.4147
  144OSM    H1T15824   0.852   2.719   6.485 -1.0122  0.8818 -2.6244
  144OSM     NF15825   0.991   2.704   6.242  0.5064  0.6238  0.8224
  144OSM    HNF15826   0.911   2.718   6.183  0.6930 -0.4904  0.2777
  144OSM    C2S15827   0.981   2.599   6.347  0.2038 -0.4589 -0.2369
  144OSM    H2S15828   1.079   2.547   6.359  0.2348 -0.1301  1.1738
  144OSM    C3S15829   0.874   2.494   6.318 -0.3418 -0.2024  0.3340
  144OSM    H3S15830   0.780   2.550   6.299  0.7553  1.4994 -0.3266
  144OSM     O315831   0.851   2.398   6.419  0.2563 -0.1023 -0.4902
  144OSM    HO315832   0.904   2.420   6.495 -2.2296  0.3327  1.2317
  144OSM    C4S15833   0.897   2.421   6.185  0.0101  0.3172 -0.4051
  144OSM    H4S15834   0.966   2.336   6.192  4.8619  3.6754 -2.0002
  144OSM    C5S15835   0.832   2.438   6.070  0.2347  0.4719 -0.1704
  144OSM    H5S15836   0.742   2.501   6.061 -0.7358 -1.1249 -2.8231
  144OSM    C6S15837   0.857   2.361   5.942  0.1922  0.2091 -0.5032
  144OSM    H6S15838   0.816   2.259   5.953  2.0147 -0.3006  2.8337
  144OSM    H6T15839   0.966   2.352   5.924  0.0983 -1.9417 -0.2057
  144OSM    C7S15840   0.794   2.434   5.823  1.2827 -0.4903  0.4866
  144OSM    H7S15841   0.830   2.539   5.814  1.9238 -0.6379  1.2277
  144OSM    H7T15842   0.685   2.454   5.838  1.7644  1.4223  1.9240
  144OSM    C8S15843   0.814   2.358   5.694 -0.5241  0.2346  0.5875
  144OSM    H8S15844   0.768   2.258   5.708  1.0557 -0.8093 -1.1249
  144OSM    H8T15845   0.924   2.348   5.679 -0.3284  2.4006  0.2484
  144OSM    C9S15846   0.750   2.436   5.571  0.3618  0.0193 -0.7609
  144OSM    H9S15847   0.797   2.536   5.560  1.1236 -0.1063  1.0713
  144OSM    H9T15848   0.640   2.449   5.584  0.3169  0.1747 -1.2589
  144OSM   C10S15849   0.781   2.361   5.445  0.2365  0.0485 -0.2127
  144OSM   H10S15850   0.757   2.254   5.461  1.5493 -0.0323  1.5680
  144OSM   H10T15851   0.889   2.376   5.425  0.5050 -2.8238 -1.4566
  144OSM   C11S15852   0.700   2.406   5.323 -0.7072 -0.3028 -0.2749
  144OSM   H11S15853   0.706   2.516   5.310  1.6057 -0.1580  1.3979
  144OSM   H11T15854   0.594   2.385   5.353 -0.8264 -0.5876 -0.8871
  144OSM   C12S15855   0.745   2.341   5.189 -0.6671 -0.1877 -0.3456
  144OSM   H12S15856   0.780   2.236   5.177  0.6575 -0.0151  1.4966
  144OSM   H12T15857   0.841   2.392   5.164 -1.1470  1.3460  0.8063
  144OSM   C13S15858   0.645   2.385   5.074 -0.3203  0.5634 -0.6841
  144OSM   H13S15859   0.627   2.495   5.074 -0.6033  0.5413  0.9242
  144OSM   H13T15860   0.544   2.353   5.108 -0.7420 -0.6418 -2.8926
  144OSM   C14S15861   0.683   2.335   4.935  1.3625  0.9004  0.7486
  144OSM   H14S15862   0.703   2.227   4.921 -0.9606  0.5834 -0.7379
  144OSM   H14T15863   0.776   2.391   4.914  1.1512  0.4398 -1.6824
  144OSM   C15S15864   0.563   2.364   4.848 -0.4712  0.0974 -0.0314
  144OSM   H15S15865   0.520   2.459   4.887 -0.8014 -0.7929  1.8794
  144OSM   H15T15866   0.479   2.293   4.862  0.7453 -1.0929  1.6452
  144OSM   C16S15867   0.605   2.374   4.699  0.0493  0.8821  0.0959
  144OSM   H16S15868   0.628   2.271   4.666  1.9578  0.7030  1.8556
  144OSM   H16T15869   0.697   2.435   4.713  1.1082 -0.3433 -1.2620
  144OSM   C17S15870   0.519   2.464   4.609 -0.1180 -0.0874 -0.4545
  144OSM   H17S15871   0.508   2.561   4.663  0.7524 -0.4300  0.3771
  144OSM   H17T15872   0.424   2.411   4.592 -1.2684  2.0098 -0.9533
  144OSM   C18S15873   0.586   2.488   4.472 -0.4798  0.3595 -0.6037
  144OSM   H18S15874   0.525   2.568   4.425  0.4520  0.5474 -1.5552
  144OSM   H18T15875   0.585   2.406   4.397  0.7255 -0.4482  0.2161
  144OSM   H18U15876   0.686   2.536   4.478  0.2837 -1.0604 -1.4604
  144OSM    C1F15877   1.092   2.794   6.239 -0.3394  0.1107  0.6051
  144OSM     OF15878   1.189   2.789   6.311 -0.2701 -0.0360 -0.0207
  144OSM    C2F15879   1.087   2.906   6.135 -0.5042  0.1566 -0.1857
  144OSM    H2F15880   1.002   2.973   6.159  0.3143  1.7897 -1.5875
  144OSM    H2G15881   1.065   2.854   6.039 -0.9581  0.8332 -0.4553
  144OSM    C3F15882   1.210   2.991   6.142 -0.4109 -0.2066 -0.2663
  144OSM    H3F15883   1.300   2.929   6.119 -1.4745 -1.8027 -0.2483
  144OSM    H3G15884   1.224   3.027   6.246 -0.6531 -0.3444 -0.1865
  144OSM    C4F15885   1.207   3.115   6.042 -0.0196  0.7639 -0.0279
  144OSM    H4F15886   1.281   3.190   6.077  0.3019  1.3222 -1.7840
  144OSM    H4G15887   1.117   3.175   6.066  1.9225  3.0768  2.0182
  144OSM    C5F15888   1.231   3.065   5.898 -0.0176 -0.4126 -0.4287
  144OSM    H5F15889   1.226   3.147   5.823  1.7299 -1.1474 -1.4085
  144OSM    H5G15890   1.158   2.985   5.873  0.1348 -1.3449  1.8930
  144OSM    C6F15891   1.367   3.010   5.874 -0.7152  0.2474 -0.3016
  144OSM    H6F15892   1.400   2.916   5.922  0.6458  1.5242  1.4350
  144OSM    H6G15893   1.440   3.081   5.920 -1.1007 -0.3646  1.3098
  144OSM    C7F15894   1.388   3.009   5.719 -0.6745  0.4597  0.0213
  144OSM    H7F15895   1.399   3.115   5.688  0.0302  1.6701  3.8444
  144OSM    H7G15896   1.294   2.981   5.667 -0.1771 -0.5718 -0.3462
  144OSM    C8F15897   1.507   2.928   5.668  0.0473  0.3324  0.1563
  144OSM    H8F15898   1.606   2.961   5.705  0.5765  2.4498 -2.7600
  144OSM    H8G15899   1.516   2.956   5.561 -0.0872 -0.0296  0.0515
  144OSM    C9F15900   1.499   2.783   5.698 -0.2328 -0.6023 -0.0685
  144OSM    H9F15901   1.438   2.743   5.781 -0.5912 -0.8594 -0.4542
  144OSM   C10F15902   1.561   2.687   5.629 -0.3887  0.1804  0.4473
  144OSM   H10F15903   1.535   2.586   5.661  2.5448 -0.8719 -0.1264
  144OSM   C11F15904   1.653   2.687   5.508 -0.3307  0.4053  0.6256
  144OSM   H11F15905   1.754   2.647   5.532 -0.1711  0.4325  0.0163
  144OSM   H11G15906   1.670   2.791   5.475 -0.6847 -0.2975 -1.9850
  144OSM   C12F15907   1.589   2.614   5.393  0.5675 -0.2637 -0.5263
  144OSM   H12F15908   1.481   2.638   5.377  0.4594 -0.6546 -0.3974
  144OSM   H12G15909   1.597   2.503   5.394  2.8941 -0.1631 -1.3616
  144OSM   C13F15910   1.655   2.643   5.264 -0.0927  0.1226  0.4455
  144OSM   H13F15911   1.765   2.637   5.279  0.3821 -0.1391 -2.5290
  144OSM   H13G15912   1.628   2.744   5.228 -1.7808 -0.7626 -0.9160
  144OSM   C14F15913   1.627   2.558   5.146 -0.2558 -0.2605  0.0377
  144OSM   H14F15914   1.517   2.563   5.131 -0.3554  0.0651  0.8190
  144OSM   H14G15915   1.668   2.455   5.161  1.2134 -0.2746 -3.2505
  144OSM   C15F15916   1.693   2.607   5.016 -0.1268 -0.2727 -0.3417
  144OSM   H15F15917   1.801   2.584   5.020  0.1316  1.0537  2.1055
  144OSM   H15G15918   1.691   2.717   5.001  1.1206 -0.0128  1.1536
  144OSM   C16F15919   1.620   2.549   4.897 -0.7276  0.2584 -0.6721
  144OSM   H16F15920   1.510   2.560   4.912 -0.5358 -0.7440  2.0626
  144OSM   H16G15921   1.641   2.441   4.879  1.8132  1.0636 -3.2578
  144OSM   C17F15922   1.651   2.615   4.764  0.8819  0.4986  0.1045
  144OSM   H17F15923   1.623   2.722   4.760 -2.5007 -0.3084 -0.2328
  144OSM   H17G15924   1.581   2.581   4.685 -0.8215  0.6760  1.4882
  144OSM   C18F15925   1.797   2.608   4.709 -0.7307 -0.6279 -0.1457
  144OSM   H18F15926   1.867   2.640   4.790 -2.3436 -0.7837  1.3900
  144OSM   H18G15927   1.828   2.665   4.620  2.6586 -1.0450  0.6242
  144OSM   H18H15928   1.823   2.501   4.697 -2.1368 -1.1689  1.2697
  145OSM      N15929   2.211   4.629   6.545  0.5512  0.0277  0.0519
  145OSM    C1515930   2.233   4.483   6.563  0.0492  0.0109  0.3404
  145OSM   H15A15931   2.333   4.444   6.549 -0.5239 -1.5486  0.3548
  145OSM   H15B15932   2.164   4.429   6.501  2.5018 -0.8786 -1.8073
  145OSM   H15C15933   2.205   4.450   6.662  0.3497 -1.5267 -0.0623
  145OSM    C1415934   2.064   4.653   6.565 -0.1944 -0.1550 -0.1284
  145OSM   H14A15935   2.025   4.635   6.665  0.7670  1.3016  0.5435
  145OSM   H14B15936   2.009   4.592   6.495 -0.0653 -0.1729 -0.2137
  145OSM   H14C15937   2.039   4.756   6.546  0.6499  0.2915  1.0134
  145OSM    C1315938   2.279   4.699   6.657 -0.2282  0.1623  0.5619
  145OSM   H13A15939   2.383   4.671   6.650  0.0591  1.5497 -1.9852
  145OSM   H13B15940   2.245   4.650   6.747 -1.1784  0.3976  0.3464
  145OSM   H13C15941   2.278   4.807   6.654  0.8203  0.2278  1.7545
  145OSM    C1215942   2.273   4.660   6.411  0.5859 -0.9977  0.3789
  145OSM   H12A15943   2.222   4.618   6.325 -0.1095  3.6111 -1.7885
  145OSM   H12B15944   2.376   4.628   6.415  0.4660 -1.3324  0.9461
  145OSM    C1115945   2.266   4.811   6.377 -0.0967  0.1611 -0.3160
  145OSM   H11A15946   2.156   4.828   6.371  0.0480  1.8373  1.0752
  145OSM   H11B15947   2.308   4.831   6.276  1.1631 -1.7912 -0.2294
  145OSM      P15948   2.243   5.028   6.502 -0.0697  0.0230  0.0644
  145OSM    O1315949   2.119   4.999   6.572  0.2062  0.1937 -0.4186
  145OSM    O1415950   2.339   5.124   6.566  0.5682  0.0957 -0.0756
  145OSM    O1115951   2.212   5.084   6.360 -0.1510 -0.4576  0.2581
  145OSM    O1215952   2.327   4.895   6.470  0.4874 -0.0646 -0.5847
  145OSM    C1S15953   2.103   5.187   6.351 -0.4538 -0.0963 -0.6965
  145OSM    H1S15954   2.136   5.281   6.399 -0.2782 -0.1875 -0.6391
  145OSM    H1T15955   2.003   5.145   6.378 -1.1921  0.0378 -3.0004
  145OSM     NF15956   2.001   5.359   6.190  0.1917  0.1507 -0.3947
  145OSM    HNF15957   1.906   5.345   6.215  0.3957  0.8256  0.8320
  145OSM    C2S15958   2.074   5.230   6.204  0.3254  0.2026  0.5886
  145OSM    H2S15959   2.176   5.242   6.162 -0.2690 -1.0668 -1.3562
  145OSM    C3S15960   2.025   5.111   6.124  0.7341  0.4083 -0.1726
  145OSM    H3S15961   1.923   5.080   6.156  0.1600  1.8090 -0.5401
  145OSM     O315962   2.113   4.997   6.145  0.2598 -0.1946 -0.3809
  145OSM    HO315963   2.167   5.011   6.223  0.6283  0.3364 -0.7314
  145OSM    C4S15964   2.018   5.139   5.979 -0.1052  0.1498  0.9836
  145OSM    H4S15965   1.916   5.126   5.941 -0.0878 -0.7752  1.2248
  145OSM    C5S15966   2.118   5.174   5.893  0.1248 -0.2102 -0.1729
  145OSM    H5S15967   2.219   5.190   5.934 -0.1185 -1.4744  1.0091
  145OSM    C6S15968   2.103   5.187   5.741  0.0463 -0.4260 -0.4349
  145OSM    H6S15969   2.001   5.151   5.715 -0.5180  0.4705  0.4687
  145OSM    H6T15970   2.172   5.118   5.689 -0.8629 -1.4618 -0.3109
  145OSM    C7S15971   2.135   5.330   5.681  0.1027 -0.3871  0.3030
  145OSM    H7S15972   2.244   5.348   5.672 -0.0516  1.2812  1.3820
  145OSM    H7T15973   2.094   5.415   5.740  0.0078 -0.3655  0.2073
  145OSM    C8S15974   2.078   5.331   5.539 -0.2319  0.4850  0.4153
  145OSM    H8S15975   1.968   5.319   5.553  0.0527  0.0481  2.7343
  145OSM    H8T15976   2.110   5.236   5.491 -0.2575  0.7586 -0.1445
  145OSM    C9S15977   2.112   5.453   5.456  0.4303  0.8254  0.4723
  145OSM    H9S15978   2.223   5.453   5.460  0.4212  0.4730  0.8435
  145OSM    H9T15979   2.075   5.540   5.515 -0.4581  0.4214  0.5234
  145OSM   C10S15980   2.067   5.448   5.313 -0.6650 -0.1777 -0.2113
  145OSM   H10S15981   1.956   5.456   5.310 -0.5696  2.1102  0.0106
  145OSM   H10T15982   2.108   5.354   5.271  1.6158 -0.1943  1.8123
  145OSM   C11S15983   2.119   5.569   5.234  0.5354 -0.5200 -0.3640
  145OSM   H11S15984   2.229   5.580   5.241  0.4153 -0.1385  1.4110
  145OSM   H11T15985   2.085   5.666   5.277  1.4300 -0.7616  0.9313
  145OSM   C12S15986   2.074   5.562   5.090 -0.2823 -0.5154 -0.2646
  145OSM   H12S15987   1.964   5.557   5.096 -0.3400 -0.1445 -0.9278
  145OSM   H12T15988   2.095   5.465   5.039  1.3082  0.5202 -1.7092
  145OSM   C13S15989   2.107   5.684   4.999 -0.4446  0.3137  0.1091
  145OSM   H13S15990   2.210   5.687   4.959 -1.3041 -0.6885 -2.3886
  145OSM   H13T15991   2.101   5.772   5.067 -0.5114  1.1138 -0.9089
  145OSM   C14S15992   2.010   5.712   4.878 -1.0090 -0.0591 -0.2819
  145OSM   H14S15993   1.906   5.685   4.905 -1.5313  1.5302 -0.5704
  145OSM   H14T15994   2.050   5.656   4.791  1.3254  1.1051 -0.0476
  145OSM   C15S15995   2.003   5.867   4.855  0.2415 -0.7357 -1.2862
  145OSM   H15S15996   2.109   5.901   4.859 -0.2969  1.0656 -1.1820
  145OSM   H15T15997   1.947   5.902   4.944  1.1931 -0.5513 -0.7374
  145OSM   C16S15998   1.906   5.919   4.745  0.1379  0.5372  0.4586
  145OSM   H16S15999   1.946   5.862   4.658  2.1941  0.6271  1.2740
  145OSM   H16T16000   1.920   6.026   4.720  1.9199  0.0604 -0.8247
  145OSM   C17S16001   1.758   5.881   4.754 -0.5251  0.1218 -0.2519
  145OSM   H17S16002   1.711   5.959   4.817  0.0780 -0.3431  0.8051
  145OSM   H17T16003   1.740   5.785   4.809  1.6548  0.8897  1.9912
  145OSM   C18S16004   1.697   5.874   4.614  0.1962  0.2044 -0.7850
  145OSM   H18S16005   1.593   5.836   4.615  0.1217  0.4191 -0.4125
  145OSM   H18T16006   1.748   5.805   4.544 -0.7345 -1.0651 -0.2433
  145OSM   H18U16007   1.687   5.979   4.577 -3.6051 -0.4484 -2.0689
  145OSM    C1F16008   2.059   5.472   6.206  0.4369 -0.8413 -0.3818
  145OSM     OF16009   2.178   5.488   6.234  0.6650  0.2584 -0.2941
  145OSM    C2F16010   1.971   5.592   6.209 -0.1025  0.2404 -0.2745
  145OSM    H2F16011   1.976   5.647   6.305  0.1670  2.4844 -1.4958
  145OSM    H2G16012   1.866   5.558   6.196 -0.3070  1.0715 -0.8970
  145OSM    C3F16013   2.016   5.674   6.089 -0.5234 -0.9131 -0.2528
  145OSM    H3F16014   2.122   5.678   6.058 -0.6129  2.4482 -0.4350
  145OSM    H3G16015   1.984   5.779   6.106 -1.1895 -1.1252 -0.1716
  145OSM    C4F16016   1.942   5.628   5.955 -0.1951 -0.3583  0.2541
  145OSM    H4F16017   1.835   5.617   5.984  0.2735 -0.8883  1.8349
  145OSM    H4G16018   1.977   5.529   5.920 -2.9995 -1.2656 -0.2486
  145OSM    C5F16019   1.956   5.736   5.853 -0.2757  0.2036  0.4469
  145OSM    H5F16020   2.063   5.740   5.824 -0.9530 -0.2852 -2.4727
  145OSM    H5G16021   1.921   5.831   5.901  0.8749  1.8109 -1.7284
  145OSM    C6F16022   1.877   5.732   5.718  0.3967 -0.7528 -0.4378
  145OSM    H6F16023   1.876   5.631   5.672 -0.6504 -0.3024 -1.4538
  145OSM    H6G16024   1.921   5.795   5.639 -3.0248  0.2129 -1.7687
  145OSM    C7F16025   1.724   5.774   5.730  0.4495  0.5363 -0.4381
  145OSM    H7F16026   1.724   5.876   5.774  0.9401  0.0056  0.8399
  145OSM    H7G16027   1.661   5.703   5.787 -0.3959 -0.3454 -2.3594
  145OSM    C8F16028   1.658   5.783   5.587  0.0235 -0.8026  0.0209
  145OSM    H8F16029   1.708   5.869   5.536 -0.6835  0.2917  1.1335
  145OSM    H8G16030   1.555   5.823   5.592 -0.5403 -2.2144  0.1916
  145OSM    C9F16031   1.658   5.666   5.492 -0.6164 -0.0031  0.1625
  145OSM    H9F16032   1.611   5.576   5.535  2.3876 -0.4364  2.9214
  145OSM   C10F16033   1.709   5.664   5.368 -0.2407 -0.2970  0.0083
  145OSM   H10F16034   1.693   5.576   5.305  0.6777 -0.3883 -0.1045
  145OSM   C11F16035   1.771   5.779   5.293  0.9479 -0.4857  0.1547
  145OSM   H11F16036   1.872   5.755   5.256  1.6374  1.3485  0.7334
  145OSM   H11G16037   1.792   5.871   5.351  2.3225 -0.6373 -0.0781
  145OSM   C12F16038   1.690   5.825   5.177 -0.1101  0.0375 -0.4017
  145OSM   H12F16039   1.662   5.734   5.119 -0.5008 -2.1555  2.9101
  145OSM   H12G16040   1.758   5.892   5.120  0.7561  0.8678  1.4997
  145OSM   C13F16041   1.561   5.899   5.224  0.1735  0.0713  0.1087
  145OSM   H13F16042   1.590   6.000   5.259 -1.8499  0.1356  1.7723
  145OSM   H13G16043   1.501   5.841   5.297  0.0543 -0.2346 -0.2231
  145OSM   C14F16044   1.461   5.925   5.104 -0.2121  0.1308 -0.2720
  145OSM   H14F16045   1.431   5.826   5.062  1.0410 -0.7838  0.9236
  145OSM   H14G16046   1.515   5.986   5.029 -0.7984  0.3379 -0.5393
  145OSM   C15F16047   1.329   5.983   5.155  0.0555 -0.7500  0.6186
  145OSM   H15F16048   1.358   6.086   5.187  0.3752 -1.2882  2.1389
  145OSM   H15G16049   1.286   5.921   5.237 -0.4373 -2.7959 -1.1142
  145OSM   C16F16050   1.216   5.977   5.054 -0.3433  1.0302 -0.3104
  145OSM   H16F16051   1.142   6.055   5.082 -0.3222  0.8832  0.1660
  145OSM   H16G16052   1.169   5.877   5.064  0.8391  0.4762 -0.1033
  145OSM   C17F16053   1.250   5.994   4.902  0.6415  0.0531 -0.2978
  145OSM   H17F16054   1.321   5.918   4.864 -0.9127 -1.5040 -0.2237
  145OSM   H17G16055   1.302   6.092   4.901  0.9607 -0.1134 -0.1269
  145OSM   C18F16056   1.124   6.000   4.809  0.3787 -0.2785 -0.6278
  145OSM   H18F16057   1.043   6.062   4.853 -0.5081 -2.1906  0.5813
  145OSM   H18G16058   1.072   5.902   4.797  0.9710 -0.5688 -0.8955
  145OSM   H18H16059   1.141   6.045   4.709 -3.1901 -1.2039 -1.8091
  146OSM      N16060   0.166   5.928   7.061  0.7932  0.9519 -0.0181
  146OSM    C1516061   0.294   5.972   7.110 -0.4635 -0.2139  0.0832
  146OSM   H15A16062   0.354   6.014   7.031 -1.9798  1.3804 -0.2789
  146OSM   H15B16063   0.353   5.900   7.165 -1.0732 -0.6997  0.1129
  146OSM   H15C16064   0.287   6.056   7.177  1.3686 -0.4826  0.6612
  146OSM    C1416065   0.173   5.785   7.027 -0.3725  0.1561 -0.1590
  146OSM   H14A16066   0.210   5.721   7.106 -0.2567  1.3164  0.7453
  146OSM   H14B16067   0.245   5.775   6.947 -0.8289  1.0375 -0.6867
  146OSM   H14C16068   0.071   5.757   7.004 -0.5096  1.3942 -1.2058
  146OSM    C1316069   0.071   5.933   7.179 -0.1080 -0.1169 -0.4605
  146OSM   H13A16070  -0.033   5.925   7.152 -0.2116  0.9386 -0.4035
  146OSM   H13B16071   0.090   6.029   7.224 -0.4202 -0.5018  0.5063
  146OSM   H13C16072   0.098   5.861   7.255  0.6407  0.4174 -0.2117
  146OSM    C1216073   0.113   6.018   6.949 -0.7150  0.1192 -0.5107
  146OSM   H12A16074   0.084   6.111   6.996  1.8485 -0.3094  2.2333
  146OSM   H12B16075   0.020   5.988   6.903  0.0967  0.2007 -2.3174
  146OSM    C1116076   0.209   6.049   6.830 -0.8444 -0.0224 -0.0118
  146OSM   H11A16077   0.162   6.108   6.748 -0.7721  2.0252  1.3628
  146OSM   H11B16078   0.227   5.949   6.786 -1.5845 -0.6144  0.9974
  146OSM      P16079   0.344   6.269   6.877 -0.3710  0.5565  0.0563
  146OSM    O1316080   0.278   6.307   7.001  0.1196 -0.2078 -0.4828
  146OSM    O1416081   0.491   6.302   6.871 -0.2027  0.2900  0.0433
  146OSM    O1116082   0.272   6.323   6.754  0.6772  0.3338 -0.1634
  146OSM    O1216083   0.335   6.112   6.861 -1.0076  0.2397  0.3473
  146OSM    C1S16084   0.353   6.342   6.641 -0.2673  0.2431 -0.4498
  146OSM    H1S16085   0.439   6.273   6.630  1.5516  2.0372  1.3656
  146OSM    H1T16086   0.398   6.444   6.642 -0.0969  0.1755 -0.9041
  146OSM     NF16087   0.365   6.361   6.399  0.3847  0.0164 -0.1203
  146OSM    HNF16088   0.392   6.457   6.387  0.1581  0.1784  0.6027
  146OSM    C2S16089   0.273   6.356   6.512 -0.6594  0.2615 -0.2026
  146OSM    H2S16090   0.202   6.271   6.507 -1.0079  0.6259 -2.4768
  146OSM    C3S16091   0.176   6.478   6.525  0.2010 -0.7193 -0.1434
  146OSM    H3S16092   0.228   6.572   6.549  1.6185 -1.9762  2.0011
  146OSM     O316093   0.073   6.459   6.619  0.3278  0.1054  0.1474
  146OSM    HO316094   0.117   6.417   6.694  0.4074  1.3948  0.8624
  146OSM    C4S16095   0.102   6.470   6.391 -0.0433 -0.0738  0.2628
  146OSM    H4S16096   0.059   6.372   6.366 -2.4196  0.4152  2.0148
  146OSM    C5S16097   0.080   6.568   6.295 -0.3073  0.1791 -0.5167
  146OSM    H5S16098   0.123   6.664   6.328  0.6718 -0.9617  1.7163
  146OSM    C6S16099   0.018   6.567   6.158 -0.1945  0.8193  0.7703
  146OSM    H6S16100   0.075   6.640   6.097  2.7442 -0.5337  1.6780
  146OSM    H6T16101  -0.083   6.612   6.164  0.1452  1.4526  2.2352
  146OSM    C7S16102   0.010   6.437   6.090 -0.0031  0.2432  0.0827
  146OSM    H7S16103  -0.047   6.450   5.995  0.5982 -0.9428 -0.4695
  146OSM    H7T16104  -0.060   6.367   6.139 -1.0705  2.7816  2.4495
  146OSM    C8S16105   0.140   6.348   6.055 -0.1333 -0.0672  0.4062
  146OSM    H8S16106   0.114   6.240   6.056  3.6073 -1.1047  0.8371
  146OSM    H8T16107   0.214   6.356   6.137  0.7715 -0.3218 -0.3704
  146OSM    C9S16108   0.214   6.379   5.920  0.4894  0.4224  0.3713
  146OSM    H9S16109   0.148   6.334   5.842 -1.3304  0.3154  1.8805
  146OSM    H9T16110   0.305   6.316   5.923 -1.1156 -2.0605  0.0852
  146OSM   C10S16111   0.251   6.519   5.893 -0.7769  0.2209  0.1228
  146OSM   H10S16112   0.310   6.555   5.981 -0.2925 -0.3312  0.0320
  146OSM   H10T16113   0.166   6.590   5.885 -1.2000 -0.4582 -1.6872
  146OSM   C11S16114   0.328   6.545   5.756 -0.3960 -0.1256  0.0706
  146OSM   H11S16115   0.426   6.492   5.748 -0.6342 -0.5485 -0.1009
  146OSM   H11T16116   0.334   6.655   5.745  2.0911 -0.3930 -2.0287
  146OSM   C12S16117   0.248   6.504   5.628  0.2783  1.0437  0.2278
  146OSM   H12S16118   0.143   6.536   5.646  0.2392  1.3237 -0.4775
  146OSM   H12T16119   0.247   6.394   5.644  4.9389  0.9002  0.8295
  146OSM   C13S16120   0.282   6.551   5.489 -0.0068  0.1181 -0.3870
  146OSM   H13S16121   0.388   6.550   5.456  0.2489  2.1857  0.2370
  146OSM   H13T16122   0.269   6.662   5.490 -2.0333 -0.0811  1.0483
  146OSM   C14S16123   0.193   6.490   5.382  0.2982  0.5784 -0.0283
  146OSM   H14S16124   0.091   6.533   5.390  0.7047  1.6982 -0.7920
  146OSM   H14T16125   0.187   6.380   5.401  2.6586  0.3082 -0.4711
  146OSM   C15S16126   0.253   6.524   5.242  0.3317 -0.3535  0.2751
  146OSM   H15S16127   0.351   6.476   5.220 -0.2356 -0.1039 -3.3911
  146OSM   H15T16128   0.273   6.633   5.237  0.5982 -0.4275 -0.4007
  146OSM   C16S16129   0.161   6.497   5.120  0.0427  0.2673 -0.6233
  146OSM   H16S16130   0.054   6.507   5.147  0.0535  1.4225 -0.9454
  146OSM   H16T16131   0.181   6.393   5.085 -0.8897 -0.2721  0.4023
  146OSM   C17S16132   0.182   6.594   5.010 -0.1783  0.7666  0.1279
  146OSM   H17S16133   0.290   6.613   4.994 -0.0904  0.9159  0.8619
  146OSM   H17T16134   0.145   6.693   5.045  1.6586  1.6861 -0.4403
  146OSM   C18S16135   0.127   6.543   4.880  0.0537  0.2025  0.6029
  146OSM   H18S16136   0.166   6.597   4.792 -0.9123 -1.9716 -1.2534
  146OSM   H18T16137   0.017   6.528   4.873  0.1570 -0.9165  1.1115
  146OSM   H18U16138   0.169   6.441   4.869 -1.1906 -0.3083  0.3840
  146OSM    C1F16139   0.418   6.251   6.347  0.8277  0.5463 -0.3417
  146OSM     OF16140   0.405   6.144   6.405  0.3787  0.5907  0.3787
  146OSM    C2F16141   0.504   6.269   6.224  0.3642  0.0214 -0.3685
  146OSM    H2F16142   0.611   6.277   6.251 -0.0342 -0.1323  1.3407
  146OSM    H2G16143   0.477   6.368   6.180 -0.2832 -0.2428 -0.5753
  146OSM    C3F16144   0.493   6.170   6.114  0.0939 -0.1757 -0.3039
  146OSM    H3F16145   0.393   6.177   6.066 -0.4337  3.8622  1.0503
  146OSM    H3G16146   0.510   6.064   6.143  1.0047 -0.1377 -0.6863
  146OSM    C4F16147   0.593   6.186   6.002 -0.6381  0.5728 -0.3029
  146OSM    H4F16148   0.692   6.147   6.036 -0.6002  0.7399 -0.2246
  146OSM    H4G16149   0.608   6.292   5.975 -1.0470  0.2924 -1.7336
  146OSM    C5F16150   0.555   6.121   5.871 -0.7134 -0.0288  0.1292
  146OSM    H5F16151   0.453   6.153   5.841 -0.5293 -1.0569 -1.6962
  146OSM    H5G16152   0.566   6.011   5.863  0.4618  0.0134  0.9205
  146OSM    C6F16153   0.645   6.179   5.759  0.2743  0.8102  1.2992
  146OSM    H6F16154   0.750   6.181   5.794  1.9796 -0.7887 -2.9489
  146OSM    H6G16155   0.615   6.286   5.750  2.0036  1.4378  2.4782
  146OSM    C7F16156   0.626   6.104   5.627 -0.3305 -0.1449  0.1144
  146OSM    H7F16157   0.613   5.995   5.646  0.6739 -0.4563 -0.8533
  146OSM    H7G16158   0.725   6.109   5.576  0.5987  1.6385  1.9473
  146OSM    C8F16159   0.511   6.165   5.548  0.3907  0.5927  0.5661
  146OSM    H8F16160   0.547   6.248   5.484 -1.5609  1.6037  0.7061
  146OSM    H8G16161   0.435   6.206   5.618  0.5869  1.5491  0.2244
  146OSM    C9F16162   0.451   6.068   5.444  0.1574 -0.1480 -0.1648
  146OSM    H9F16163   0.349   6.035   5.467  0.9095 -1.2933  1.7656
  146OSM   C10F16164   0.518   6.005   5.340 -0.0455 -0.3441  0.1901
  146OSM   H10F16165   0.460   5.934   5.279  2.2803 -2.2415  0.0789
  146OSM   C11F16166   0.658   6.031   5.289  0.0325 -0.3859  0.1867
  146OSM   H11F16167   0.719   5.939   5.281  0.9891  0.2063  0.4676
  146OSM   H11G16168   0.715   6.094   5.360  1.3648 -0.0820 -1.1055
  146OSM   C12F16169   0.660   6.100   5.149  0.0704 -0.6207 -0.9451
  146OSM   H12F16170   0.625   6.038   5.064 -0.9716 -3.9856  1.7210
  146OSM   H12G16171   0.766   6.122   5.122 -0.3754  0.0149 -2.2751
  146OSM   C13F16172   0.587   6.233   5.146 -0.2957 -0.0936 -0.5679
  146OSM   H13F16173   0.616   6.285   5.239 -1.5562  0.2196 -0.3358
  146OSM   H13G16174   0.479   6.208   5.156 -0.5352  0.4126 -1.6748
  146OSM   C14F16175   0.605   6.317   5.012 -0.6537  0.0298 -0.4212
  146OSM   H14F16176   0.585   6.253   4.924 -0.7401 -0.5453  0.0077
  146OSM   H14G16177   0.523   6.391   4.998 -3.0371 -2.8208 -2.9613
  146OSM   C15F16178   0.736   6.382   5.018 -0.1716  0.5358  0.9374
  146OSM   H15F16179   0.821   6.312   5.032 -1.5449 -1.9000 -1.8328
  146OSM   H15G16180   0.750   6.448   5.106  1.9155  1.2417  0.1381
  146OSM   C16F16181   0.774   6.459   4.890  0.0781  0.6830 -0.5553
  146OSM   H16F16182   0.724   6.408   4.805 -0.5448 -0.9168  0.7019
  146OSM   H16G16183   0.884   6.466   4.875 -0.2346  1.7848 -2.7020
  146OSM   C17F16184   0.720   6.607   4.901  0.2851 -0.1127  0.0962
  146OSM   H17F16185   0.778   6.647   4.987  0.9193 -2.6629  0.9545
  146OSM   H17G16186   0.612   6.619   4.923  0.3425  0.2476  0.1827
  146OSM   C18F16187   0.733   6.698   4.780 -0.4296 -0.1521  0.0715
  146OSM   H18F16188   0.733   6.806   4.806 -1.6074 -0.3846  1.1043
  146OSM   H18G16189   0.654   6.674   4.705 -1.8045  3.0316  0.3416
  146OSM   H18H16190   0.827   6.670   4.729  0.4357  2.1525  0.2796
  147OSM      N16191   2.686   3.892   1.943 -0.0837 -0.3991  0.8887
  147OSM    C1516192   2.783   3.994   1.992  0.6737 -0.3727  0.5085
  147OSM   H15A16193   2.882   3.954   2.013 -0.1694 -2.9844 -0.0803
  147OSM   H15B16194   2.756   4.047   2.083 -0.3812 -1.8115  1.0697
  147OSM   H15C16195   2.802   4.055   1.906 -1.8747  0.2571  0.3164
  147OSM    C1416196   2.736   3.833   1.819 -0.0823  0.2145 -0.2763
  147OSM   H14A16197   2.667   3.760   1.779  0.8015 -0.6140 -0.3222
  147OSM   H14B16198   2.829   3.781   1.836 -0.2224  0.1805  0.4126
  147OSM   H14C16199   2.745   3.900   1.735 -2.2805 -1.9559 -2.4362
  147OSM    C1316200   2.673   3.773   2.039  0.0978 -0.2297 -0.3474
  147OSM   H13A16201   2.615   3.694   1.995 -0.9092  1.2575 -1.8279
  147OSM   H13B16202   2.618   3.791   2.130 -0.6408  0.2784 -0.8782
  147OSM   H13C16203   2.771   3.735   2.061 -0.5194 -1.1305  0.9355
  147OSM    C1216204   2.551   3.949   1.912 -0.2726 -0.3880 -0.1705
  147OSM   H12A16205   2.497   3.872   1.860  1.0678 -0.8777 -0.8959
  147OSM   H12B16206   2.574   4.036   1.852  0.5712 -1.2384 -1.1299
  147OSM    C1116207   2.470   4.001   2.025  0.5012  0.1784  0.0456
  147OSM   H11A16208   2.487   3.928   2.107  0.7832 -0.1439 -0.2999
  147OSM   H11B16209   2.364   4.004   1.993  0.6314  1.1058 -0.3422
  147OSM      P16210   2.469   4.252   1.965 -0.0409  0.6079 -0.2043
  147OSM    O1316211   2.540   4.244   1.838  0.0172 -0.5111 -0.4613
  147OSM    O1416212   2.323   4.269   1.971  0.0811  0.6429  0.5608
  147OSM    O1116213   2.538   4.369   2.039 -0.4801 -0.2196 -0.8880
  147OSM    O1216214   2.517   4.129   2.057  0.0925 -0.2841 -0.6667
  147OSM    C1S16215   2.500   4.407   2.172 -0.9643 -0.4320  0.8073
  147OSM    H1S16216   2.392   4.394   2.194 -1.3800 -0.2312 -0.9900
  147OSM    H1T16217   2.519   4.515   2.184  2.5313 -0.8450 -0.0304
  147OSM     NF16218   2.551   4.412   2.415 -0.2266  0.4765  0.5407
  147OSM    HNF16219   2.586   4.502   2.438 -1.4832  0.6714  1.8441
  147OSM    C2S16220   2.587   4.348   2.292  0.8410  0.6893  0.3365
  147OSM    H2S16221   2.557   4.242   2.293  4.3255 -0.4339 -0.0849
  147OSM    C3S16222   2.744   4.351   2.269 -0.2603  0.2160  0.4780
  147OSM    H3S16223   2.778   4.454   2.294 -1.1346  0.9691 -1.2425
  147OSM     O316224   2.783   4.313   2.138  0.6374 -1.0070  0.2175
  147OSM    HO316225   2.698   4.298   2.096 -0.0341 -0.8693  1.4650
  147OSM    C4S16226   2.815   4.249   2.354  0.0009 -0.3980 -1.1057
  147OSM    H4S16227   2.777   4.146   2.348 -1.3320 -0.0692  0.7474
  147OSM    C5S16228   2.932   4.263   2.436 -0.0293 -0.1317  0.5308
  147OSM    H5S16229   2.975   4.364   2.441  1.9779 -0.8365 -1.1374
  147OSM    C6S16230   2.992   4.152   2.513  0.7000 -0.9635  0.1845
  147OSM    H6S16231   3.064   4.201   2.581  0.6697 -1.0490  0.2789
  147OSM    H6T16232   3.047   4.089   2.440  0.1100 -1.4335  0.1339
  147OSM    C7S16233   2.911   4.040   2.579  0.0748  0.6366  0.4035
  147OSM    H7S16234   2.969   3.954   2.618  0.5457  0.2501 -1.0846
  147OSM    H7T16235   2.841   4.000   2.503 -1.4854  0.5142  1.8597
  147OSM    C8S16236   2.815   4.097   2.685  0.5463  0.7013 -0.0084
  147OSM    H8S16237   2.736   4.023   2.709  0.1763  0.5493 -1.5901
  147OSM    H8T16238   2.750   4.178   2.644 -0.6690  0.5965  1.6328
  147OSM    C9S16239   2.884   4.151   2.812  0.0390  0.4790  0.6899
  147OSM    H9S16240   2.959   4.228   2.785  0.6948 -0.7604 -1.2220
  147OSM    H9T16241   2.935   4.061   2.851  0.0174 -0.0999 -0.5718
  147OSM   C10S16242   2.782   4.201   2.911  0.8751  0.0091 -0.6921
  147OSM   H10S16243   2.712   4.120   2.940 -0.3434  0.7130 -1.5846
  147OSM   H10T16244   2.713   4.275   2.865  0.9738  1.1618  0.9073
  147OSM   C11S16245   2.847   4.267   3.032  0.8114  0.1486 -0.0323
  147OSM   H11S16246   2.907   4.356   3.003  2.6487 -0.9308  0.2624
  147OSM   H11T16247   2.919   4.197   3.082 -0.4480  0.6423  2.6402
  147OSM   C12S16248   2.743   4.300   3.143 -0.2441  0.5885  0.4296
  147OSM   H12S16249   2.687   4.209   3.171  0.0373  0.8037  1.7371
  147OSM   H12T16250   2.677   4.373   3.091 -0.3743 -0.5902 -1.1351
  147OSM   C13S16251   2.831   4.345   3.262 -0.1531  0.5083 -0.0712
  147OSM   H13S16252   2.920   4.392   3.216  0.3342  0.2214  0.5601
  147OSM   H13T16253   2.882   4.255   3.301  0.1993  0.0123 -1.6158
  147OSM   C14S16254   2.760   4.431   3.367 -0.2862  0.2013  0.3950
  147OSM   H14S16255   2.741   4.531   3.325 -2.7536 -0.7209 -0.8801
  147OSM   H14T16256   2.820   4.455   3.457  0.0871  2.1639 -0.3252
  147OSM   C15S16257   2.620   4.373   3.418  0.6224 -0.5236  0.0442
  147OSM   H15S16258   2.636   4.275   3.468  1.3571 -1.5132 -2.0003
  147OSM   H15T16259   2.546   4.351   3.338 -0.3838 -1.2691  1.1485
  147OSM   C16S16260   2.562   4.471   3.518  0.8791  0.5383  0.7284
  147OSM   H16S16261   2.549   4.565   3.460  1.0500  0.8156  1.1296
  147OSM   H16T16262   2.623   4.491   3.609 -3.0189 -1.9347  4.2800
  147OSM   C17S16263   2.423   4.420   3.556  0.6283 -0.6136 -0.1220
  147OSM   H17S16264   2.422   4.318   3.599  0.5522  0.0933  1.6092
  147OSM   H17T16265   2.363   4.407   3.463  0.7212  0.5722 -0.3655
  147OSM   C18S16266   2.361   4.532   3.643  0.0765 -0.5501  0.6990
  147OSM   H18S16267   2.261   4.499   3.677 -0.6679 -0.5761 -1.4002
  147OSM   H18T16268   2.355   4.629   3.589 -0.7571 -1.3466 -0.6856
  147OSM   H18U16269   2.419   4.535   3.738  0.7766 -0.7802  0.2897
  147OSM    C1F16270   2.431   4.380   2.473 -0.4209  0.1245  0.3633
  147OSM     OF16271   2.346   4.310   2.423  0.2273  0.3241  0.2996
  147OSM    C2F16272   2.397   4.456   2.595 -0.0057  0.0467 -0.4049
  147OSM    H2F16273   2.353   4.554   2.566  1.0243  1.3504  2.1122
  147OSM    H2G16274   2.488   4.486   2.652 -0.9379 -0.5585  1.5148
  147OSM    C3F16275   2.315   4.378   2.699 -0.5466  0.2045  0.0417
  147OSM    H3F16276   2.373   4.286   2.725 -0.3951  0.1954 -0.3277
  147OSM    H3G16277   2.220   4.341   2.655 -2.1098  2.3984  1.3793
  147OSM    C4F16278   2.282   4.453   2.824  0.0405  0.2967  0.1877
  147OSM    H4F16279   2.363   4.516   2.867 -0.6490 -0.4111  2.6825
  147OSM    H4G16280   2.252   4.371   2.893  1.0239  0.2421  0.5692
  147OSM    C5F16281   2.152   4.535   2.812 -0.6402  0.6998 -0.1819
  147OSM    H5F16282   2.066   4.465   2.821  0.7284 -0.8192  2.1861
  147OSM    H5G16283   2.160   4.580   2.711  0.4252  0.1810 -0.3482
  147OSM    C6F16284   2.145   4.644   2.916 -0.3199 -0.0660 -0.2181
  147OSM    H6F16285   2.069   4.719   2.885 -0.6594 -0.2129  0.2474
  147OSM    H6G16286   2.239   4.701   2.905  0.7462 -1.8680 -0.8625
  147OSM    C7F16287   2.125   4.609   3.061 -0.2395  0.4599  0.5702
  147OSM    H7F16288   2.225   4.576   3.097  0.6905  2.1143 -0.3719
  147OSM    H7G16289   2.060   4.519   3.064  0.7498 -0.3546 -0.9131
  147OSM    C8F16290   2.077   4.715   3.147  0.3898 -0.7683  0.0788
  147OSM    H8F16291   1.986   4.750   3.094  0.7456  0.1204  0.0338
  147OSM    H8G16292   2.149   4.800   3.145  1.2644 -1.4924 -1.0749
  147OSM    C9F16293   2.036   4.669   3.285  0.0374 -0.1161  0.0198
  147OSM    H9F16294   1.937   4.621   3.292 -0.0015 -1.1174 -4.3851
  147OSM   C10F16295   2.105   4.696   3.400 -0.0987 -0.4501 -0.5696
  147OSM   H10F16296   2.068   4.652   3.494 -1.0411  0.0651 -0.6863
  147OSM   C11F16297   2.243   4.771   3.402 -0.0768  0.6676  0.3239
  147OSM   H11F16298   2.257   4.834   3.312  0.6095  0.0578 -0.0053
  147OSM   H11G16299   2.326   4.698   3.410 -0.9362 -0.3065  0.5537
  147OSM   C12F16300   2.249   4.870   3.522 -0.4206  0.5491 -0.1469
  147OSM   H12F16301   2.227   4.822   3.619  0.5201  1.5305  0.5789
  147OSM   H12G16302   2.172   4.947   3.498 -0.7224  0.5518  0.7990
  147OSM   C13F16303   2.381   4.943   3.521  0.6492  0.1266 -0.1239
  147OSM   H13F16304   2.399   4.980   3.418  0.4415 -2.6711 -1.2578
  147OSM   H13G16305   2.471   4.883   3.548  1.1615 -0.9668 -3.7719
  147OSM   C14F16306   2.392   5.062   3.615  0.1004  0.8725 -0.8416
  147OSM   H14F16307   2.345   5.157   3.582  0.8185  1.8166  0.7316
  147OSM   H14G16308   2.500   5.087   3.607  1.0034 -2.7345 -1.7764
  147OSM   C15F16309   2.357   5.033   3.760 -0.3187 -0.1388  0.0482
  147OSM   H15F16310   2.409   4.942   3.796  1.3317  1.3526  1.7023
  147OSM   H15G16311   2.250   5.005   3.752 -0.2606  0.0064 -1.7006
  147OSM   C16F16312   2.373   5.160   3.852 -0.1657 -0.0155  0.1056
  147OSM   H16F16313   2.329   5.250   3.805  1.8687  0.5717 -0.8108
  147OSM   H16G16314   2.481   5.182   3.868 -0.1509  0.5749 -0.7420
  147OSM   C17F16315   2.318   5.142   3.998 -0.4301 -0.6011 -0.3567
  147OSM   H17F16316   2.366   5.045   4.023  0.2851 -0.4359 -1.0482
  147OSM   H17G16317   2.207   5.128   4.000 -0.9973  3.0224  0.8607
  147OSM   C18F16318   2.357   5.254   4.100  0.2039 -0.0185 -0.4937
  147OSM   H18F16319   2.329   5.242   4.207 -0.7519  0.5118 -0.6750
  147OSM   H18G16320   2.307   5.349   4.071  0.1751 -0.0594 -0.5733
  147OSM   H18H16321   2.468   5.266   4.094  0.4981 -0.4124  2.3576
  148OSM      N16322   1.063   4.062   1.783 -0.2632  0.2685  0.1109
  148OSM    C1516323   1.193   4.031   1.706  0.4911 -0.6733  0.7713
  148OSM   H15A16324   1.201   3.926   1.684 -2.6450 -1.1323  1.3234
  148OSM   H15B16325   1.283   4.060   1.758  1.2166 -1.3231 -0.1040
  148OSM   H15C16326   1.195   4.084   1.612  2.7354 -1.4749  0.3128
  148OSM    C1416327   1.070   4.202   1.826 -0.5543 -0.4502 -0.0143
  148OSM   H14A16328   1.156   4.218   1.890  0.1332  0.2112 -1.0706
  148OSM   H14B16329   0.981   4.223   1.884 -0.3095  1.4384 -0.2364
  148OSM   H14C16330   1.072   4.273   1.744  1.8969 -0.5277 -0.0955
  148OSM    C1316331   0.946   4.042   1.687  0.1986  0.0821 -1.1740
  148OSM   H13A16332   0.848   4.054   1.731  0.2548  2.2854 -1.5713
  148OSM   H13B16333   0.939   3.944   1.641 -3.5043  0.5936 -1.9368
  148OSM   H13C16334   0.948   4.121   1.614 -1.3670  0.3585 -0.9506
  148OSM    C1216335   1.046   3.973   1.903  0.5069  0.8982 -0.1729
  148OSM   H12A16336   1.056   3.873   1.863 -0.1474  1.7934 -2.8003
  148OSM   H12B16337   0.943   3.979   1.937 -0.4661 -2.0248 -2.2062
  148OSM    C1116338   1.140   3.998   2.029  0.3494  0.1468 -0.1272
  148OSM   H11A16339   1.131   3.911   2.098 -0.8876  1.9309  2.1388
  148OSM   H11B16340   1.102   4.086   2.085  2.7714 -0.0722  2.0538
  148OSM      P16341   1.367   4.131   2.046 -0.1050 -0.2849 -0.3006
  148OSM    O1316342   1.505   4.093   2.011 -0.3029  0.2038  0.4922
  148OSM    O1416343   1.317   4.259   1.982 -0.4210  0.0232  0.5426
  148OSM    O1116344   1.366   4.139   2.204 -0.0600  0.4727 -0.4967
  148OSM    O1216345   1.278   4.006   2.006 -0.2811 -0.8886  0.4357
  148OSM    C1S16346   1.445   4.046   2.285  0.4954 -0.1240  0.0821
  148OSM    H1S16347   1.554   4.056   2.266  0.0095  3.2652 -1.6377
  148OSM    H1T16348   1.419   3.941   2.259  0.2785  0.5375 -2.5723
  148OSM     NF16349   1.520   3.993   2.515  0.6707 -0.7473  0.4323
  148OSM    HNF16350   1.494   3.917   2.575 -1.0206  0.5904  1.4855
  148OSM    C2S16351   1.416   4.062   2.438  0.4028  0.0401  0.0885
  148OSM    H2S16352   1.435   4.170   2.457 -1.5109  0.7599 -1.5823
  148OSM    C3S16353   1.269   4.018   2.474  0.0007 -0.2156  0.7364
  148OSM    H3S16354   1.260   3.909   2.457 -0.6467 -0.3041  1.5564
  148OSM     O316355   1.176   4.073   2.385  0.0913  0.8825  0.4073
  148OSM    HO316356   1.233   4.087   2.309 -0.2590  0.3899  0.0531
  148OSM    C4S16357   1.230   4.039   2.613  0.2436 -0.2397 -0.8656
  148OSM    H4S16358   1.227   3.948   2.675  0.1170 -0.6900 -1.5316
  148OSM    C5S16359   1.200   4.153   2.673 -0.4029  0.1983 -0.6717
  148OSM    H5S16360   1.206   4.248   2.618 -0.9499  0.6877  0.0968
  148OSM    C6S16361   1.147   4.167   2.812 -0.2727  0.0145 -0.6250
  148OSM    H6S16362   1.055   4.229   2.805 -0.8063 -0.4918  1.1925
  148OSM    H6T16363   1.217   4.218   2.882 -1.6589 -1.3322  1.9098
  148OSM    C7S16364   1.070   4.042   2.872  0.0998 -0.0815 -0.0376
  148OSM    H7S16365   1.134   3.963   2.917 -1.7251 -0.6544  1.7245
  148OSM    H7T16366   1.009   4.013   2.784  0.8558 -0.9477 -0.2772
  148OSM    C8S16367   0.982   4.085   2.989  0.6623  0.0025  0.0957
  148OSM    H8S16368   0.916   3.998   3.006 -0.6733  0.6944 -1.3046
  148OSM    H8T16369   0.924   4.176   2.961  0.9667  0.5746  1.2433
  148OSM    C9S16370   1.055   4.109   3.118 -0.5748  0.2529 -0.1939
  148OSM    H9S16371   1.111   4.204   3.102 -1.2033  0.9058  1.3163
  148OSM    H9T16372   1.126   4.030   3.151  0.7574  1.2526 -0.5806
  148OSM   C10S16373   0.951   4.130   3.232 -0.1575  0.4053 -0.1277
  148OSM   H10S16374   0.875   4.049   3.222 -0.8105  1.2030 -2.2933
  148OSM   H10T16375   0.897   4.226   3.216 -1.3736 -0.6489 -3.2008
  148OSM   C11S16376   1.017   4.127   3.371  1.0035  0.2795  0.7206
  148OSM   H11S16377   1.104   4.196   3.371  0.1519  1.3865  1.1287
  148OSM   H11T16378   1.064   4.028   3.387  1.8366  0.5460  0.0170
  148OSM   C12S16379   0.928   4.164   3.481  0.0381 -0.2706  0.2541
  148OSM   H12S16380   0.836   4.103   3.479 -2.4166  3.1279 -0.4367
  148OSM   H12T16381   0.885   4.266   3.476 -0.4700 -0.5119 -0.3745
  148OSM   C13S16382   1.007   4.147   3.615  0.1894  0.0266 -0.6087
  148OSM   H13S16383   1.106   4.197   3.610  0.7073 -0.8620  0.3850
  148OSM   H13T16384   1.027   4.040   3.636  0.9029  0.6266  2.2153
  148OSM   C14S16385   0.923   4.189   3.733 -0.1671 -0.5082 -0.7070
  148OSM   H14S16386   0.832   4.125   3.742  0.1536 -0.8024  0.5264
  148OSM   H14T16387   0.882   4.292   3.723  0.7531 -0.1622 -1.0163
  148OSM   C15S16388   0.998   4.194   3.869  0.4253  0.3819 -0.8582
  148OSM   H15S16389   1.071   4.276   3.852 -2.0662  2.9844  0.1549
  148OSM   H15T16390   1.057   4.103   3.893  2.3777  1.6806 -0.4744
  148OSM   C16S16391   0.908   4.224   3.984 -0.0855 -0.7679 -0.3221
  148OSM   H16S16392   0.828   4.147   3.987 -0.7671 -0.0497  1.6700
  148OSM   H16T16393   0.856   4.318   3.956 -2.7963 -2.2126 -0.4316
  148OSM   C17S16394   0.972   4.224   4.119 -0.5435 -0.1415  0.8122
  148OSM   H17S16395   1.054   4.299   4.117  1.1336 -1.9052 -1.0830
  148OSM   H17T16396   1.020   4.125   4.137  1.0333  0.2590 -0.8921
  148OSM   C18S16397   0.879   4.256   4.236  0.1046  0.7251  0.3132
  148OSM   H18S16398   0.804   4.177   4.213  2.7717 -1.5742 -1.1807
  148OSM   H18T16399   0.845   4.360   4.219 -0.3864  0.7596  1.3971
  148OSM   H18U16400   0.913   4.256   4.342  0.6890  2.2305  0.1513
  148OSM    C1F16401   1.647   4.035   2.510  0.3905 -0.0377  0.1203
  148OSM     OF16402   1.678   4.145   2.462 -0.2981 -0.1288 -0.1499
  148OSM    C2F16403   1.746   3.939   2.565  0.6161 -0.5415 -1.2514
  148OSM    H2F16404   1.777   3.872   2.482 -1.6746 -1.4051 -1.5016
  148OSM    H2G16405   1.707   3.875   2.647  1.6698  0.2715 -0.0915
  148OSM    C3F16406   1.861   4.018   2.633  0.0679 -0.0859  0.1948
  148OSM    H3F16407   1.912   4.094   2.570  1.6078 -1.5719 -0.4470
  148OSM    H3G16408   1.940   3.940   2.648  0.1954  0.3942  2.4013
  148OSM    C4F16409   1.816   4.073   2.764  0.0712 -0.7657  0.3251
  148OSM    H4F16410   1.764   4.011   2.842  0.8867 -0.8783  0.7928
  148OSM    H4G16411   1.745   4.153   2.734  1.4902 -0.3303 -2.0847
  148OSM    C5F16412   1.930   4.149   2.835  0.1973 -0.0605  0.0499
  148OSM    H5F16413   1.976   4.219   2.762  1.4390 -0.8136  0.0651
  148OSM    H5G16414   2.006   4.073   2.865 -0.3716 -0.8851 -0.5655
  148OSM    C6F16415   1.877   4.215   2.968  1.1343 -0.5025  0.1260
  148OSM    H6F16416   1.797   4.143   2.996 -2.2201  2.0227 -2.1676
  148OSM    H6G16417   1.825   4.313   2.960  1.3666 -0.3815  0.0987
  148OSM    C7F16418   1.978   4.215   3.080  0.3776  0.3024 -0.5125
  148OSM    H7F16419   2.058   4.279   3.038  0.2534  1.9121  1.5278
  148OSM    H7G16420   2.015   4.112   3.099 -0.8876  0.0023  0.5147
  148OSM    C8F16421   1.923   4.272   3.216 -1.4158 -0.2007 -0.0894
  148OSM    H8F16422   1.902   4.378   3.190  1.6218  0.7284  0.7960
  148OSM    H8G16423   2.008   4.276   3.287 -1.9141  0.4662  0.4874
  148OSM    C9F16424   1.807   4.202   3.276  0.0907  0.1982  0.0768
  148OSM    H9F16425   1.735   4.161   3.204  0.6928 -2.4593  0.8679
  148OSM   C10F16426   1.796   4.174   3.407  0.2570  0.1964  0.2367
  148OSM   H10F16427   1.706   4.117   3.433 -0.3238  0.9957  0.0313
  148OSM   C11F16428   1.870   4.228   3.526 -0.3354  0.4080 -0.4150
  148OSM   H11F16429   1.976   4.199   3.511  0.1188  1.0664  1.3446
  148OSM   H11G16430   1.839   4.171   3.616  0.7160 -0.2100 -0.4264
  148OSM   C12F16431   1.872   4.382   3.549 -0.3220  0.2430  1.0274
  148OSM   H12F16432   1.774   4.434   3.544  1.1061  3.2329  1.8990
  148OSM   H12G16433   1.936   4.430   3.472  0.6565 -0.1510  1.5767
  148OSM   C13F16434   1.938   4.415   3.682 -0.1062 -0.0458 -0.3799
  148OSM   H13F16435   2.049   4.405   3.675  0.0311  1.9934 -2.1602
  148OSM   H13G16436   1.909   4.343   3.762  0.0056 -1.5891 -1.6740
  148OSM   C14F16437   1.904   4.555   3.728  0.7949 -0.0543  0.3295
  148OSM   H14F16438   1.806   4.561   3.779  0.0899 -1.0997 -0.8473
  148OSM   H14G16439   1.901   4.626   3.643  3.1988  0.6670  0.7576
  148OSM   C15F16440   2.005   4.621   3.819 -0.6093 -0.1489  0.0268
  148OSM   H15F16441   1.969   4.726   3.821 -1.9852 -0.5970 -0.3322
  148OSM   H15G16442   2.107   4.620   3.777  0.1872  2.4620  1.5996
  148OSM   C16F16443   2.005   4.561   3.959 -1.0985 -0.6019  0.7801
  148OSM   H16F16444   2.026   4.453   3.943  0.2653 -0.0740 -1.4732
  148OSM   H16G16445   1.897   4.574   3.981 -0.9622  2.9338  0.0714
  148OSM   C17F16446   2.109   4.614   4.059  0.1208 -0.1461 -0.8569
  148OSM   H17F16447   2.213   4.613   4.021 -0.4984  1.0737 -2.7173
  148OSM   H17G16448   2.094   4.564   4.157  0.2985  1.5880  0.0968
  148OSM   C18F16449   2.095   4.765   4.091 -0.8815 -0.4950 -0.4946
  148OSM   H18F16450   2.171   4.791   4.168 -0.8138 -1.2219 -0.3066
  148OSM   H18G16451   1.997   4.784   4.139 -0.3549  1.2082 -0.0332
  148OSM   H18H16452   2.104   4.838   4.007  1.0438 -0.6668 -0.4916
  149OSM      N16453   2.157   2.506   1.750 -0.1232 -0.0960 -0.1644
  149OSM    C1516454   2.303   2.476   1.752  0.0238 -0.1642 -0.1438
  149OSM   H15A16455   2.320   2.392   1.686 -1.0975  0.7743 -1.7076
  149OSM   H15B16456   2.340   2.445   1.848  0.4287 -0.8684 -0.5200
  149OSM   H15C16457   2.360   2.559   1.713 -1.0989  0.8791  0.3707
  149OSM    C1416458   2.115   2.488   1.606  0.2033 -0.6557 -0.8966
  149OSM   H14A16459   2.178   2.548   1.542  0.8220  0.2363  0.5119
  149OSM   H14B16460   2.015   2.526   1.593  0.4171  0.0427 -0.5107
  149OSM   H14C16461   2.108   2.386   1.569  0.4596 -0.5471 -1.2534
  149OSM    C1316462   2.078   2.421   1.837  0.1635  0.1515 -0.4460
  149OSM   H13A16463   2.104   2.440   1.941 -0.7015  0.1982 -0.2365
  149OSM   H13B16464   2.091   2.318   1.808  1.4395 -0.0652  0.7768
  149OSM   H13C16465   1.973   2.446   1.835  0.0306 -0.2984  0.4686
  149OSM    C1216466   2.126   2.653   1.796 -0.4859  0.3169  0.0752
  149OSM   H12A16467   2.021   2.675   1.787 -0.8977 -1.5325  0.0084
  149OSM   H12B16468   2.176   2.727   1.735  1.3585  0.0463  1.1897
  149OSM    C1116469   2.177   2.697   1.935 -0.7121  0.8891 -0.0609
  149OSM   H11A16470   2.284   2.671   1.944 -0.8195 -0.8882 -2.6383
  149OSM   H11B16471   2.128   2.630   2.010  2.5428  0.5675  1.9553
  149OSM      P16472   2.233   2.952   1.923  0.0927 -0.0299  0.1475
  149OSM    O1316473   2.269   2.956   1.780  0.4626 -0.4397  0.2447
  149OSM    O1416474   2.166   3.071   1.984 -0.2161 -0.5431  0.5807
  149OSM    O1116475   2.365   2.899   2.008 -0.5302  0.5858 -0.4916
  149OSM    O1216476   2.139   2.832   1.948  0.3915  0.3423  0.6204
  149OSM    C1S16477   2.344   2.865   2.145 -0.0875  0.3648 -0.0322
  149OSM    H1S16478   2.361   2.757   2.159  2.4692  0.7236  0.0153
  149OSM    H1T16479   2.242   2.883   2.188 -0.4886 -0.9738 -0.3960
  149OSM     NF16480   2.377   2.931   2.378  0.0310 -0.5427 -1.0823
  149OSM    HNF16481   2.321   3.006   2.411 -0.8367 -1.6038 -0.0619
  149OSM    C2S16482   2.435   2.946   2.243 -0.2440 -0.1068  0.0656
  149OSM    H2S16483   2.535   2.897   2.237 -1.0652 -1.6539 -2.1170
  149OSM    C3S16484   2.464   3.096   2.214 -0.4612  0.6669  0.3081
  149OSM    H3S16485   2.368   3.151   2.210  0.1481  1.9349  1.9904
  149OSM     O316486   2.522   3.121   2.083 -0.1085 -0.2896  0.2989
  149OSM    HO316487   2.500   3.051   2.022  0.7202  0.2993 -0.7239
  149OSM    C4S16488   2.549   3.156   2.326 -0.4083  0.1917 -0.2603
  149OSM    H4S16489   2.489   3.214   2.398 -1.6285  1.1680 -1.9866
  149OSM    C5S16490   2.675   3.131   2.364 -0.0034  0.0899 -0.3848
  149OSM    H5S16491   2.737   3.061   2.307 -0.4985  1.2712 -2.4868
  149OSM    C6S16492   2.728   3.178   2.499  0.1284  0.0912  0.1313
  149OSM    H6S16493   2.695   3.281   2.524 -3.1116 -0.2627 -2.0719
  149OSM    H6T16494   2.838   3.185   2.489  0.1020 -0.3254 -0.4791
  149OSM    C7S16495   2.681   3.084   2.619  0.1529  0.1701  0.1795
  149OSM    H7S16496   2.722   2.985   2.590  0.4036  0.6685 -1.2667
  149OSM    H7T16497   2.570   3.079   2.615 -0.0014  0.5824  2.6632
  149OSM    C8S16498   2.740   3.108   2.749 -0.1075 -0.4304  0.8163
  149OSM    H8S16499   2.752   3.217   2.764  0.3682  0.0461 -2.2287
  149OSM    H8T16500   2.842   3.065   2.738  0.1733  0.5941 -1.1627
  149OSM    C9S16501   2.674   3.016   2.848 -0.2043  0.3007  0.1356
  149OSM    H9S16502   2.699   2.912   2.818  0.0689 -0.5620  2.9880
  149OSM    H9T16503   2.564   3.033   2.855 -0.2030  0.4240 -0.1683
  149OSM   C10S16504   2.748   3.017   2.981 -0.0835  0.2354 -0.9485
  149OSM   H10S16505   2.858   3.017   2.969  0.1218 -0.9423  0.4975
  149OSM   H10T16506   2.725   2.929   3.045 -0.8581  0.7271 -0.5285
  149OSM   C11S16507   2.713   3.132   3.066 -0.6291 -0.2426 -0.3993
  149OSM   H11S16508   2.607   3.158   3.049 -0.8865 -0.8945  0.1843
  149OSM   H11T16509   2.776   3.220   3.039 -0.7171 -0.7794 -2.5028
  149OSM   C12S16510   2.717   3.099   3.216  0.0764 -0.7621  0.0996
  149OSM   H12S16511   2.823   3.076   3.241  0.6013 -0.8810 -2.0200
  149OSM   H12T16512   2.647   3.018   3.245 -1.5985  0.9387  0.9958
  149OSM   C13S16513   2.672   3.222   3.298  0.0493  0.1856  0.7057
  149OSM   H13S16514   2.563   3.235   3.316 -0.2527 -0.3889 -0.6278
  149OSM   H13T16515   2.701   3.318   3.250  0.3661 -1.2612 -2.1859
  149OSM   C14S16516   2.730   3.214   3.442 -0.0478  0.1655  0.4592
  149OSM   H14S16517   2.713   3.112   3.484  0.4574 -0.5580 -1.0220
  149OSM   H14T16518   2.673   3.277   3.514 -1.7086 -0.1509 -0.5148
  149OSM   C15S16519   2.881   3.240   3.461  0.0676 -0.0899  0.1718
  149OSM   H15S16520   2.939   3.166   3.403 -1.9543  0.7135 -3.1574
  149OSM   H15T16521   2.905   3.226   3.568  0.7348 -1.1416 -0.1017
  149OSM   C16S16522   2.929   3.384   3.417 -0.9550  0.1664 -0.2038
  149OSM   H16S16523   2.873   3.470   3.458 -1.8641 -1.3025  1.7917
  149OSM   H16T16524   2.912   3.399   3.308  3.6925  2.8487 -0.8101
  149OSM   C17S16525   3.083   3.397   3.443 -0.3168 -0.1315  0.7363
  149OSM   H17S16526   3.116   3.487   3.387 -0.5382 -0.2732  0.3758
  149OSM   H17T16527   3.139   3.310   3.402  0.4403  0.2251  0.9990
  149OSM   C18S16528   3.124   3.412   3.598  1.1729  0.1404 -0.0100
  149OSM   H18S16529   3.139   3.309   3.637 -1.6865 -1.2777 -2.2001
  149OSM   H18T16530   3.044   3.460   3.658  1.6169 -0.1157  0.8003
  149OSM   H18U16531   3.218   3.469   3.613  2.1693 -1.5667  0.6425
  149OSM    C1F16532   2.384   2.812   2.441  0.1586 -0.0723  0.4825
  149OSM     OF16533   2.468   2.729   2.404  0.7608  0.0704 -0.3754
  149OSM    C2F16534   2.299   2.794   2.565 -0.5355  0.0955 -0.4899
  149OSM    H2F16535   2.338   2.708   2.623 -1.3366 -0.0538 -0.1587
  149OSM    H2G16536   2.195   2.763   2.542 -0.8773  0.1357  0.9303
  149OSM    C3F16537   2.300   2.918   2.657  0.1133  0.1711 -0.4082
  149OSM    H3F16538   2.258   2.998   2.593  1.5102  0.5686 -0.8689
  149OSM    H3G16539   2.409   2.939   2.657  0.1732  0.1917  2.5057
  149OSM    C4F16540   2.246   2.895   2.795  0.3057 -0.0938  0.4781
  149OSM    H4F16541   2.311   2.823   2.850 -0.2045  1.1556  2.8674
  149OSM    H4G16542   2.160   2.826   2.791  0.4402 -0.2014 -1.3691
  149OSM    C5F16543   2.241   3.029   2.885  0.3023  0.2371  1.1183
  149OSM    H5F16544   2.162   3.086   2.832  0.5589  1.1484  1.6956
  149OSM    H5G16545   2.329   3.095   2.868 -1.3334  2.1721 -0.3639
  149OSM    C6F16546   2.199   3.009   3.036  0.6959 -0.1266 -1.0887
  149OSM    H6F16547   2.105   2.951   3.049 -0.1830  1.0667 -1.8084
  149OSM    H6G16548   2.177   3.112   3.073  1.6458 -0.0580 -0.6998
  149OSM    C7F16549   2.310   2.957   3.127  0.2507  0.1892  0.8455
  149OSM    H7F16550   2.391   3.033   3.130  1.7855 -1.3963  1.2706
  149OSM    H7G16551   2.365   2.871   3.083 -0.6326 -0.5070  1.0643
  149OSM    C8F16552   2.263   2.922   3.263 -0.0780 -0.1037 -0.0869
  149OSM    H8F16553   2.193   2.836   3.255  0.9908 -1.0050  0.1510
  149OSM    H8G16554   2.198   3.000   3.307 -2.5615 -0.8456 -2.1493
  149OSM    C9F16555   2.380   2.892   3.351 -0.3794  0.1631 -0.3779
  149OSM    H9F16556   2.455   2.824   3.308  0.7647 -0.1810  1.9949
  149OSM   C10F16557   2.416   2.951   3.470 -0.2205  0.4985  0.1525
  149OSM   H10F16558   2.499   2.903   3.525 -1.0630 -0.8900  0.2733
  149OSM   C11F16559   2.336   3.057   3.541  0.0044 -0.0510 -0.7819
  149OSM   H11F16560   2.263   3.105   3.473 -0.4867 -1.2754 -1.1577
  149OSM   H11G16561   2.394   3.142   3.582 -0.9389 -0.3154  1.2161
  149OSM   C12F16562   2.268   3.001   3.672  0.0178  0.2736  0.9623
  149OSM   H12F16563   2.340   2.955   3.743  0.7021  1.1307  0.8377
  149OSM   H12G16564   2.192   2.926   3.641 -1.6665  2.2972 -0.0610
  149OSM   C13F16565   2.196   3.120   3.738  0.3605 -0.0824 -0.2911
  149OSM   H13F16566   2.140   3.179   3.663  0.6166 -0.2627 -0.6286
  149OSM   H13G16567   2.279   3.178   3.783  0.2725 -1.1662  1.3368
  149OSM   C14F16568   2.086   3.087   3.838  0.3147  0.4274  0.1511
  149OSM   H14F16569   2.012   3.028   3.780 -1.5569  1.0175  1.8088
  149OSM   H14G16570   2.042   3.179   3.883  0.3903 -0.1232  1.4152
  149OSM   C15F16571   2.143   3.004   3.958  0.2320 -0.2974  0.1405
  149OSM   H15F16572   2.190   2.911   3.917  0.8675  0.8909 -1.9793
  149OSM   H15G16573   2.054   2.981   4.021  0.6029 -0.6818  0.5366
  149OSM   C16F16574   2.246   3.078   4.045 -0.3783 -0.3255  0.2815
  149OSM   H16F16575   2.326   3.098   3.970 -0.6578  1.3985  0.3917
  149OSM   H16G16576   2.286   3.007   4.120  0.0603 -0.4599 -0.0739
  149OSM   C17F16577   2.195   3.201   4.120  1.0984  0.0507 -0.4623
  149OSM   H17F16578   2.157   3.282   4.054  1.2749  1.0611  0.6295
  149OSM   H17G16579   2.288   3.239   4.169  0.6308  0.5277  0.0638
  149OSM   C18F16580   2.105   3.156   4.242 -0.6059 -0.1478  0.0499
  149OSM   H18F16581   2.150   3.076   4.304  1.2293  1.7206  1.2824
  149OSM   H18G16582   2.018   3.102   4.199 -0.5108 -0.0322 -0.2919
  149OSM   H18H16583   2.077   3.233   4.317  1.3716 -1.2682  2.0873
  150OSM      N16584   0.026   4.861   2.237 -0.1798  0.8534  0.1318
  150OSM    C1516585   0.033   4.758   2.348 -0.3695  0.0917 -0.5259
  150OSM   H15A16586  -0.059   4.738   2.401  0.5393 -0.5887  0.8571
  150OSM   H15B16587   0.106   4.787   2.422 -1.9350 -0.8433  1.4651
  150OSM   H15C16588   0.057   4.660   2.308 -2.4676 -1.0999  0.9465
  150OSM    C1416589   0.063   4.996   2.286  0.8699  0.3150 -0.0246
  150OSM   H14A16590  -0.018   5.052   2.331  1.4442  1.0557  0.1096
  150OSM   H14B16591   0.098   5.071   2.218  0.4931  1.3208  0.8618
  150OSM   H14C16592   0.140   4.984   2.362 -1.2160 -2.1229  1.8786
  150OSM    C1316593   0.135   4.815   2.145 -0.0011 -0.9256 -0.0161
  150OSM   H13A16594   0.124   4.712   2.112 -0.2031 -0.9100 -0.0015
  150OSM   H13B16595   0.229   4.824   2.197  0.9219 -0.8259 -1.6355
  150OSM   H13C16596   0.150   4.864   2.050 -0.8653  1.1536  0.8785
  150OSM    C1216597  -0.109   4.858   2.169 -0.2949  0.2363  0.3466
  150OSM   H12A16598  -0.132   4.761   2.127  1.2896  0.4945 -1.2365
  150OSM   H12B16599  -0.091   4.911   2.076  0.6806 -0.8285 -0.1104
  150OSM    C1116600  -0.226   4.912   2.242  0.0998  0.1164 -0.2399
  150OSM   H11A16601  -0.305   4.912   2.163  2.2155 -2.8245 -2.5649
  150OSM   H11B16602  -0.201   5.017   2.267 -1.2129  1.0222 -2.3843
  150OSM      P16603  -0.320   4.700   2.362  0.4602  0.0490  0.4727
  150OSM    O1316604  -0.451   4.707   2.298  0.1997 -0.0891 -0.1260
  150OSM    O1416605  -0.224   4.601   2.304 -0.3035 -0.5854 -0.7102
  150OSM    O1116606  -0.344   4.671   2.512 -0.5525 -0.1437 -0.6102
  150OSM    O1216607  -0.265   4.845   2.361  0.0420  0.2355  0.3677
  150OSM    C1S16608  -0.229   4.629   2.597 -0.3227  0.2909 -0.3366
  150OSM    H1S16609  -0.178   4.723   2.627 -0.2004  0.3131 -0.6091
  150OSM    H1T16610  -0.155   4.562   2.549 -0.1580 -1.3563  2.0160
  150OSM     NF16611  -0.172   4.530   2.820  0.4620  0.4894 -0.6466
  150OSM    HNF16612  -0.125   4.442   2.809 -1.7371 -0.8518 -0.0916
  150OSM    C2S16613  -0.281   4.553   2.728  0.6262  0.2403  0.7805
  150OSM    H2S16614  -0.349   4.626   2.777 -0.3404 -0.9138  1.2086
  150OSM    C3S16615  -0.364   4.427   2.692  0.7039  0.1570  0.1536
  150OSM    H3S16616  -0.301   4.339   2.666  0.6799  0.3216 -0.4891
  150OSM     O316617  -0.451   4.438   2.576 -0.6129  0.3124 -0.0334
  150OSM    HO316618  -0.429   4.526   2.544  2.8381 -0.8827 -1.3138
  150OSM    C4S16619  -0.440   4.382   2.812 -0.6323  0.0615  0.2226
  150OSM    H4S16620  -0.404   4.295   2.870 -0.2554  0.1918  0.1920
  150OSM    C5S16621  -0.547   4.452   2.853 -0.8361 -0.7265 -0.1348
  150OSM    H5S16622  -0.585   4.537   2.794  0.9202  1.3316  1.5076
  150OSM    C6S16623  -0.622   4.421   2.976  0.0505 -0.0083 -0.1637
  150OSM    H6S16624  -0.660   4.317   2.972 -0.1576  0.0553  0.1082
  150OSM    H6T16625  -0.718   4.478   2.979 -1.2233 -1.7973 -2.9439
  150OSM    C7S16626  -0.548   4.461   3.106  0.2045  0.1111 -0.4660
  150OSM    H7S16627  -0.620   4.456   3.190  1.6372 -3.9713  0.7601
  150OSM    H7T16628  -0.523   4.568   3.091 -0.2277  0.6361  2.1401
  150OSM    C8S16629  -0.417   4.384   3.132 -0.7301 -0.0822  1.1428
  150OSM    H8S16630  -0.348   4.422   3.053 -1.6912 -1.5119 -0.4563
  150OSM    H8T16631  -0.426   4.275   3.113  0.1364  0.3694 -2.7519
  150OSM    C9S16632  -0.355   4.424   3.270  0.5874 -0.5888 -0.8218
  150OSM    H9S16633  -0.345   4.534   3.280  2.4663 -0.8630  0.8012
  150OSM    H9T16634  -0.250   4.393   3.283  0.1616 -1.8369 -0.2011
  150OSM   C10S16635  -0.435   4.379   3.394 -0.2109  0.0953 -0.3518
  150OSM   H10S16636  -0.451   4.269   3.406 -2.2139  0.5319  1.6388
  150OSM   H10T16637  -0.529   4.434   3.414 -0.6940 -0.6471 -0.5300
  150OSM   C11S16638  -0.341   4.413   3.522  0.3536  0.2960 -0.1088
  150OSM   H11S16639  -0.321   4.521   3.515  0.8171  0.1985 -0.2996
  150OSM   H11T16640  -0.246   4.359   3.499  0.0146 -0.8124  0.9457
  150OSM   C12S16641  -0.395   4.367   3.659  0.1951  0.3626 -0.1381
  150OSM   H12S16642  -0.387   4.256   3.657  2.1128  0.4106  1.8425
  150OSM   H12T16643  -0.503   4.395   3.658 -0.4723 -1.8783  1.5612
  150OSM   C13S16644  -0.323   4.439   3.772  0.3593  0.2059 -0.2396
  150OSM   H13S16645  -0.355   4.544   3.782  2.6700  0.9929 -0.5067
  150OSM   H13T16646  -0.214   4.429   3.753  0.4274  1.1715 -0.3909
  150OSM   C14S16647  -0.339   4.367   3.906  0.1945  1.2445  0.4870
  150OSM   H14S16648  -0.277   4.412   3.986  1.2475 -0.2162  0.5302
  150OSM   H14T16649  -0.290   4.268   3.895 -0.0605  1.0833  0.7795
  150OSM   C15S16650  -0.489   4.351   3.945 -0.1862 -0.2425  0.1103
  150OSM   H15S16651  -0.535   4.296   3.860  1.7009  0.4891 -1.4750
  150OSM   H15T16652  -0.537   4.449   3.966 -0.2832 -0.1443 -0.5406
  150OSM   C16S16653  -0.512   4.258   4.063 -0.8049 -0.6401 -0.4170
  150OSM   H16S16654  -0.453   4.165   4.058  1.0131  0.2495  2.1903
  150OSM   H16T16655  -0.615   4.218   4.074 -0.1952 -2.0237  0.4888
  150OSM   C17S16656  -0.480   4.318   4.202  0.8913 -0.0233  0.5141
  150OSM   H17S16657  -0.534   4.415   4.213  1.4370  0.1923  1.4418
  150OSM   H17T16658  -0.374   4.352   4.198  0.9281 -0.2856 -1.1480
  150OSM   C18S16659  -0.503   4.220   4.312  0.2741 -0.0228 -0.5286
  150OSM   H18S16660  -0.609   4.186   4.308  0.1582 -0.1635  1.8959
  150OSM   H18T16661  -0.487   4.265   4.412  2.7832  1.0471 -1.3353
  150OSM   H18U16662  -0.426   4.142   4.298  3.1468  1.8013  3.1530
  150OSM    C1F16663  -0.106   4.631   2.883  0.0636  0.3185 -0.3536
  150OSM     OF16664  -0.139   4.749   2.872 -0.2034 -0.3058 -0.6657
  150OSM    C2F16665  -0.001   4.596   2.983  0.4163  0.2913  0.7855
  150OSM    H2F16666   0.085   4.667   2.979  1.8052 -1.3514  0.5795
  150OSM    H2G16667   0.037   4.494   2.963 -1.5749 -0.9224  2.8222
  150OSM    C3F16668  -0.058   4.590   3.119 -0.7329  0.4780 -0.1972
  150OSM    H3F16669  -0.113   4.496   3.139 -0.0920 -0.5770 -3.0657
  150OSM    H3G16670  -0.124   4.677   3.141 -2.0440 -0.6047  0.2334
  150OSM    C4F16671   0.059   4.582   3.229  0.0843 -0.1115  0.2586
  150OSM    H4F16672   0.108   4.681   3.227  1.6211 -0.8538 -0.1496
  150OSM    H4G16673   0.126   4.495   3.213  1.2892  0.6000  1.2475
  150OSM    C5F16674  -0.013   4.561   3.358  0.3871  0.0318 -0.0963
  150OSM    H5F16675  -0.059   4.460   3.364 -2.2083  1.1079 -0.3225
  150OSM    H5G16676  -0.098   4.631   3.369 -0.0239 -0.4336 -0.2550
  150OSM    C6F16677   0.070   4.585   3.483 -0.0370  0.0495 -0.6084
  150OSM    H6F16678   0.148   4.659   3.456  0.4932 -0.7824 -1.4097
  150OSM    H6G16679   0.125   4.489   3.493 -1.1144 -0.8530 -2.6368
  150OSM    C7F16680  -0.010   4.617   3.603  0.0723 -0.5303 -0.0951
  150OSM    H7F16681  -0.088   4.539   3.610  0.8940 -1.2340  2.5604
  150OSM    H7G16682  -0.065   4.712   3.584  0.0311 -0.0461  2.0963
  150OSM    C8F16683   0.068   4.626   3.741  0.1483  0.5331  0.3217
  150OSM    H8F16684  -0.018   4.653   3.807 -0.6811 -1.0753 -0.0227
  150OSM    H8G16685   0.128   4.719   3.739 -0.9135  1.3973  3.1058
  150OSM    C9F16686   0.152   4.508   3.778 -0.7331  0.3466  0.3068
  150OSM    H9F16687   0.195   4.449   3.695 -2.6398 -1.3641  0.4372
  150OSM   C10F16688   0.149   4.445   3.895  0.0536  0.1773 -0.6940
  150OSM   H10F16689   0.200   4.349   3.911 -1.0183 -0.6588 -2.0237
  150OSM   C11F16690   0.098   4.517   4.014  0.3264 -0.0457 -0.1338
  150OSM   H11F16691  -0.013   4.506   4.008  0.5853 -2.9521 -1.0912
  150OSM   H11G16692   0.126   4.624   4.006  2.0831 -0.5651 -1.2423
  150OSM   C12F16693   0.170   4.479   4.144  0.3597 -0.1536 -0.1826
  150OSM   H12F16694   0.279   4.496   4.134  0.8418 -1.6512  1.7412
  150OSM   H12G16695   0.158   4.370   4.161  0.4093 -0.1654 -0.2262
  150OSM   C13F16696   0.125   4.563   4.260 -0.8124  0.1245  0.4379
  150OSM   H13F16697   0.017   4.539   4.269 -0.5491 -1.0989  0.5500
  150OSM   H13G16698   0.147   4.669   4.236 -0.9729  0.0603  0.0007
  150OSM   C14F16699   0.196   4.532   4.393 -0.1903 -0.1547 -0.1919
  150OSM   H14F16700   0.302   4.564   4.403 -0.2447  0.7682 -2.0696
  150OSM   H14G16701   0.190   4.426   4.423  1.0931  0.1148  1.1195
  150OSM   C15F16702   0.129   4.619   4.497 -0.1306  0.4838  0.0960
  150OSM   H15F16703   0.023   4.631   4.465  0.1784  0.0064 -1.1686
  150OSM   H15G16704   0.164   4.724   4.497 -0.0443  0.4757  1.4382
  150OSM   C16F16705   0.130   4.552   4.633  0.0716 -0.3035  0.7167
  150OSM   H16F16706   0.225   4.573   4.686  0.3610 -0.5697  0.3054
  150OSM   H16G16707   0.120   4.442   4.635 -3.5919 -0.1432 -0.8957
  150OSM   C17F16708   0.008   4.588   4.715  0.8182 -0.2025 -0.2228
  150OSM   H17F16709  -0.076   4.553   4.651  0.1330  2.5808 -0.9595
  150OSM   H17G16710  -0.007   4.698   4.713 -2.6414 -0.5592 -2.6142
  150OSM   C18F16711  -0.006   4.533   4.855 -0.7624  0.1964 -0.0882
  150OSM   H18F16712  -0.102   4.567   4.899 -1.6128  0.5229 -2.0893
  150OSM   H18G16713   0.081   4.561   4.918 -1.1154 -0.6824  0.8089
  150OSM   H18H16714  -0.012   4.423   4.838  0.4416  0.1750 -0.5300
  151OSM      N16715   6.645   4.134   2.022 -0.0179 -0.0363 -0.0617
  151OSM    C1516716   6.508   4.133   1.968  0.2263 -0.3104 -0.1477
  151OSM   H15A16717   6.503   4.117   1.861 -2.3482  0.9288 -0.2995
  151OSM   H15B16718   6.460   4.224   2.001  1.8497  0.4915  0.1070
  151OSM   H15C16719   6.457   4.043   1.999 -1.4240  0.7776  0.4494
  151OSM    C1416720   6.728   4.033   1.957  0.5790  0.5384 -0.0065
  151OSM   H14A16721   6.831   4.053   1.982  0.9493 -1.2406  0.0028
  151OSM   H14B16722   6.724   4.053   1.851  1.0350  0.0659 -0.1164
  151OSM   H14C16723   6.699   3.936   1.993 -0.6380  0.4863 -1.0609
  151OSM    C1316724   6.698   4.273   1.997 -0.2127 -0.8169  0.4593
  151OSM   H13A16725   6.724   4.285   1.893  1.1519  3.3217  1.0769
  151OSM   H13B16726   6.783   4.299   2.059 -0.4340 -1.6931  1.1448
  151OSM   H13C16727   6.613   4.338   2.006  0.4057 -0.2307  2.6404
  151OSM    C1216728   6.651   4.103   2.164  0.2977 -0.0851  0.3678
  151OSM   H12A16729   6.619   4.196   2.209 -0.6376 -0.4545  0.4974
  151OSM   H12B16730   6.756   4.098   2.189 -0.0142 -0.0410  1.7810
  151OSM    C1116731   6.582   3.983   2.227  0.3022 -0.2827  0.8030
  151OSM   H11A16732   6.472   3.993   2.243  0.4512  0.7831  1.2106
  151OSM   H11B16733   6.623   3.974   2.330 -0.9286  1.1272  1.4462
  151OSM      P16734   6.515   3.776   2.076  0.1340 -0.1418 -0.0879
  151OSM    O1316735   6.407   3.842   2.008  0.0954  0.3516  0.1961
  151OSM    O1416736   6.586   3.668   2.007  0.1139 -0.4303 -0.3021
  151OSM    O1116737   6.436   3.712   2.197 -0.1999 -0.2451  0.3280
  151OSM    O1216738   6.617   3.872   2.149  0.5274  0.7615 -0.4166
  151OSM    C1S16739   6.500   3.669   2.322 -0.3317  0.1090  0.8585
  151OSM    H1S16740   6.606   3.699   2.333 -1.1075  2.7756  1.9073
  151OSM    H1T16741   6.496   3.558   2.322 -0.3482  0.1067  1.3508
  151OSM     NF16742   6.483   3.659   2.563 -0.3151  0.2443  0.3636
  151OSM    HNF16743   6.428   3.579   2.586 -2.4599  1.0528 -1.5593
  151OSM    C2S16744   6.428   3.726   2.444  0.0737 -0.0645 -1.0889
  151OSM    H2S16745   6.462   3.830   2.433  0.3107  0.1119  0.9183
  151OSM    C3S16746   6.270   3.726   2.447  0.2593  0.5007  0.4188
  151OSM    H3S16747   6.228   3.623   2.451 -0.4651  0.8147  1.1499
  151OSM     O316748   6.205   3.772   2.327 -0.0583 -0.6994  0.1814
  151OSM    HO316749   6.279   3.792   2.270 -0.0584 -0.3552  0.2956
  151OSM    C4S16750   6.210   3.797   2.567  0.3036  0.3091  0.1881
  151OSM    H4S16751   6.217   3.731   2.655 -1.2302 -1.0615 -0.6625
  151OSM    C5S16752   6.141   3.913   2.584  0.1677  0.5599 -0.5084
  151OSM    H5S16753   6.129   3.965   2.488 -2.1060  1.3110  0.1234
  151OSM    C6S16754   6.088   3.966   2.713  0.0873 -0.6058  0.1256
  151OSM    H6S16755   5.978   3.970   2.700  0.2325 -0.6458 -1.3101
  151OSM    H6T16756   6.131   4.068   2.718  1.0796 -1.0475  0.9772
  151OSM    C7S16757   6.136   3.897   2.842  0.5750 -0.0751 -0.1437
  151OSM    H7S16758   6.247   3.899   2.836  0.5338  0.3662 -1.0532
  151OSM    H7T16759   6.108   3.790   2.851 -0.7151  0.1250 -1.3834
  151OSM    C8S16760   6.093   3.985   2.960  0.2168 -0.0883 -0.4943
  151OSM    H8S16761   5.982   3.986   2.960  0.1436  2.5724  1.6324
  151OSM    H8T16762   6.107   4.094   2.943 -1.7686  0.6710  2.1143
  151OSM    C9S16763   6.134   3.936   3.093 -1.7326  0.1859  0.5209
  151OSM    H9S16764   6.239   3.900   3.095 -1.2918  1.1585 -1.7411
  151OSM    H9T16765   6.072   3.845   3.110 -0.7241 -0.9457 -1.4079
  151OSM   C10S16766   6.110   4.032   3.206 -0.0604 -0.2655 -1.2621
  151OSM   H10S16767   6.003   4.061   3.212  0.2448  0.6048  1.7784
  151OSM   H10T16768   6.161   4.126   3.176 -0.5916  0.0480 -1.2001
  151OSM   C11S16769   6.152   3.981   3.340 -0.6032  0.6697 -0.4887
  151OSM   H11S16770   6.257   3.955   3.367 -1.5293  0.4161  3.2983
  151OSM   H11T16771   6.101   3.883   3.350  0.3952  0.1250 -0.5755
  151OSM   C12S16772   6.118   4.063   3.465 -0.9843  0.1742 -0.4085
  151OSM   H12S16773   6.009   4.057   3.488 -1.3235  0.1145 -1.9521
  151OSM   H12T16774   6.143   4.168   3.437  0.9228 -0.2956 -0.6069
  151OSM   C13S16775   6.194   4.027   3.592 -0.3619  0.2966  0.0769
  151OSM   H13S16776   6.172   4.098   3.675 -0.1821  0.4400  0.0018
  151OSM   H13T16777   6.302   4.038   3.572 -0.5778 -0.1299 -1.4722
  151OSM   C14S16778   6.166   3.888   3.650 -0.1715 -0.0480 -0.3121
  151OSM   H14S16779   6.233   3.808   3.609 -0.4413 -0.9518  0.9653
  151OSM   H14T16780   6.066   3.843   3.628  0.6106 -2.4899  0.7640
  151OSM   C15S16781   6.189   3.875   3.803 -0.5611 -0.9158 -0.0064
  151OSM   H15S16782   6.134   3.948   3.865  1.1228 -0.5983  1.2063
  151OSM   H15T16783   6.296   3.905   3.810 -1.3343  2.0939  0.4173
  151OSM   C16S16784   6.178   3.734   3.859 -0.2182  0.7681 -0.3354
  151OSM   H16S16785   6.239   3.676   3.787  2.2858  1.7625  0.8859
  151OSM   H16T16786   6.074   3.696   3.862 -0.1379  0.2711 -2.4679
  151OSM   C17S16787   6.248   3.719   3.997  0.3629 -0.2988 -0.5208
  151OSM   H17S16788   6.206   3.798   4.063  3.4391  0.9669  0.1361
  151OSM   H17T16789   6.356   3.744   3.998 -0.1197  2.1887  1.9256
  151OSM   C18S16790   6.234   3.581   4.053 -0.0768  0.2201 -0.1952
  151OSM   H18S16791   6.296   3.570   4.145  1.8922  1.3677 -1.3221
  151OSM   H18T16792   6.274   3.508   3.979  0.3366  1.0549 -0.8084
  151OSM   H18U16793   6.129   3.560   4.082 -0.1909  1.3594  0.2590
  151OSM    C1F16794   6.608   3.673   2.600 -0.1032  0.4405  0.3111
  151OSM     OF16795   6.687   3.757   2.552  0.7522  0.4261  0.5210
  151OSM    C2F16796   6.658   3.583   2.702 -0.0591 -0.0054 -0.4235
  151OSM    H2F16797   6.656   3.477   2.667  0.2936  0.3685 -1.6181
  151OSM    H2G16798   6.596   3.592   2.794  0.5968 -0.0278  0.0242
  151OSM    C3F16799   6.800   3.612   2.752 -0.4634  0.1232 -0.0163
  151OSM    H3F16800   6.804   3.711   2.801  2.6312 -0.5473  1.3248
  151OSM    H3G16801   6.877   3.613   2.671 -0.1886  0.1358  0.2448
  151OSM    C4F16802   6.849   3.505   2.844 -0.6272 -0.1865 -0.7939
  151OSM    H4F16803   6.960   3.503   2.856 -0.6918 -1.4772 -0.3028
  151OSM    H4G16804   6.834   3.412   2.786  0.0711 -0.2288 -0.9156
  151OSM    C5F16805   6.780   3.513   2.986 -0.6330  0.7008 -0.9303
  151OSM    H5F16806   6.672   3.488   2.979  0.0447 -2.8458 -0.7374
  151OSM    H5G16807   6.792   3.611   3.037  1.1604 -0.9064  2.0210
  151OSM    C6F16808   6.825   3.403   3.085 -0.1223  0.5178  0.6175
  151OSM    H6F16809   6.932   3.423   3.106 -0.4373  1.8666  1.0740
  151OSM    H6G16810   6.825   3.307   3.029  0.2042  1.7373 -1.5581
  151OSM    C7F16811   6.739   3.405   3.212  0.0824  0.5921 -0.3415
  151OSM    H7F16812   6.631   3.407   3.187 -0.3231  1.6500  1.3282
  151OSM    H7G16813   6.755   3.504   3.260  1.6602  0.8550 -1.3278
  151OSM    C8F16814   6.760   3.286   3.306  0.2030 -0.1352 -0.6957
  151OSM    H8F16815   6.731   3.196   3.247  1.8184 -1.0840 -0.0932
  151OSM    H8G16816   6.685   3.289   3.388  0.8971  1.1444 -0.0892
  151OSM    C9F16817   6.905   3.268   3.356  1.6342 -0.1172 -0.3061
  151OSM    H9F16818   6.980   3.266   3.275  2.4857  0.3432  0.4491
  151OSM   C10F16819   6.950   3.261   3.481  0.4441 -0.1548  0.5225
  151OSM   H10F16820   7.059   3.249   3.484  0.5988  1.0267  0.3749
  151OSM   C11F16821   6.874   3.277   3.609  0.0297 -0.0672 -0.1964
  151OSM   H11F16822   6.767   3.250   3.603 -0.0537  0.3949 -0.8865
  151OSM   H11G16823   6.880   3.380   3.651 -1.2391  0.4729 -1.2882
  151OSM   C12F16824   6.950   3.182   3.708 -0.0177  0.2370 -0.3969
  151OSM   H12F16825   7.060   3.194   3.724 -0.4489 -0.2158  4.3912
  151OSM   H12G16826   6.928   3.080   3.669  1.0528 -0.1023 -0.1657
  151OSM   C13F16827   6.904   3.185   3.851  0.7166 -0.0437  0.2183
  151OSM   H13F16828   6.793   3.184   3.848  0.6991 -2.4894 -0.0158
  151OSM   H13G16829   6.930   3.289   3.880 -0.8985  0.4335  0.0466
  151OSM   C14F16830   6.959   3.082   3.941  0.5906 -0.5270 -0.5349
  151OSM   H14F16831   7.070   3.081   3.938  0.6496  0.5301  0.2902
  151OSM   H14G16832   6.925   2.987   3.898 -3.6576 -0.0785  1.3500
  151OSM   C15F16833   6.911   3.097   4.088  0.2510  0.2098  0.5511
  151OSM   H15F16834   6.947   3.002   4.132 -0.2005 -0.5982 -0.7841
  151OSM   H15G16835   6.800   3.093   4.087  0.0345  3.4214  0.5642
  151OSM   C16F16836   6.962   3.216   4.165 -0.0873 -0.0439 -0.0580
  151OSM   H16F16837   6.902   3.306   4.142  1.8972  1.9877  2.0780
  151OSM   H16G16838   7.071   3.232   4.153  0.3511 -1.4975  1.4711
  151OSM   C17F16839   6.939   3.205   4.316 -0.2992 -0.4788  0.2120
  151OSM   H17F16840   6.829   3.189   4.323 -0.3732  0.1103  0.4535
  151OSM   H17G16841   6.974   3.297   4.368  1.4508 -1.5535  1.0382
  151OSM   C18F16842   7.017   3.094   4.384  0.3394  0.6269  0.2116
  151OSM   H18F16843   7.029   3.124   4.490 -4.4944  0.5173  0.9717
  151OSM   H18G16844   7.123   3.077   4.352  0.5308  0.4800  0.9039
  151OSM   H18H16845   6.947   3.008   4.384  1.1410 -0.2215  3.8885
  152OSM      N16846   1.484   4.720   2.255  0.4415 -0.1826  0.7055
  152OSM    C1516847   1.481   4.600   2.164  0.0125  0.5034 -0.8396
  152OSM   H15A16848   1.562   4.609   2.093  0.4968  2.4725 -0.1213
  152OSM   H15B16849   1.397   4.604   2.096  0.6427 -0.3170 -1.6668
  152OSM   H15C16850   1.473   4.514   2.228 -0.0388  0.0867 -1.3996
  152OSM    C1416851   1.449   4.840   2.170 -0.3712  0.3649 -0.1165
  152OSM   H14A16852   1.489   4.832   2.070 -0.4512  0.6979 -0.1771
  152OSM   H14B16853   1.476   4.934   2.214  1.8871 -0.6453  0.7589
  152OSM   H14C16854   1.341   4.844   2.163 -0.3644 -0.6874 -1.2091
  152OSM    C1316855   1.384   4.703   2.361  0.3457  0.1305 -0.0156
  152OSM   H13A16856   1.383   4.789   2.427  0.4390  0.4365 -0.4068
  152OSM   H13B16857   1.401   4.604   2.401 -1.6095 -0.6625 -1.0319
  152OSM   H13C16858   1.285   4.708   2.319 -0.3089  2.6414  1.5629
  152OSM    C1216859   1.628   4.733   2.304  0.2232 -0.0742  0.4529
  152OSM   H12A16860   1.688   4.742   2.215 -1.5845 -0.6799 -0.8732
  152OSM   H12B16861   1.676   4.644   2.340  1.8806  0.6326  0.0974
  152OSM    C1116862   1.660   4.848   2.410  0.0117  0.1585 -0.1133
  152OSM   H11A16863   1.765   4.843   2.444  0.4516  0.8227 -1.3167
  152OSM   H11B16864   1.595   4.835   2.500  0.6909 -1.5050  0.1674
  152OSM      P16865   1.719   5.062   2.259  0.7328  0.1806 -0.1680
  152OSM    O1316866   1.813   4.968   2.205  0.1900 -0.1770  0.3881
  152OSM    O1416867   1.633   5.139   2.168 -0.6723  0.2765 -0.3253
  152OSM    O1116868   1.807   5.151   2.356 -0.0990 -0.1637 -0.1929
  152OSM    O1216869   1.622   4.979   2.353 -0.5066  0.0807 -0.0048
  152OSM    C1S16870   1.784   5.147   2.499  0.6962 -0.1209  0.0539
  152OSM    H1S16871   1.810   5.047   2.540  0.7373  0.2248  0.8972
  152OSM    H1T16872   1.676   5.158   2.523  0.6827 -0.5481  0.2011
  152OSM     NF16873   1.811   5.263   2.708 -0.1843  0.3202  0.0045
  152OSM    HNF16874   1.744   5.332   2.734  0.0622  0.4677  0.2493
  152OSM    C2S16875   1.857   5.258   2.575 -0.0703 -0.0084  0.0516
  152OSM    H2S16876   1.962   5.222   2.566 -0.0660  0.0701 -0.2474
  152OSM    C3S16877   1.850   5.401   2.512 -0.3331  1.0640 -0.3789
  152OSM    H3S16878   1.742   5.426   2.522 -0.8323  0.1626 -2.8084
  152OSM     O316879   1.854   5.404   2.369  0.3017  0.9103 -0.2466
  152OSM    HO316880   1.884   5.315   2.348 -0.7871  0.0618  1.5973
  152OSM    C4S16881   1.954   5.500   2.568  0.7954 -0.5757  0.4423
  152OSM    H4S16882   1.913   5.568   2.645  0.1768  0.6073 -0.8793
  152OSM    C5S16883   2.074   5.529   2.510  0.3582 -0.3409  0.5045
  152OSM    H5S16884   2.100   5.464   2.425  0.7507  2.8369 -1.9889
  152OSM    C6S16885   2.174   5.631   2.559  0.2085  0.9500  0.3938
  152OSM    H6S16886   2.191   5.708   2.481  1.1315  1.3777  1.0038
  152OSM    H6T16887   2.274   5.582   2.556  0.6435  1.8604 -0.9466
  152OSM    C7S16888   2.139   5.704   2.688 -0.3821 -0.4421  0.3130
  152OSM    H7S16889   2.137   5.637   2.776  3.5259  0.1141  1.0076
  152OSM    H7T16890   2.045   5.762   2.675  0.7765  1.0599 -1.8588
  152OSM    C8S16891   2.251   5.801   2.721  0.0233  0.8681  0.3144
  152OSM    H8S16892   2.259   5.879   2.643  0.5329  0.8085  0.3035
  152OSM    H8T16893   2.344   5.740   2.716  0.3839  1.1793  2.3466
  152OSM    C9S16894   2.246   5.864   2.853 -0.1797  0.5876 -0.7177
  152OSM    H9S16895   2.186   5.799   2.920  1.1846 -0.4511 -0.4507
  152OSM    H9T16896   2.194   5.962   2.843 -1.1286  0.0604 -1.1702
  152OSM   C10S16897   2.388   5.889   2.913  0.0895  0.4839  0.5724
  152OSM   H10S16898   2.448   5.961   2.853 -0.2741  0.4131  0.1175
  152OSM   H10T16899   2.449   5.796   2.920  2.4507  1.8120 -0.8892
  152OSM   C11S16900   2.374   5.947   3.056 -0.3234 -0.4509  0.4334
  152OSM   H11S16901   2.312   5.878   3.116  0.3908 -1.9254 -0.4623
  152OSM   H11T16902   2.335   6.049   3.035 -2.8440 -1.2716  0.8337
  152OSM   C12S16903   2.517   5.972   3.123 -0.8328 -0.4680 -0.2005
  152OSM   H12S16904   2.547   6.078   3.113 -2.0699 -0.0010  0.7156
  152OSM   H12T16905   2.595   5.907   3.078 -1.8811 -1.7412 -0.2560
  152OSM   C13S16906   2.522   5.950   3.274  0.3239  0.0881  1.0717
  152OSM   H13S16907   2.478   6.037   3.328  1.4851 -0.0433  2.2939
  152OSM   H13T16908   2.632   5.944   3.289  0.2477 -0.5433  1.4348
  152OSM   C14S16909   2.469   5.814   3.328  0.1604 -0.3342  0.4702
  152OSM   H14S16910   2.493   5.735   3.254  1.3888 -1.6421  2.1788
  152OSM   H14T16911   2.358   5.814   3.334 -0.0795  1.0169 -2.3384
  152OSM   C15S16912   2.531   5.785   3.466  0.2041 -0.2210  0.5919
  152OSM   H15S16913   2.517   5.880   3.523  0.1392 -0.3334  0.7626
  152OSM   H15T16914   2.642   5.780   3.462  0.3222  1.5697 -2.8372
  152OSM   C16S16915   2.494   5.655   3.528  0.5299 -0.4391 -0.8725
  152OSM   H16S16916   2.501   5.569   3.458 -0.3341 -1.5805  0.3961
  152OSM   H16T16917   2.393   5.660   3.572  1.7924  1.2804  2.1313
  152OSM   C17S16918   2.567   5.618   3.654  0.4833  0.2180 -0.7295
  152OSM   H17S16919   2.542   5.690   3.735 -0.0331  0.9825 -1.5563
  152OSM   H17T16920   2.674   5.632   3.629  0.8996  3.6320  2.1666
  152OSM   C18S16921   2.530   5.478   3.707 -0.4300 -0.1401 -0.2870
  152OSM   H18S16922   2.520   5.476   3.817 -1.0923 -2.9731 -0.3162
  152OSM   H18T16923   2.618   5.412   3.693  0.6102  0.8633  1.2163
  152OSM   H18U16924   2.440   5.423   3.671 -0.1912 -0.8076  0.1270
  152OSM    C1F16925   1.823   5.154   2.789 -0.0842  1.0285  0.2178
  152OSM     OF16926   1.912   5.071   2.758  0.2262  0.3426  0.0396
  152OSM    C2F16927   1.733   5.134   2.909 -0.6428  1.1527  0.0706
  152OSM    H2F16928   1.642   5.079   2.877  0.2544 -0.7559  0.5890
  152OSM    H2G16929   1.707   5.236   2.943  1.7178  1.9032 -0.1976
  152OSM    C3F16930   1.810   5.056   3.022 -0.5082 -0.2388 -1.5172
  152OSM    H3F16931   1.908   5.103   3.044  0.2923 -2.6798  0.6984
  152OSM    H3G16932   1.832   4.948   3.007  3.0523 -0.1165  1.3494
  152OSM    C4F16933   1.734   5.062   3.158 -0.8817  0.2763  0.1923
  152OSM    H4F16934   1.629   5.028   3.155 -1.2327  1.3872 -2.1352
  152OSM    H4G16935   1.721   5.172   3.168 -1.7839  0.1137  0.9570
  152OSM    C5F16936   1.810   4.997   3.269 -0.5290  0.5578  0.1534
  152OSM    H5F16937   1.913   5.040   3.268 -0.2078 -0.2023  0.1310
  152OSM    H5G16938   1.826   4.888   3.255  1.6035  0.6450  1.4501
  152OSM    C6F16939   1.757   5.037   3.407  0.7089 -0.4073  0.5181
  152OSM    H6F16940   1.654   4.995   3.412 -0.3074  1.6507 -1.4762
  152OSM    H6G16941   1.737   5.146   3.415 -1.4033 -0.4677 -2.3322
  152OSM    C7F16942   1.850   4.973   3.511 -0.0229 -0.1670  0.0121
  152OSM    H7F16943   1.955   5.008   3.510  0.6361 -2.0089  0.8873
  152OSM    H7G16944   1.849   4.864   3.488  3.1332 -0.1410 -0.5884
  152OSM    C8F16945   1.793   4.978   3.654  0.9475 -0.0639 -0.6767
  152OSM    H8F16946   1.852   4.913   3.723 -0.3524  1.9936  2.5922
  152OSM    H8G16947   1.688   4.943   3.664  0.2250  1.8842 -1.0725
  152OSM    C9F16948   1.784   5.120   3.694 -0.6460 -0.0073  0.0513
  152OSM    H9F16949   1.718   5.181   3.630 -1.6237  0.1691  1.1872
  152OSM   C10F16950   1.838   5.176   3.801  0.5314 -0.6518  0.4968
  152OSM   H10F16951   1.835   5.285   3.791  1.9779 -0.7772 -2.6315
  152OSM   C11F16952   1.927   5.105   3.892 -0.9279  0.1869  0.3175
  152OSM   H11F16953   2.034   5.130   3.873 -0.4376 -0.2216  2.3360
  152OSM   H11G16954   1.905   4.996   3.895  0.0889 -0.0048  1.1470
  152OSM   C12F16955   1.901   5.149   4.040 -0.4669  0.5127  0.5028
  152OSM   H12F16956   1.885   5.259   4.044 -0.8377  0.4791  0.0034
  152OSM   H12G16957   1.984   5.129   4.112 -0.0467 -0.6548 -0.2752
  152OSM   C13F16958   1.777   5.085   4.098 -0.0028  0.4065 -0.7505
  152OSM   H13F16959   1.787   4.974   4.105  1.4383  0.4580 -1.5098
  152OSM   H13G16960   1.687   5.112   4.039 -1.4013 -1.5221  0.3966
  152OSM   C14F16961   1.748   5.131   4.242  0.5723  0.4232  0.0779
  152OSM   H14F16962   1.722   5.238   4.232 -1.5808 -0.1152 -0.5543
  152OSM   H14G16963   1.841   5.126   4.303  1.5054 -1.1984 -1.3670
  152OSM   C15F16964   1.632   5.049   4.318  0.0649 -0.4504  0.9237
  152OSM   H15F16965   1.658   4.942   4.309  1.6458 -0.1566  1.7701
  152OSM   H15G16966   1.540   5.071   4.259  1.0579 -1.0744 -0.9404
  152OSM   C16F16967   1.608   5.081   4.465 -0.3502 -0.2387 -0.2917
  152OSM   H16F16968   1.573   5.185   4.479  1.7617  0.2658  1.7766
  152OSM   H16G16969   1.708   5.073   4.513 -0.1777 -1.5783 -0.8249
  152OSM   C17F16970   1.510   4.985   4.525  0.3461  0.4417  0.1302
  152OSM   H17F16971   1.416   4.989   4.465 -0.0566 -0.3288  0.7023
  152OSM   H17G16972   1.475   5.014   4.627 -3.1180 -0.7077 -0.5866
  152OSM   C18F16973   1.548   4.837   4.530 -0.1231  0.2059  0.2657
  152OSM   H18F16974   1.637   4.814   4.593 -0.5274  0.3497  0.8996
  152OSM   H18G16975   1.561   4.783   4.435 -0.4187 -0.9469  0.8631
  152OSM   H18H16976   1.473   4.785   4.594  0.0874  0.5434  0.8033
  153OSM      N16977   1.378   5.445   2.257 -1.0985 -0.0450  0.1172
  153OSM    C1516978   1.304   5.319   2.217  0.4158 -0.4877 -0.7987
  153OSM   H15A16979   1.207   5.335   2.174 -0.1040  1.5626  0.9830
  153OSM   H15B16980   1.295   5.265   2.311 -0.9340 -2.2774 -1.9051
  153OSM   H15C16981   1.361   5.272   2.138  0.2870 -1.4370 -0.3372
  153OSM    C1416982   1.505   5.407   2.312 -0.4458 -0.0438 -0.2281
  153OSM   H14A16983   1.486   5.338   2.393 -1.2279  0.7096  0.2477
  153OSM   H14B16984   1.556   5.495   2.346 -0.5427  0.3142 -0.9938
  153OSM   H14C16985   1.570   5.351   2.247 -2.5095 -1.3352 -1.2876
  153OSM    C1316986   1.411   5.528   2.138  0.4988 -0.1108  0.5270
  153OSM   H13A16987   1.324   5.588   2.115  2.0471  1.4843 -1.5774
  153OSM   H13B16988   1.438   5.477   2.047 -0.5616 -0.7004  0.5204
  153OSM   H13C16989   1.495   5.593   2.156  0.1817  0.6831 -0.7025
  153OSM    C1216990   1.309   5.522   2.359 -0.3320  0.2497  0.4030
  153OSM   H12A16991   1.217   5.555   2.313  0.6597  0.4570 -1.5698
  153OSM   H12B16992   1.370   5.610   2.372 -0.4858  0.2958  0.8034
  153OSM    C1116993   1.285   5.467   2.500  0.1908 -0.4659  0.5411
  153OSM   H11A16994   1.245   5.541   2.574  2.0545 -0.3806  1.5229
  153OSM   H11B16995   1.389   5.454   2.538 -0.0168  0.8491  1.6760
  153OSM      P16996   1.049   5.333   2.477 -0.1091 -0.4706  0.4393
  153OSM    O1316997   1.005   5.373   2.339  0.0602 -0.1680 -0.5169
  153OSM    O1416998   0.996   5.200   2.516 -0.2810  0.1343 -0.2314
  153OSM    O1116999   1.002   5.439   2.577  0.0355  0.2855  0.3328
  153OSM    O1217000   1.210   5.345   2.492  0.0872 -0.1728  0.6566
  153OSM    C1S17001   1.021   5.416   2.719  0.0491 -0.6279 -0.3862
  153OSM    H1S17002   1.115   5.361   2.741  0.0333  0.2515  2.1999
  153OSM    H1T17003   0.927   5.363   2.746 -0.8789  1.1232 -0.0156
  153OSM     NF17004   1.063   5.522   2.941  0.0935 -0.1117 -0.4270
  153OSM    HNF17005   0.988   5.529   3.007 -0.4928  0.1942 -1.1044
  153OSM    C2S17006   1.025   5.548   2.802 -0.4664  0.4821 -0.5160
  153OSM    H2S17007   1.114   5.595   2.755  0.9128 -2.4293 -1.0476
  153OSM    C3S17008   0.897   5.640   2.778 -0.5365  0.5888  0.6369
  153OSM    H3S17009   0.802   5.588   2.805  0.1813  0.2274  2.6306
  153OSM     O317010   0.875   5.673   2.641  0.3324 -0.5038  0.0623
  153OSM    HO317011   0.923   5.603   2.594 -0.6193 -0.6617 -0.6910
  153OSM    C4S17012   0.902   5.754   2.869  0.0339  0.0658  0.2073
  153OSM    H4S17013   0.855   5.726   2.964  2.2977 -2.1842  0.8116
  153OSM    C5S17014   0.959   5.879   2.857  0.1020  0.0372  0.1600
  153OSM    H5S17015   1.012   5.906   2.765  0.6613  1.3285  0.8324
  153OSM    C6S17016   0.963   5.987   2.954 -0.3447 -0.2664 -0.1043
  153OSM    H6S17017   0.901   6.075   2.924  0.1756  0.1567  0.0447
  153OSM    H6T17018   1.069   6.020   2.954 -0.7362  1.0751  0.5667
  153OSM    C7S17019   0.935   5.962   3.101  0.6238 -0.2096  0.4243
  153OSM    H7S17020   0.985   5.873   3.143  3.0553  0.4781 -0.8058
  153OSM    H7T17021   0.824   5.955   3.092  0.7488  0.1928 -2.8767
  153OSM    C8S17022   0.953   6.075   3.199  0.5163 -0.6324 -0.1164
  153OSM    H8S17023   0.891   6.158   3.159  1.3447 -0.9227 -2.1475
  153OSM    H8T17024   1.058   6.112   3.202  0.0217  0.8311 -0.0047
  153OSM    C9S17025   0.900   6.043   3.333 -0.7212  1.5432 -0.1806
  153OSM    H9S17026   0.969   5.959   3.357 -1.2610  0.2597 -2.7928
  153OSM    H9T17027   0.800   6.003   3.358  0.9287 -1.8467  1.6322
  153OSM   C10S17028   0.927   6.157   3.441 -0.0142  0.1969  0.7498
  153OSM   H10S17029   0.865   6.246   3.416  0.2353 -0.1971 -1.4186
  153OSM   H10T17030   1.032   6.194   3.436 -0.8807  3.0097  1.5182
  153OSM   C11S17031   0.910   6.095   3.580  0.3379  0.1568  0.1813
  153OSM   H11S17032   0.988   6.015   3.582  0.4354  0.2679  1.5120
  153OSM   H11T17033   0.814   6.039   3.576 -0.6345  1.4756  2.7058
  153OSM   C12S17034   0.927   6.202   3.695  0.4303  0.3974  0.8430
  153OSM   H12S17035   0.836   6.265   3.686 -0.4695 -1.1582 -1.9901
  153OSM   H12T17036   1.022   6.257   3.673 -0.7927  2.5101  0.5697
  153OSM   C13S17037   0.941   6.143   3.839  0.2685 -0.0405 -0.7439
  153OSM   H13S17038   1.027   6.073   3.844  0.0682 -0.2045  2.2344
  153OSM   H13T17039   0.847   6.088   3.860  1.2754 -2.0569 -1.2506
  153OSM   C14S17040   0.935   6.258   3.941  0.2806 -0.5240 -1.0772
  153OSM   H14S17041   0.841   6.316   3.946  0.2426 -0.6894  1.7917
  153OSM   H14T17042   1.013   6.331   3.912 -1.1978  1.2241 -0.8452
  153OSM   C15S17043   0.962   6.198   4.079 -0.4474  0.7933 -0.1191
  153OSM   H15S17044   1.058   6.144   4.067 -1.1237  0.1265 -3.7819
  153OSM   H15T17045   0.888   6.121   4.109  1.2593 -0.8177  0.1026
  153OSM   C16S17046   0.989   6.299   4.193  0.2642 -0.4857  0.6051
  153OSM   H16S17047   0.935   6.392   4.166 -0.9581 -1.7761 -1.6774
  153OSM   H16T17048   1.096   6.327   4.185  0.2591 -0.7394 -0.5097
  153OSM   C17S17049   0.964   6.249   4.335 -0.1698 -0.2595  0.7217
  153OSM   H17S17050   1.045   6.179   4.362  0.2986  0.4428  1.1886
  153OSM   H17T17051   0.871   6.189   4.337  0.5106 -1.3167  1.3814
  153OSM   C18S17052   0.960   6.367   4.435  0.1176  0.4861 -0.5341
  153OSM   H18S17053   1.054   6.426   4.437  0.7998 -0.5894 -0.1039
  153OSM   H18T17054   0.961   6.316   4.533 -1.2934 -0.0857 -0.7873
  153OSM   H18U17055   0.879   6.442   4.424  0.0967  0.9431  2.2013
  153OSM    C1F17056   1.189   5.478   2.969  0.1172 -0.0977  0.2851
  153OSM     OF17057   1.279   5.471   2.882 -0.0578 -0.3732 -0.4477
  153OSM    C2F17058   1.209   5.462   3.113 -0.3612  0.1113 -0.8315
  153OSM    H2F17059   1.171   5.362   3.144  0.3417 -0.3708 -1.4756
  153OSM    H2G17060   1.150   5.539   3.167  2.1615  0.7307  1.2401
  153OSM    C3F17061   1.355   5.486   3.159 -0.5487 -0.1982  0.1604
  153OSM    H3F17062   1.374   5.594   3.142 -1.0448 -0.0392  0.5766
  153OSM    H3G17063   1.424   5.429   3.094 -1.1740  0.0702 -0.7597
  153OSM    C4F17064   1.379   5.438   3.303 -0.4647 -0.2095 -0.3012
  153OSM    H4F17065   1.355   5.330   3.311  1.8443 -0.6686  1.4560
  153OSM    H4G17066   1.319   5.509   3.365 -0.5207  0.9970 -1.6777
  153OSM    C5F17067   1.530   5.457   3.330  1.4736  1.1055 -0.1153
  153OSM    H5F17068   1.565   5.558   3.298  1.2138  1.0609 -0.5542
  153OSM    H5G17069   1.577   5.381   3.265  0.3924 -0.4506  0.8503
  153OSM    C6F17070   1.578   5.433   3.470 -0.2686  0.7073 -0.4376
  153OSM    H6F17071   1.689   5.428   3.467 -0.2951 -1.7254  0.2191
  153OSM    H6G17072   1.547   5.331   3.501  0.7500  0.5518  0.1199
  153OSM    C7F17073   1.527   5.533   3.570 -0.1767 -0.9296 -0.1666
  153OSM    H7F17074   1.421   5.524   3.603  0.2444 -3.5391  0.7241
  153OSM    H7G17075   1.513   5.627   3.511 -0.9351 -1.5706 -1.0384
  153OSM    C8F17076   1.632   5.547   3.683 -0.0656  0.1106 -0.2393
  153OSM    H8F17077   1.727   5.579   3.634  1.3040 -1.6645  1.1147
  153OSM    H8G17078   1.664   5.456   3.738  2.8774  1.8900  1.2670
  153OSM    C9F17079   1.578   5.659   3.767  0.2021  0.3393  0.5918
  153OSM    H9F17080   1.535   5.742   3.709  1.5998  1.7613  1.5128
  153OSM   C10F17081   1.578   5.673   3.900 -0.1744 -0.2986  0.5893
  153OSM   H10F17082   1.528   5.757   3.950 -1.0422 -1.1952  1.2502
  153OSM   C11F17083   1.626   5.569   3.993  0.7044  0.0234  0.6024
  153OSM   H11F17084   1.704   5.510   3.940 -0.8257 -1.6225  0.1242
  153OSM   H11G17085   1.546   5.493   4.002  0.2293  0.2321 -1.3801
  153OSM   C12F17086   1.682   5.620   4.131 -0.0739 -0.3156 -0.8725
  153OSM   H12F17087   1.607   5.683   4.183 -1.1486 -1.5631 -0.8368
  153OSM   H12G17088   1.770   5.683   4.108 -1.2417  1.2066 -1.3372
  153OSM   C13F17089   1.713   5.508   4.234 -0.2336  0.5890 -0.0653
  153OSM   H13F17090   1.795   5.441   4.201 -1.7003 -2.2017  1.6193
  153OSM   H13G17091   1.619   5.449   4.238  1.7669 -2.9768 -1.3141
  153OSM   C14F17092   1.747   5.571   4.369  0.0284  0.1752 -0.0541
  153OSM   H14F17093   1.652   5.617   4.403 -0.1402 -0.1590 -0.0626
  153OSM   H14G17094   1.824   5.650   4.378 -1.2082  1.2094  2.3244
  153OSM   C15F17095   1.784   5.454   4.463  0.4733  0.7552  0.3524
  153OSM   H15F17096   1.878   5.405   4.428 -1.1519 -0.9881 -1.8849
  153OSM   H15G17097   1.706   5.376   4.462 -0.7163  1.7149  4.1011
  153OSM   C16F17098   1.807   5.489   4.610  0.4892 -0.5949  0.1023
  153OSM   H16F17099   1.722   5.557   4.634 -0.2670 -1.2696 -0.5605
  153OSM   H16G17100   1.902   5.545   4.619 -0.2817  1.2103 -1.9643
  153OSM   C17F17101   1.808   5.364   4.703 -0.7421  0.4073  0.2552
  153OSM   H17F17102   1.869   5.289   4.649 -1.7602  0.1831 -0.6039
  153OSM   H17G17103   1.710   5.313   4.695 -0.5823  0.0173  0.7171
  153OSM   C18F17104   1.862   5.392   4.840  0.0636 -0.4887 -0.4677
  153OSM   H18F17105   1.879   5.301   4.901  0.9717 -0.3285 -0.4679
  153OSM   H18G17106   1.796   5.464   4.894  0.0852 -2.1285  1.9116
  153OSM   H18H17107   1.959   5.445   4.831 -0.1320 -0.3537 -1.9414
  154OSM      N17108   6.293   2.996   2.005 -0.5135  0.2011  0.1960
  154OSM    C1517109   6.334   2.952   1.868 -0.1268  0.4751  0.0021
  154OSM   H15A17110   6.379   2.855   1.887 -2.5733 -0.2821  2.6586
  154OSM   H15B17111   6.403   3.023   1.826 -1.6612  1.3604 -1.0871
  154OSM   H15C17112   6.247   2.962   1.805  0.3440 -0.8345 -0.9139
  154OSM    C1417113   6.229   3.129   1.983 -0.6461 -0.5611  0.3035
  154OSM   H14A17114   6.197   3.185   2.070 -0.4477  0.2189 -0.1220
  154OSM   H14B17115   6.137   3.116   1.927 -0.6398  1.8981 -0.4010
  154OSM   H14C17116   6.282   3.189   1.911  0.5658 -0.8550  0.9236
  154OSM    C1317117   6.203   2.894   2.061  0.0880 -0.0370  0.1263
  154OSM   H13A17118   6.167   2.926   2.157 -0.1646 -0.2658  0.1098
  154OSM   H13B17119   6.255   2.802   2.082  0.8472  0.5273  0.7844
  154OSM   H13C17120   6.117   2.884   1.997  0.2607  0.6475 -0.2234
  154OSM    C1217121   6.415   3.009   2.099  0.2752 -0.1884  0.9939
  154OSM   H12A17122   6.482   3.082   2.055 -0.1924 -0.1735  0.2725
  154OSM   H12B17123   6.475   2.920   2.092  0.8545  0.2572  0.1159
  154OSM    C1117124   6.372   3.035   2.248  0.2062 -0.4933  0.9527
  154OSM   H11A17125   6.465   3.057   2.303 -0.3284 -1.1672  2.1600
  154OSM   H11B17126   6.326   2.947   2.299 -1.3759  1.1059  2.4243
  154OSM      P17127   6.324   3.283   2.289 -0.2705  0.0517 -0.7379
  154OSM    O1317128   6.466   3.302   2.253 -0.1436  0.7517  0.6536
  154OSM    O1417129   6.219   3.368   2.232 -0.2577 -0.4412  0.1496
  154OSM    O1117130   6.307   3.290   2.453 -0.3110 -0.0585 -0.0312
  154OSM    O1217131   6.273   3.138   2.262 -0.1424  0.3016 -0.1249
  154OSM    C1S17132   6.200   3.234   2.524  0.4904  0.5491  0.1837
  154OSM    H1S17133   6.198   3.124   2.509 -2.3717  0.6022 -0.3270
  154OSM    H1T17134   6.110   3.277   2.477  0.5254 -0.3335 -0.7329
  154OSM     NF17135   6.083   3.212   2.746 -0.4293  0.2523  0.0324
  154OSM    HNF17136   6.028   3.285   2.787 -0.5057  0.0528  0.2929
  154OSM    C2S17137   6.205   3.261   2.681  0.4190 -0.1771 -0.4598
  154OSM    H2S17138   6.294   3.211   2.724  1.0568  2.6102  1.7937
  154OSM    C3S17139   6.236   3.412   2.711  0.0207  0.1379  0.8807
  154OSM    H3S17140   6.158   3.475   2.664 -1.1615 -1.4505  0.6614
  154OSM     O317141   6.359   3.446   2.650 -0.1289  0.1814 -0.0177
  154OSM    HO317142   6.364   3.382   2.578  0.1126  0.1651  0.0137
  154OSM    C4S17143   6.236   3.449   2.861 -0.7429 -0.2710  0.2690
  154OSM    H4S17144   6.137   3.481   2.895 -0.4041 -0.5383  1.5413
  154OSM    C5S17145   6.342   3.441   2.949  0.1838  0.5963 -0.2688
  154OSM    H5S17146   6.440   3.410   2.910 -0.2022  0.4584 -1.1416
  154OSM    C6S17147   6.323   3.481   3.096 -1.1310  0.0347 -0.7851
  154OSM    H6S17148   6.364   3.407   3.169 -1.7730  0.3380 -0.0989
  154OSM    H6T17149   6.217   3.494   3.126 -0.8690  0.0272  0.2065
  154OSM    C7S17150   6.394   3.610   3.136  0.4121 -0.4114  0.1572
  154OSM    H7S17151   6.369   3.700   3.075  0.6420  0.3071  1.0892
  154OSM    H7T17152   6.501   3.591   3.117 -0.5691 -4.9004 -2.2580
  154OSM    C8S17153   6.366   3.639   3.288 -0.0432 -0.7759  0.9708
  154OSM    H8S17154   6.268   3.596   3.315 -0.1310 -0.1253  1.6963
  154OSM    H8T17155   6.368   3.747   3.316  3.1115 -0.4402 -0.1709
  154OSM    C9S17156   6.467   3.564   3.374 -0.1357 -0.1514 -0.0537
  154OSM    H9S17157   6.555   3.631   3.389 -1.9630  1.8348  2.7432
  154OSM    H9T17158   6.501   3.465   3.338  2.5159  0.6294  0.0414
  154OSM   C10S17159   6.417   3.544   3.520  0.1937  0.3327  0.1105
  154OSM   H10S17160   6.325   3.481   3.523 -0.0412  0.6972  0.8135
  154OSM   H10T17161   6.407   3.636   3.582 -1.7851  1.5479 -1.8720
  154OSM   C11S17162   6.518   3.460   3.603  0.3946  0.2179  0.9364
  154OSM   H11S17163   6.616   3.511   3.594  1.5018 -2.0637 -1.0046
  154OSM   H11T17164   6.545   3.366   3.550  0.7486 -0.3188  2.0316
  154OSM   C12S17165   6.494   3.448   3.753  0.9583 -0.5901 -0.4195
  154OSM   H12S17166   6.397   3.396   3.764  0.1158  0.6555 -1.6405
  154OSM   H12T17167   6.462   3.547   3.792 -0.3050 -1.4004  0.7207
  154OSM   C13S17168   6.606   3.387   3.843  0.4718 -0.0783 -0.2830
  154OSM   H13S17169   6.694   3.455   3.842  0.2129  0.4913  3.0573
  154OSM   H13T17170   6.632   3.286   3.805  0.8178 -0.6055  1.2777
  154OSM   C14S17171   6.571   3.361   3.993  0.3653  0.1762 -0.1899
  154OSM   H14S17172   6.636   3.277   4.027 -1.0391 -0.9046 -0.1146
  154OSM   H14T17173   6.473   3.313   4.010  1.8431 -1.9173  4.0191
  154OSM   C15S17174   6.604   3.483   4.084  0.4247  0.0583 -0.2738
  154OSM   H15S17175   6.527   3.558   4.058 -0.0919 -0.3985 -0.0696
  154OSM   H15T17176   6.710   3.516   4.092  0.9432 -1.6700  0.5133
  154OSM   C16S17177   6.579   3.441   4.227 -0.0118  0.2523  0.6345
  154OSM   H16S17178   6.634   3.349   4.256 -0.1519  0.5261  1.8374
  154OSM   H16T17179   6.473   3.418   4.254  0.0133  1.1265  1.5706
  154OSM   C17S17180   6.614   3.552   4.324  0.7206  0.1655 -0.3920
  154OSM   H17S17181   6.548   3.551   4.413  0.7912  2.2959 -0.2645
  154OSM   H17T17182   6.610   3.656   4.287  1.3523  0.6447  0.8257
  154OSM   C18S17183   6.762   3.540   4.377  0.0081 -0.9426 -0.0279
  154OSM   H18S17184   6.772   3.603   4.467  0.0712  0.6116 -1.0731
  154OSM   H18T17185   6.837   3.573   4.302 -0.0049  2.2763  1.2118
  154OSM   H18U17186   6.786   3.436   4.407  2.2247 -1.1695 -2.2427
  154OSM    C1F17187   6.053   3.085   2.751  1.0214  0.6767 -0.1455
  154OSM     OF17188   6.130   2.996   2.713 -0.3179  0.4156 -0.0663
  154OSM    C2F17189   5.917   3.060   2.800  0.4738  0.8576  0.0562
  154OSM    H2F17190   5.848   3.024   2.722 -0.4025 -0.3210  1.3375
  154OSM    H2G17191   5.868   3.155   2.832  0.2816  0.2854  1.5456
  154OSM    C3F17192   5.916   2.954   2.917  0.2213 -0.3902 -0.5386
  154OSM    H3F17193   5.967   2.871   2.865  1.8992  0.0613  0.3189
  154OSM    H3G17194   5.811   2.936   2.949 -0.4290  0.4101 -2.1149
  154OSM    C4F17195   5.997   2.998   3.040  0.1026  1.0650 -0.1226
  154OSM    H4F17196   6.100   3.021   3.006  1.0687  2.0383  3.0313
  154OSM    H4G17197   5.998   2.916   3.115 -2.1801  1.8121  0.8178
  154OSM    C5F17198   5.936   3.119   3.118 -0.0463  0.7167 -0.5784
  154OSM    H5F17199   5.853   3.080   3.180 -0.6541 -2.3949 -3.0917
  154OSM    H5G17200   5.898   3.183   3.034 -3.8700 -1.4928 -0.7609
  154OSM    C6F17201   6.030   3.185   3.208 -1.0093 -0.3419 -0.2028
  154OSM    H6F17202   5.978   3.275   3.248 -0.3642  0.2768 -0.7304
  154OSM    H6G17203   6.121   3.215   3.152 -0.8138  0.6578  0.6250
  154OSM    C7F17204   6.078   3.109   3.336  0.4989  0.4308  0.1215
  154OSM    H7F17205   6.071   2.999   3.323  2.7502  0.1298  1.0127
  154OSM    H7G17206   6.010   3.142   3.416  0.2142  0.3497 -0.0851
  154OSM    C8F17207   6.219   3.155   3.375 -0.9613  0.2386 -0.1607
  154OSM    H8F17208   6.237   3.132   3.482  0.5573 -1.5958 -0.7602
  154OSM    H8G17209   6.244   3.263   3.364  2.8041 -0.5527 -0.6295
  154OSM    C9F17210   6.328   3.080   3.308  0.0236  0.6128  0.0738
  154OSM    H9F17211   6.303   3.072   3.201 -1.1967  3.7785  0.0090
  154OSM   C10F17212   6.452   3.056   3.350 -0.5683 -0.1683 -0.2189
  154OSM   H10F17213   6.510   2.980   3.296  0.7123  0.8199 -0.2955
  154OSM   C11F17214   6.498   3.070   3.494 -0.1450 -0.2775 -0.1860
  154OSM   H11F17215   6.421   3.118   3.558 -2.3226 -3.8816  0.2287
  154OSM   H11G17216   6.590   3.131   3.490  0.5484 -1.2917 -4.1047
  154OSM   C12F17217   6.522   2.931   3.554  0.0327 -0.5707 -0.5781
  154OSM   H12F17218   6.590   2.870   3.491  1.1870  0.6126 -0.5156
  154OSM   H12G17219   6.430   2.869   3.557 -0.0103 -0.5611 -1.3997
  154OSM   C13F17220   6.573   2.939   3.702 -0.3846 -0.0884 -0.5389
  154OSM   H13F17221   6.501   2.992   3.769  0.4896  0.1890  0.2090
  154OSM   H13G17222   6.665   3.001   3.691  0.1873 -0.6728  0.7453
  154OSM   C14F17223   6.603   2.805   3.758 -0.0684 -0.1557 -0.1833
  154OSM   H14F17224   6.668   2.751   3.686  0.1968  1.6021 -1.3131
  154OSM   H14G17225   6.509   2.746   3.767 -0.8038  0.9501 -0.5249
  154OSM   C15F17226   6.677   2.813   3.895  0.1236 -0.1122 -0.4536
  154OSM   H15F17227   6.613   2.806   3.985 -0.3903 -1.1909 -0.8875
  154OSM   H15G17228   6.727   2.912   3.904 -0.8670  0.3691 -0.1552
  154OSM   C16F17229   6.784   2.706   3.921  0.2638  0.4350 -0.6329
  154OSM   H16F17230   6.821   2.727   4.024 -0.8318  1.1976 -0.3753
  154OSM   H16G17231   6.868   2.724   3.852  0.0151 -0.3922 -1.1659
  154OSM   C17F17232   6.725   2.558   3.906 -0.5253 -0.4209  0.0152
  154OSM   H17F17233   6.677   2.546   3.807 -1.2959 -0.5300  0.3934
  154OSM   H17G17234   6.645   2.543   3.982 -0.8461  0.1432 -0.2062
  154OSM   C18F17235   6.830   2.448   3.926  0.1662 -0.0216  0.3033
  154OSM   H18F17236   6.784   2.348   3.913 -1.9028  0.6813  1.7680
  154OSM   H18G17237   6.872   2.448   4.029 -0.5203 -2.9597  0.6780
  154OSM   H18H17238   6.903   2.478   3.848 -1.0749  1.6329 -0.2791
  155OSM      N17239   1.481   1.067   1.931 -0.2908  0.3708  0.1022
  155OSM    C1517240   1.382   1.192   1.938  0.1140 -0.1567 -0.0730
  155OSM   H15A17241   1.353   1.239   1.845 -2.3118 -0.9591  0.2017
  155OSM   H15B17242   1.428   1.261   2.007  0.1395  0.8128 -1.0397
  155OSM   H15C17243   1.293   1.150   1.983 -0.8284  0.1609 -1.5899
  155OSM    C1417244   1.474   0.997   2.060 -0.1216 -0.2914  0.4786
  155OSM   H14A17245   1.370   0.984   2.083 -0.5669  3.1590  0.9559
  155OSM   H14B17246   1.507   1.065   2.137 -1.8286  1.5170 -0.3141
  155OSM   H14C17247   1.532   0.906   2.051 -0.2429 -0.2193 -1.5473
  155OSM    C1317248   1.438   0.980   1.817 -0.5153 -0.0132 -0.2205
  155OSM   H13A17249   1.440   1.036   1.725  2.2268  0.6964  0.2015
  155OSM   H13B17250   1.341   0.940   1.841 -0.2805 -0.1167  0.5608
  155OSM   H13C17251   1.504   0.895   1.802 -1.3798 -0.9041  0.8019
  155OSM    C1217252   1.622   1.114   1.907  0.3922  0.0370 -0.3406
  155OSM   H12A17253   1.619   1.155   1.807  0.4435  0.3371 -0.2220
  155OSM   H12B17254   1.687   1.029   1.896  1.5505  1.0950 -2.2539
  155OSM    C1117255   1.691   1.225   2.001  0.1587 -0.1259 -0.8633
  155OSM   H11A17256   1.644   1.325   2.011 -1.1967 -0.8908  1.3897
  155OSM   H11B17257   1.791   1.258   1.966  0.4155  0.4549  0.3626
  155OSM      P17258   1.815   1.055   2.163  0.0323 -0.2003 -0.4828
  155OSM    O1317259   1.747   0.931   2.207  0.2111  0.0292  0.0082
  155OSM    O1417260   1.914   1.060   2.058  0.5078  0.0645  0.5509
  155OSM    O1117261   1.884   1.117   2.296 -0.2930 -0.5563 -0.0613
  155OSM    O1217262   1.703   1.161   2.135 -0.2073 -1.0132 -0.1690
  155OSM    C1S17263   1.830   1.239   2.349  0.3749  0.1755 -0.6349
  155OSM    H1S17264   1.735   1.215   2.400  0.1213  0.8147 -0.7941
  155OSM    H1T17265   1.811   1.312   2.267  1.0867 -0.0396 -1.0030
  155OSM     NF17266   1.855   1.439   2.504  0.0161  0.5821  0.3012
  155OSM    HNF17267   1.859   1.527   2.457  0.0743  1.2908  1.5815
  155OSM    C2S17268   1.926   1.322   2.446 -0.7088  0.5790  0.0223
  155OSM    H2S17269   1.951   1.251   2.528  3.3864 -0.8807 -2.1923
  155OSM    C3S17270   2.058   1.361   2.380  0.3345 -0.5457 -0.1974
  155OSM    H3S17271   2.048   1.452   2.317  0.4867 -2.1304 -2.6588
  155OSM     O317272   2.125   1.255   2.316  0.4182  0.4889 -0.1045
  155OSM    HO317273   2.059   1.187   2.328  0.9781 -0.1236 -0.4688
  155OSM    C4S17274   2.144   1.413   2.494 -0.3219  0.3895  0.0866
  155OSM    H4S17275   2.159   1.522   2.487  0.7274  0.1626 -2.7886
  155OSM    C5S17276   2.224   1.348   2.578  0.0609  0.4258 -0.1631
  155OSM    H5S17277   2.229   1.239   2.569  2.0312  0.3583  1.1778
  155OSM    C6S17278   2.323   1.407   2.672  0.2124 -0.3265  0.5942
  155OSM    H6S17279   2.376   1.489   2.620 -1.0277 -0.8654 -1.6100
  155OSM    H6T17280   2.396   1.327   2.696  0.9258  0.0485 -0.3097
  155OSM    C7S17281   2.270   1.462   2.805 -0.2520 -0.7372  0.2906
  155OSM    H7S17282   2.191   1.538   2.786  0.8260  0.1291 -0.8175
  155OSM    H7T17283   2.355   1.508   2.860  0.5914  1.2641 -2.5089
  155OSM    C8S17284   2.222   1.346   2.901 -0.0243 -0.3405 -0.4824
  155OSM    H8S17285   2.301   1.269   2.919  0.1968  0.1152  0.5962
  155OSM    H8T17286   2.130   1.296   2.863 -1.3480  1.4452  0.2459
  155OSM    C9S17287   2.181   1.406   3.038 -0.4716  0.1425 -0.5194
  155OSM    H9S17288   2.143   1.321   3.100  0.5870  1.8592  2.6979
  155OSM    H9T17289   2.092   1.473   3.036 -1.3509 -1.0022 -1.3513
  155OSM   C10S17290   2.297   1.461   3.122 -0.0924  0.4585 -0.2720
  155OSM   H10S17291   2.329   1.549   3.063  2.3379 -1.0936 -1.4160
  155OSM   H10T17292   2.372   1.380   3.136 -0.8581 -0.0021  1.5235
  155OSM   C11S17293   2.243   1.481   3.268 -0.2317 -0.0771 -0.2685
  155OSM   H11S17294   2.200   1.383   3.298 -0.0847 -0.2384 -0.5792
  155OSM   H11T17295   2.156   1.549   3.256 -1.1476 -1.2966 -0.7924
  155OSM   C12S17296   2.340   1.536   3.365 -0.2324  0.2229 -0.2258
  155OSM   H12S17297   2.396   1.616   3.312  0.9224  0.2958  1.0646
  155OSM   H12T17298   2.418   1.461   3.389  0.6834  1.5598  1.1917
  155OSM   C13S17299   2.280   1.595   3.489 -0.2960  0.8585 -0.1791
  155OSM   H13S17300   2.215   1.518   3.536  1.7688 -0.5733  0.4544
  155OSM   H13T17301   2.241   1.695   3.459  3.3309  2.4078 -0.2615
  155OSM   C14S17302   2.394   1.628   3.586  0.3846  0.1789 -0.7152
  155OSM   H14S17303   2.486   1.653   3.528 -0.2683 -0.3706 -2.0370
  155OSM   H14T17304   2.414   1.535   3.644  0.2133  0.0326 -0.8901
  155OSM   C15S17305   2.347   1.730   3.691  0.5690  0.3470 -0.4147
  155OSM   H15S17306   2.245   1.697   3.721 -0.0141 -0.0582 -2.7129
  155OSM   H15T17307   2.319   1.825   3.640 -0.5012 -0.2073 -0.8757
  155OSM   C16S17308   2.436   1.755   3.818 -0.0612  0.6349 -0.5099
  155OSM   H16S17309   2.455   1.657   3.867 -1.0419  1.1536  0.9852
  155OSM   H16T17310   2.383   1.832   3.878  2.2192  2.0103 -0.1330
  155OSM   C17S17311   2.570   1.807   3.787 -0.3020  0.2206  0.5550
  155OSM   H17S17312   2.551   1.900   3.729  0.5417 -1.0499 -1.8624
  155OSM   H17T17313   2.638   1.746   3.724 -1.2540 -0.6367  0.3110
  155OSM   C18S17314   2.651   1.831   3.916  0.1453 -0.1000  0.1595
  155OSM   H18S17315   2.609   1.912   3.980  0.8033  0.6442 -0.3305
  155OSM   H18T17316   2.748   1.871   3.881 -0.1973  1.4883  0.9166
  155OSM   H18U17317   2.669   1.733   3.965  4.5745 -0.0011 -0.9080
  155OSM    C1F17318   1.764   1.419   2.596 -0.5997  0.4186  0.6341
  155OSM     OF17319   1.739   1.309   2.646 -0.2163 -0.2241 -0.4248
  155OSM    C2F17320   1.698   1.543   2.632  0.0488  0.1700  0.8632
  155OSM    H2F17321   1.601   1.535   2.579  0.9748 -0.1415 -0.8328
  155OSM    H2G17322   1.762   1.628   2.602  0.0535  0.2570  1.1198
  155OSM    C3F17323   1.676   1.550   2.787 -0.2427  0.8677  0.6197
  155OSM    H3F17324   1.609   1.466   2.815 -0.5384  0.0045 -2.3296
  155OSM    H3G17325   1.628   1.648   2.808 -0.6066  1.0734 -1.0205
  155OSM    C4F17326   1.802   1.546   2.879  0.0984  0.6151 -0.3340
  155OSM    H4F17327   1.884   1.596   2.824  0.1745 -0.1563 -0.9449
  155OSM    H4G17328   1.828   1.440   2.900 -0.9000  0.5885  0.9163
  155OSM    C5F17329   1.776   1.632   3.002 -0.3629 -0.1737 -0.7134
  155OSM    H5F17330   1.677   1.607   3.047 -0.0981 -0.8622 -0.4940
  155OSM    H5G17331   1.767   1.737   2.967  2.5999 -0.3294 -2.2647
  155OSM    C6F17332   1.874   1.623   3.125  0.2617  0.4022  0.0568
  155OSM    H6F17333   1.956   1.692   3.095 -0.1570  1.3129  0.9508
  155OSM    H6G17334   1.907   1.520   3.148  1.2011  0.3362 -1.4345
  155OSM    C7F17335   1.802   1.675   3.245  0.1758  0.1902  0.4901
  155OSM    H7F17336   1.739   1.603   3.303  1.2930  0.1587  1.7165
  155OSM    H7G17337   1.733   1.754   3.208 -1.5751 -1.1223  0.8283
  155OSM    C8F17338   1.893   1.725   3.357  0.2127 -0.3911 -0.0642
  155OSM    H8F17339   1.971   1.792   3.314  0.1862 -1.6044 -2.1355
  155OSM    H8G17340   1.942   1.636   3.402 -2.4978 -2.8902 -1.6941
  155OSM    C9F17341   1.813   1.801   3.458 -0.0408 -0.2692 -0.0477
  155OSM    H9F17342   1.759   1.884   3.411  0.8738  1.1274  1.2367
  155OSM   C10F17343   1.812   1.777   3.594 -0.1116  0.6940  0.2736
  155OSM   H10F17344   1.726   1.822   3.646 -1.7501 -2.5281  0.6293
  155OSM   C11F17345   1.887   1.667   3.667 -0.3471  0.0337  0.1238
  155OSM   H11F17346   1.987   1.640   3.626 -1.2158 -1.0415 -1.4108
  155OSM   H11G17347   1.829   1.572   3.656 -1.4842  0.6585  0.5683
  155OSM   C12F17348   1.893   1.688   3.815  0.1455  0.1523 -0.3936
  155OSM   H12F17349   1.950   1.597   3.846 -2.3389 -1.5990 -0.7047
  155OSM   H12G17350   1.791   1.675   3.856  0.8820 -0.1429  1.4607
  155OSM   C13F17351   1.962   1.817   3.873  0.3949  0.1239 -0.1037
  155OSM   H13F17352   1.899   1.906   3.856  1.9400  0.9590 -1.8243
  155OSM   H13G17353   2.054   1.836   3.813  0.2793 -0.4067 -0.4633
  155OSM   C14F17354   2.005   1.801   4.018  0.1307  0.6422  0.4547
  155OSM   H14F17355   1.916   1.805   4.085 -0.2919  1.0569 -0.1254
  155OSM   H14G17356   2.070   1.890   4.030 -1.6315  1.9366  0.7535
  155OSM   C15F17357   2.106   1.690   4.051  0.0324  0.6780 -0.3661
  155OSM   H15F17358   2.188   1.691   3.975 -0.5166 -0.7412 -1.0300
  155OSM   H15G17359   2.049   1.595   4.041 -1.2057  1.2153  1.1958
  155OSM   C16F17360   2.153   1.708   4.196 -0.4429 -0.2591 -0.4071
  155OSM   H16F17361   2.069   1.700   4.268  0.0584 -1.2838  0.0778
  155OSM   H16G17362   2.200   1.808   4.201  0.2075 -0.5556 -0.5419
  155OSM   C17F17363   2.254   1.599   4.244  0.0533 -0.4345  0.1290
  155OSM   H17F17364   2.210   1.501   4.275  1.7742 -0.9898  0.9201
  155OSM   H17G17365   2.308   1.635   4.333  0.9865 -1.6105  0.0711
  155OSM   C18F17366   2.362   1.561   4.143  0.1598 -0.8389 -0.5762
  155OSM   H18F17367   2.315   1.516   4.053 -3.0177  3.4722 -1.3843
  155OSM   H18G17368   2.430   1.485   4.187 -0.9756 -0.6896  1.5592
  155OSM   H18H17369   2.431   1.644   4.118  0.1125  0.0463  1.9392
  156OSM      N17370   3.990   0.067   1.906 -0.5236  0.1721  0.1333
  156OSM    C1517371   3.991   0.022   2.053 -0.1231 -0.6039  0.8754
  156OSM   H15A17372   4.090   0.033   2.095  0.7898  1.4814 -1.5964
  156OSM   H15B17373   3.959  -0.081   2.064 -4.0106  0.1920 -1.2951
  156OSM   H15C17374   3.919   0.076   2.113 -0.1440 -0.2025  0.4878
  156OSM    C1417375   3.849   0.043   1.864 -0.3629 -0.0799 -0.1212
  156OSM   H14A17376   3.825   0.061   1.760  0.1999 -1.9520 -0.6120
  156OSM   H14B17377   3.779   0.095   1.929 -1.2392 -0.6118 -0.6154
  156OSM   H14C17378   3.820  -0.060   1.874  0.4624 -0.3815 -0.7393
  156OSM    C1317379   4.023   0.210   1.913 -1.4018 -0.2506 -0.0443
  156OSM   H13A17380   4.128   0.216   1.939 -1.3357 -1.8024  0.1067
  156OSM   H13B17381   3.954   0.268   1.973 -1.1217  1.3350 -1.1794
  156OSM   H13C17382   4.030   0.260   1.818  1.3145 -2.5495 -1.1978
  156OSM    C1217383   4.082  -0.017   1.822 -0.9803  0.4091 -0.2930
  156OSM   H12A17384   4.059  -0.005   1.717 -1.1567 -3.0669 -0.7581
  156OSM   H12B17385   4.054  -0.121   1.826  0.7126 -0.0402  0.6905
  156OSM    C1117386   4.232  -0.013   1.858  0.0652  0.8028 -0.0146
  156OSM   H11A17387   4.257   0.095   1.851 -2.9027  1.7729  2.2440
  156OSM   H11B17388   4.283  -0.070   1.777 -0.2801 -0.0930  0.3907
  156OSM      P17389   4.284  -0.223   2.013 -0.0110  0.0587 -0.1191
  156OSM    O1317390   4.169  -0.273   2.097  0.0430  0.4569 -0.4695
  156OSM    O1417391   4.308  -0.294   1.883 -0.0854  0.0812 -0.3676
  156OSM    O1117392   4.419  -0.223   2.100 -0.4961  0.4842 -0.2051
  156OSM    O1217393   4.265  -0.070   1.988  0.3757 -0.3643 -0.5032
  156OSM    C1S17394   4.432  -0.123   2.200 -0.4228  0.3715 -0.3622
  156OSM    H1S17395   4.364  -0.036   2.187 -0.8055  0.5812  2.3976
  156OSM    H1T17396   4.525  -0.063   2.198 -0.2758  0.1361 -0.6157
  156OSM     NF17397   4.404  -0.077   2.439  0.0125  0.1150 -0.7510
  156OSM    HNF17398   4.497  -0.059   2.472 -1.0141  1.2727  1.7293
  156OSM    C2S17399   4.403  -0.179   2.340 -0.4720  0.0115 -0.8449
  156OSM    H2S17400   4.302  -0.225   2.337 -0.6722  0.0605  2.1627
  156OSM    C3S17401   4.496  -0.297   2.374  0.1221  0.9026  0.7253
  156OSM    H3S17402   4.601  -0.261   2.386  0.7966 -0.5330 -0.5684
  156OSM     O317403   4.491  -0.397   2.280 -0.5285  0.1727 -0.0008
  156OSM    HO317404   4.435  -0.362   2.211 -1.3504  0.4748  0.7970
  156OSM    C4S17405   4.453  -0.352   2.502 -0.1535  0.2141 -0.5186
  156OSM    H4S17406   4.510  -0.305   2.583  0.8646  0.1684 -1.1904
  156OSM    C5S17407   4.366  -0.444   2.533  0.0219  0.2369 -0.5770
  156OSM    H5S17408   4.318  -0.505   2.454 -0.9019  0.3815 -0.1432
  156OSM    C6S17409   4.330  -0.483   2.673  0.2904 -0.4481  0.2593
  156OSM    H6S17410   4.367  -0.587   2.691 -0.0999 -0.6148  0.1065
  156OSM    H6T17411   4.219  -0.487   2.678  0.1084 -0.4254 -2.6272
  156OSM    C7S17412   4.373  -0.384   2.780 -0.5535 -0.7795  0.2062
  156OSM    H7S17413   4.343  -0.281   2.749  0.9936 -1.1141 -2.7413
  156OSM    H7T17414   4.483  -0.380   2.793 -0.2722 -1.4572 -1.7083
  156OSM    C8S17415   4.322  -0.412   2.918 -0.1440  0.0694 -0.4230
  156OSM    H8S17416   4.365  -0.504   2.961 -1.7768 -1.4043 -1.8147
  156OSM    H8T17417   4.211  -0.414   2.912 -0.0665 -2.4295 -3.3256
  156OSM    C9S17418   4.361  -0.303   3.013 -0.4096 -0.1069  0.4030
  156OSM    H9S17419   4.316  -0.213   2.968  0.0136 -2.2891 -5.1032
  156OSM    H9T17420   4.471  -0.291   3.021 -0.6430  2.1067  0.8096
  156OSM   C10S17421   4.300  -0.310   3.158  0.1091  0.3801  0.0606
  156OSM   H10S17422   4.189  -0.317   3.163  0.2827 -2.4104  2.9903
  156OSM   H10T17423   4.338  -0.222   3.215  0.9976  0.0602 -0.0225
  156OSM   C11S17424   4.335  -0.446   3.235 -0.1297 -0.2565  0.1849
  156OSM   H11S17425   4.445  -0.455   3.245 -0.2961 -0.4753  2.2019
  156OSM   H11T17426   4.308  -0.535   3.174  1.6567 -0.7196  0.0103
  156OSM   C12S17427   4.275  -0.450   3.376 -0.2694  0.4277 -1.0007
  156OSM   H12S17428   4.165  -0.457   3.366 -0.3049 -1.1894  0.0870
  156OSM   H12T17429   4.298  -0.351   3.420  2.1352 -0.8327  0.8046
  156OSM   C13S17430   4.330  -0.559   3.469  0.0084 -0.2006 -0.6775
  156OSM   H13S17431   4.430  -0.530   3.507  0.5064 -2.6224  0.0726
  156OSM   H13T17432   4.324  -0.654   3.411 -2.2235 -0.8170  0.4711
  156OSM   C14S17433   4.231  -0.586   3.584 -0.2973  0.2284 -0.4535
  156OSM   H14S17434   4.273  -0.673   3.638 -0.5291 -0.4375 -1.3218
  156OSM   H14T17435   4.131  -0.618   3.549 -0.7247  1.0716 -0.0263
  156OSM   C15S17436   4.229  -0.471   3.689  0.7306 -0.1604  0.2727
  156OSM   H15S17437   4.172  -0.384   3.648  0.3535 -1.5884 -2.4703
  156OSM   H15T17438   4.331  -0.437   3.717  0.3042  0.6081  0.9415
  156OSM   C16S17439   4.159  -0.513   3.817  0.5821  0.0024 -0.5848
  156OSM   H16S17440   4.220  -0.582   3.879 -1.6430 -2.3436 -0.8238
  156OSM   H16T17441   4.080  -0.585   3.788  0.6049  0.4020 -1.6758
  156OSM   C17S17442   4.115  -0.398   3.904 -0.4861 -0.6110 -0.2299
  156OSM   H17S17443   4.033  -0.343   3.852  2.4731  2.3663 -2.1553
  156OSM   H17T17444   4.201  -0.329   3.918 -0.2087 -1.0534  0.2832
  156OSM   C18S17445   4.079  -0.442   4.045  0.2021 -0.0241 -0.6903
  156OSM   H18S17446   3.996  -0.516   4.044  0.3794 -0.3128  1.2874
  156OSM   H18T17447   4.052  -0.356   4.110  0.5244 -0.2771 -0.2167
  156OSM   H18U17448   4.164  -0.498   4.090 -0.3194 -0.2698 -0.0007
  156OSM    C1F17449   4.308   0.011   2.456  0.6315  0.2077  0.0413
  156OSM     OF17450   4.202  -0.007   2.393  0.2499  0.1234 -0.1850
  156OSM    C2F17451   4.327   0.130   2.549 -0.3428  0.2883 -0.0715
  156OSM    H2F17452   4.305   0.219   2.486  0.4020  0.9051  0.5196
  156OSM    H2G17453   4.430   0.121   2.590  0.8234 -0.1634 -2.8547
  156OSM    C3F17454   4.210   0.125   2.653  0.1441 -0.5670  0.1184
  156OSM    H3F17455   4.183   0.021   2.680 -3.0521 -0.1967 -1.2322
  156OSM    H3G17456   4.121   0.179   2.615 -0.4347 -2.4609 -1.3600
  156OSM    C4F17457   4.248   0.206   2.776  0.6196 -0.6229  0.3152
  156OSM    H4F17458   4.231   0.313   2.753 -0.3298 -0.5967  1.1042
  156OSM    H4G17459   4.358   0.202   2.794  0.6107 -0.0075  0.5424
  156OSM    C5F17460   4.184   0.167   2.904  0.2183 -0.3110  0.0160
  156OSM    H5F17461   4.175   0.056   2.903 -0.8346 -0.2375 -1.1606
  156OSM    H5G17462   4.080   0.207   2.899  0.2404 -0.3006 -0.3994
  156OSM    C6F17463   4.258   0.199   3.035 -0.4061  0.3125 -0.1983
  156OSM    H6F17464   4.280   0.307   3.048  2.0586 -0.2325  0.8465
  156OSM    H6G17465   4.359   0.156   3.017 -0.7991 -1.1363  0.8577
  156OSM    C7F17466   4.196   0.140   3.169 -0.0560 -0.6075  0.0722
  156OSM    H7F17467   4.242   0.040   3.180  0.0551 -0.8347 -2.0337
  156OSM    H7G17468   4.086   0.132   3.154 -0.1501  0.3397  0.1864
  156OSM    C8F17469   4.217   0.226   3.304 -0.0217 -0.6875  0.5865
  156OSM    H8F17470   4.170   0.322   3.275 -0.6370 -1.2939 -0.5034
  156OSM    H8G17471   4.324   0.248   3.324  0.7977 -0.2493 -3.4393
  156OSM    C9F17472   4.130   0.171   3.415  0.0580  0.9772  0.4235
  156OSM    H9F17473   4.026   0.151   3.384 -0.0356 -0.3405  1.5242
  156OSM   C10F17474   4.167   0.139   3.537  0.1829  0.2896  0.6449
  156OSM   H10F17475   4.084   0.102   3.599 -1.1690  1.1224 -0.6096
  156OSM   C11F17476   4.295   0.152   3.608 -0.1474  0.1152  0.2467
  156OSM   H11F17477   4.381   0.162   3.538  2.0619 -1.7529  2.5007
  156OSM   H11G17478   4.323   0.065   3.670  1.1030  0.4971  0.2563
  156OSM   C12F17479   4.288   0.267   3.719 -0.2160  0.1366 -0.2349
  156OSM   H12F17480   4.195   0.264   3.780  0.9692 -0.2398  1.6279
  156OSM   H12G17481   4.286   0.368   3.673  0.3754  0.6880  0.9111
  156OSM   C13F17482   4.399   0.253   3.826  0.1426 -0.5000  0.3876
  156OSM   H13F17483   4.494   0.274   3.773  0.8513 -0.2397  1.7132
  156OSM   H13G17484   4.413   0.155   3.878  0.1794 -0.9579 -0.4604
  156OSM   C14F17485   4.397   0.366   3.927 -0.5759 -0.3873  0.5795
  156OSM   H14F17486   4.388   0.464   3.874 -2.4992 -0.6426  0.3636
  156OSM   H14G17487   4.494   0.373   3.981  1.1637 -0.1980 -2.3589
  156OSM   C15F17488   4.284   0.351   4.025 -0.5624 -0.1000  0.1720
  156OSM   H15F17489   4.266   0.246   4.054 -2.9588  0.3728  0.6209
  156OSM   H15G17490   4.193   0.379   3.968 -0.4122 -0.5945 -0.3231
  156OSM   C16F17491   4.298   0.439   4.152 -0.3265 -1.0005 -0.1636
  156OSM   H16F17492   4.263   0.542   4.131  0.4646 -1.1200 -2.2192
  156OSM   H16G17493   4.404   0.431   4.184 -0.0769  0.7157 -0.5119
  156OSM   C17F17494   4.227   0.388   4.274  0.0591 -0.0049  0.1894
  156OSM   H17F17495   4.117   0.380   4.262  0.1101  0.4346 -0.6866
  156OSM   H17G17496   4.257   0.462   4.352  0.5909  0.8886 -0.8340
  156OSM   C18F17497   4.259   0.253   4.329 -0.5225  0.2005 -0.0640
  156OSM   H18F17498   4.360   0.249   4.376 -0.2144 -1.9769 -0.8378
  156OSM   H18G17499   4.268   0.169   4.257  0.0169 -0.1873  0.4431
  156OSM   H18H17500   4.191   0.218   4.410 -2.3653  1.7383 -0.8564
  157OSM      N17501   4.028   1.231   1.751  0.7109 -0.0054 -0.3445
  157OSM    C1517502   3.882   1.236   1.742  0.3425 -0.0927 -0.2938
  157OSM   H15A17503   3.830   1.142   1.755  2.9017 -1.4892  0.5058
  157OSM   H15B17504   3.853   1.264   1.642  0.9760  1.9286  0.0490
  157OSM   H15C17505   3.839   1.310   1.808  1.6378  0.2915  0.1621
  157OSM    C1417506   4.079   1.140   1.642 -0.3401  0.0078  0.2525
  157OSM   H14A17507   4.072   1.035   1.668  2.8502  0.1539  2.2079
  157OSM   H14B17508   4.183   1.148   1.615  0.0158  1.7625  1.9242
  157OSM   H14C17509   4.019   1.146   1.553  1.2851  1.9247 -0.7801
  157OSM    C1317510   4.083   1.366   1.727 -0.0347  0.1119  0.0445
  157OSM   H13A17511   4.040   1.435   1.798  1.1678 -0.4229  1.3480
  157OSM   H13B17512   4.062   1.381   1.623  0.3911 -1.7994 -0.3520
  157OSM   H13C17513   4.191   1.369   1.740 -0.0617  0.5461  0.1991
  157OSM    C1217514   4.080   1.183   1.893  0.1164  0.8225  0.4621
  157OSM   H12A17515   4.049   1.254   1.968  2.1911  1.6611  0.6108
  157OSM   H12B17516   4.188   1.181   1.903 -0.0035  0.5397  1.7567
  157OSM    C1117517   4.024   1.039   1.926  0.5873  0.5092 -0.3215
  157OSM   H11A17518   3.918   1.025   1.896  0.3006  0.3394  0.7312
  157OSM   H11B17519   4.007   1.037   2.035  0.6167  2.2637 -0.2662
  157OSM      P17520   4.244   0.899   1.944  0.6019  0.1329  0.0812
  157OSM    O1317521   4.260   0.755   1.934 -0.8350  0.1041 -0.1336
  157OSM    O1417522   4.348   0.988   1.898 -0.2149 -0.8617  0.0868
  157OSM    O1117523   4.220   0.926   2.093 -0.2302 -0.6190  0.1338
  157OSM    O1217524   4.104   0.934   1.876 -0.0977 -0.2697 -0.0959
  157OSM    C1S17525   4.129   0.837   2.157 -0.4700 -0.7135  0.0374
  157OSM    H1S17526   4.149   0.729   2.143 -2.6988 -0.9271 -2.1047
  157OSM    H1T17527   4.029   0.841   2.109 -0.0714  0.0729 -0.7555
  157OSM     NF17528   4.024   0.784   2.381 -0.6969 -0.4659 -0.4071
  157OSM    HNF17529   3.938   0.824   2.410 -0.3787  0.1686 -0.3107
  157OSM    C2S17530   4.108   0.878   2.308 -0.6748  0.6605  0.2807
  157OSM    H2S17531   4.210   0.872   2.353  0.6119  1.2490 -2.3304
  157OSM    C3S17532   4.060   1.026   2.325 -1.0760 -0.2813 -0.0425
  157OSM    H3S17533   3.960   1.032   2.279 -2.1759 -0.7085  2.1610
  157OSM     O317534   4.141   1.114   2.247  0.2077 -0.0404  0.1478
  157OSM    HO317535   4.170   1.060   2.173 -0.0218 -1.3487  0.9896
  157OSM    C4S17536   4.043   1.080   2.469 -0.1871  0.8123 -0.4882
  157OSM    H4S17537   3.948   1.047   2.514  0.5881 -0.7570  0.0864
  157OSM    C5S17538   4.133   1.143   2.547  0.3912 -0.0549  0.3420
  157OSM    H5S17539   4.231   1.166   2.505  1.1056 -1.1510  1.3156
  157OSM    C6S17540   4.108   1.194   2.685  0.4827 -0.0263 -0.4376
  157OSM    H6S17541   3.999   1.200   2.705  0.3022 -1.4153 -0.9154
  157OSM    H6T17542   4.143   1.299   2.682  0.2345  0.0435 -1.0892
  157OSM    C7S17543   4.177   1.110   2.793 -0.9049  0.0624 -0.5200
  157OSM    H7S17544   4.149   1.149   2.893 -1.1596 -0.3158 -0.4427
  157OSM    H7T17545   4.288   1.110   2.791 -0.8101 -1.4033  1.5388
  157OSM    C8S17546   4.140   0.965   2.801  0.5160 -0.4792 -0.2107
  157OSM    H8S17547   4.219   0.910   2.857 -0.7904  1.0874  3.4853
  157OSM    H8T17548   4.147   0.923   2.698  1.6393 -1.7737  0.3570
  157OSM    C9S17549   3.996   0.936   2.856 -0.5714 -0.5031  0.5585
  157OSM    H9S17550   3.990   0.825   2.861 -1.1762 -0.4955  0.1297
  157OSM    H9T17551   3.923   0.983   2.786  0.8496  1.9504  0.6149
  157OSM   C10S17552   3.985   0.975   2.999  0.5233 -0.6845 -0.8457
  157OSM   H10S17553   3.901   0.915   3.040  2.0611 -1.2960  1.6410
  157OSM   H10T17554   3.956   1.082   3.003 -1.0235 -1.0944 -0.3342
  157OSM   C11S17555   4.100   0.935   3.086 -0.1757 -0.3797 -0.4150
  157OSM   H11S17556   4.188   0.992   3.050 -0.7840 -0.1206 -1.5478
  157OSM   H11T17557   4.122   0.826   3.080  1.4901 -0.1368  0.6596
  157OSM   C12S17558   4.082   0.967   3.239  0.3232 -0.3147  0.7259
  157OSM   H12S17559   3.992   0.921   3.285  0.3672  0.2412  1.3958
  157OSM   H12T17560   4.062   1.076   3.233 -0.5945 -0.5468 -0.8292
  157OSM   C13S17561   4.197   0.942   3.337 -0.2287  0.3431  0.4094
  157OSM   H13S17562   4.288   0.983   3.289 -2.6245  1.1423 -3.8877
  157OSM   H13T17563   4.215   0.832   3.339  0.4030  0.4488  1.1569
  157OSM   C14S17564   4.178   1.009   3.477 -0.1219  0.2144 -0.5113
  157OSM   H14S17565   4.139   1.112   3.470  0.7218  0.5304 -0.6730
  157OSM   H14T17566   4.276   1.029   3.526  0.0441  1.6426 -1.3865
  157OSM   C15S17567   4.080   0.937   3.577  0.0792  0.5675 -0.1355
  157OSM   H15S17568   3.987   0.914   3.520 -0.9534 -0.8037  1.9821
  157OSM   H15T17569   4.053   0.995   3.668 -0.8462  1.4307 -0.9355
  157OSM   C16S17570   4.147   0.806   3.619 -0.4057 -0.1165  0.2042
  157OSM   H16S17571   4.241   0.830   3.674 -0.8296  1.4876  0.2793
  157OSM   H16T17572   4.181   0.741   3.536 -1.6331 -2.3177  1.3372
  157OSM   C17S17573   4.053   0.727   3.704  0.0799  0.7553 -0.0199
  157OSM   H17S17574   3.961   0.696   3.651  0.0605 -0.3363  0.6009
  157OSM   H17T17575   4.013   0.789   3.787 -1.7189  0.8472 -0.9033
  157OSM   C18S17576   4.128   0.597   3.744 -0.0064  0.1581  0.2781
  157OSM   H18S17577   4.145   0.531   3.656  1.0827  1.0728 -0.2242
  157OSM   H18T17578   4.080   0.526   3.814  0.9311  0.6173  1.4160
  157OSM   H18U17579   4.228   0.627   3.780 -1.1635  0.5570  3.4966
  157OSM    C1F17580   4.062   0.660   2.390 -0.3714 -0.6397 -0.2017
  157OSM     OF17581   4.177   0.621   2.353  0.6443  0.1161 -0.0344
  157OSM    C2F17582   3.965   0.558   2.450  0.2127  0.3276 -0.3619
  157OSM    H2F17583   3.944   0.482   2.372 -0.1248  0.6642 -0.6048
  157OSM    H2G17584   3.872   0.611   2.477  1.5101  1.6738  1.7087
  157OSM    C3F17585   4.015   0.494   2.582 -0.6982 -0.3209  0.1844
  157OSM    H3F17586   4.114   0.443   2.573 -0.0067  1.0671 -0.3632
  157OSM    H3G17587   3.949   0.406   2.600 -2.2120  1.0855  1.7405
  157OSM    C4F17588   3.991   0.581   2.711  0.0280  0.3823  0.7645
  157OSM    H4F17589   3.894   0.636   2.706 -0.2889 -0.2701 -1.5714
  157OSM    H4G17590   4.073   0.656   2.716  3.7060 -3.3317  2.0798
  157OSM    C5F17591   4.003   0.505   2.847 -0.2353 -0.1374  0.2062
  157OSM    H5F17592   4.108   0.473   2.866  1.0391  0.7843 -4.1961
  157OSM    H5G17593   3.934   0.418   2.838 -1.1545  0.5140  0.7598
  157OSM    C6F17594   3.943   0.585   2.963  0.3730 -0.7343 -0.1695
  157OSM    H6F17595   3.837   0.610   2.941 -0.1480 -2.0229  0.7546
  157OSM    H6G17596   4.003   0.677   2.979  0.2583 -0.7286  0.2222
  157OSM    C7F17597   3.966   0.508   3.095 -0.2529 -0.2208 -0.0137
  157OSM    H7F17598   4.063   0.457   3.079 -0.6401 -0.6684 -1.0142
  157OSM    H7G17599   3.882   0.435   3.104  0.0156 -0.3901  1.4530
  157OSM    C8F17600   3.959   0.599   3.221 -0.0150 -0.2969 -0.1401
  157OSM    H8F17601   3.857   0.643   3.217  0.7294  1.4406 -1.8749
  157OSM    H8G17602   4.019   0.691   3.205  1.2278 -1.4159 -2.4092
  157OSM    C9F17603   3.987   0.530   3.350 -0.6528 -0.3794  0.1475
  157OSM    H9F17604   4.088   0.563   3.381 -1.6916  2.8193  0.5125
  157OSM   C10F17605   3.909   0.464   3.438  0.0777  0.1827 -0.4696
  157OSM   H10F17606   3.953   0.416   3.527 -1.6769 -1.8475 -0.6129
  157OSM   C11F17607   3.764   0.425   3.424  0.3959  0.2288 -0.5278
  157OSM   H11F17608   3.764   0.401   3.316  1.5396  0.9021 -0.6980
  157OSM   H11G17609   3.696   0.511   3.438  0.8012  0.5300 -0.3800
  157OSM   C12F17610   3.707   0.304   3.505  0.3703  0.0985 -0.1171
  157OSM   H12F17611   3.771   0.214   3.491  0.9068  0.8753 -3.9822
  157OSM   H12G17612   3.605   0.275   3.473  0.2067  0.1145  0.3944
  157OSM   C13F17613   3.700   0.329   3.659  0.5338  0.6187  0.1556
  157OSM   H13F17614   3.622   0.402   3.689  2.1397  0.7571  4.7406
  157OSM   H13G17615   3.801   0.358   3.694  0.5933 -0.5554  1.0358
  157OSM   C14F17616   3.665   0.206   3.737  0.1456  0.4668  0.9229
  157OSM   H14F17617   3.725   0.118   3.707  0.1797  0.1461  1.8941
  157OSM   H14G17618   3.561   0.172   3.718  0.2138 -0.0989  1.5024
  157OSM   C15F17619   3.692   0.208   3.887 -0.1942 -0.1967 -0.1706
  157OSM   H15F17620   3.799   0.231   3.904  0.0326 -1.7718  0.6551
  157OSM   H15G17621   3.675   0.106   3.927 -2.6300  0.4019  0.4579
  157OSM   C16F17622   3.601   0.311   3.960 -0.3792  0.0705 -0.2563
  157OSM   H16F17623   3.626   0.410   3.917 -0.7033 -0.1479 -0.9570
  157OSM   H16G17624   3.630   0.315   4.067  2.1617  1.2776 -0.9145
  157OSM   C17F17625   3.456   0.284   3.957  0.6225 -0.2338  0.3541
  157OSM   H17F17626   3.449   0.184   4.004  0.3198 -0.8348 -0.9247
  157OSM   H17G17627   3.430   0.270   3.850  2.4578 -1.9704  0.0976
  157OSM   C18F17628   3.368   0.405   4.008 -0.5727 -0.5375  0.4054
  157OSM   H18F17629   3.391   0.505   3.966 -1.7942  0.2777  1.6104
  157OSM   H18G17630   3.377   0.414   4.118 -0.6061 -0.6468  0.4172
  157OSM   H18H17631   3.264   0.384   3.975 -1.1947  3.1051 -0.3310
  158OSM      N17632   0.875   6.230   1.712 -0.3443  0.5621  0.0454
  158OSM    C1517633   0.817   6.324   1.614  1.0287 -0.2569 -0.0633
  158OSM   H15A17634   0.778   6.273   1.528 -1.2685 -0.6650  1.1386
  158OSM   H15B17635   0.893   6.395   1.585 -0.5635  0.9811 -1.3728
  158OSM   H15C17636   0.734   6.378   1.657  1.5039  1.3790 -1.1289
  158OSM    C1417637   0.765   6.129   1.732 -0.1484 -0.3291 -0.0683
  158OSM   H14A17638   0.726   6.084   1.642 -1.1651 -2.3551  1.3033
  158OSM   H14B17639   0.686   6.175   1.789  0.6149  0.2449  0.5437
  158OSM   H14C17640   0.811   6.052   1.793  0.8514  0.5613  0.3399
  158OSM    C1317641   1.000   6.174   1.646  0.0598 -0.0952 -0.4102
  158OSM   H13A17642   0.974   6.132   1.550 -2.4813 -0.2815  0.2757
  158OSM   H13B17643   1.054   6.105   1.708  0.6161 -1.0156 -1.8726
  158OSM   H13C17644   1.059   6.263   1.629  1.9678 -1.3232 -0.5040
  158OSM    C1217645   0.908   6.311   1.844  0.4920  0.2122  0.1107
  158OSM   H12A17646   0.809   6.338   1.878  0.6575 -0.1911  0.9304
  158OSM   H12B17647   0.957   6.402   1.812  1.8462 -0.7983 -0.7668
  158OSM    C1117648   0.987   6.235   1.953  0.3138  0.2445 -0.5533
  158OSM   H11A17649   1.032   6.302   2.030  0.1507 -0.4659  0.1800
  158OSM   H11B17650   1.072   6.179   1.910  0.5300 -1.5050  1.9223
  158OSM      P17651   0.928   5.986   2.040 -0.3098 -0.0146  0.5171
  158OSM    O1317652   0.819   5.922   2.117 -0.2528 -0.7656  0.1276
  158OSM    O1417653   0.954   5.919   1.905 -0.3151 -0.6010  0.3187
  158OSM    O1117654   1.060   5.978   2.123  0.1645  0.0650  0.3010
  158OSM    O1217655   0.899   6.147   2.022 -0.1219  0.3415  0.5169
  158OSM    C1S17656   1.098   6.082   2.218 -0.1752  0.3496 -0.4722
  158OSM    H1S17657   1.036   6.173   2.206 -2.5756 -1.2100 -0.7556
  158OSM    H1T17658   1.194   6.123   2.181  0.3253  0.8293  1.2627
  158OSM     NF17659   1.095   6.144   2.459  0.3216  0.6029  0.3698
  158OSM    HNF17660   1.175   6.146   2.520  0.6830 -1.4093  0.0155
  158OSM    C2S17661   1.089   6.031   2.364  0.0909  0.1869 -0.1263
  158OSM    H2S17662   0.990   5.983   2.380  0.2989 -0.7738 -1.5078
  158OSM    C3S17663   1.189   5.931   2.391  0.0270 -0.0786  0.8006
  158OSM    H3S17664   1.283   5.985   2.363  0.3587 -0.7698  0.5557
  158OSM     O317665   1.187   5.824   2.294 -0.6013  0.0401 -0.1144
  158OSM    HO317666   1.120   5.843   2.228  1.4151  3.3420 -1.4445
  158OSM    C4S17667   1.204   5.881   2.530 -0.2697 -0.4022  0.0475
  158OSM    H4S17668   1.120   5.831   2.579  0.7238 -1.5782  0.5858
  158OSM    C5S17669   1.319   5.864   2.596  0.1139 -0.1415 -0.6933
  158OSM    H5S17670   1.418   5.885   2.552  1.4458 -0.8375  1.8221
  158OSM    C6S17671   1.329   5.816   2.737  0.3366  0.0185 -0.4487
  158OSM    H6S17672   1.405   5.737   2.748 -0.5949 -1.0193 -1.2967
  158OSM    H6T17673   1.231   5.770   2.761  0.8828 -0.3001  1.3455
  158OSM    C7S17674   1.343   5.932   2.852 -0.7104 -0.4876 -0.2270
  158OSM    H7S17675   1.262   6.004   2.828 -1.4516 -1.5569 -1.0080
  158OSM    H7T17676   1.438   5.988   2.844 -0.3846 -0.8236  1.0162
  158OSM    C8S17677   1.322   5.868   2.994 -0.2863 -1.0907  0.4720
  158OSM    H8S17678   1.399   5.788   3.007 -1.4204 -2.4661 -0.9784
  158OSM    H8T17679   1.225   5.815   3.001 -0.5192 -0.5576  1.4183
  158OSM    C9S17680   1.331   5.957   3.119 -0.2020 -0.3057  0.5120
  158OSM    H9S17681   1.258   6.041   3.117  1.1100  0.8651  0.3900
  158OSM    H9T17682   1.433   6.000   3.122 -0.0305 -0.7002  0.3895
  158OSM   C10S17683   1.307   5.881   3.254 -0.3878 -0.1637 -0.4103
  158OSM   H10S17684   1.397   5.817   3.271  0.5446  1.1607 -0.1571
  158OSM   H10T17685   1.215   5.821   3.256 -1.0038  0.6258  3.1718
  158OSM   C11S17686   1.293   5.986   3.364  0.0125  0.7429 -0.2127
  158OSM   H11S17687   1.191   6.028   3.350  0.6970  1.9130 -1.9203
  158OSM   H11T17688   1.368   6.061   3.333  0.0936  0.2636 -1.2154
  158OSM   C12S17689   1.332   5.931   3.503 -0.0052 -0.2245  0.1316
  158OSM   H12S17690   1.433   5.884   3.500  0.0671 -0.2398  1.7666
  158OSM   H12T17691   1.262   5.850   3.532 -1.8611  0.2705 -2.6259
  158OSM   C13S17692   1.338   6.037   3.611 -0.2435  0.0714 -0.6513
  158OSM   H13S17693   1.249   6.103   3.609 -0.5733 -0.3677 -0.7384
  158OSM   H13T17694   1.424   6.105   3.593 -1.7726  2.0518 -0.7938
  158OSM   C14S17695   1.342   5.979   3.752  0.7217 -0.2698  0.1331
  158OSM   H14S17696   1.437   5.924   3.771  1.4239  0.5320 -0.8889
  158OSM   H14T17697   1.257   5.908   3.752  0.3140  0.2103  0.5476
  158OSM   C15S17698   1.336   6.080   3.863  0.8956 -0.2725  0.0416
  158OSM   H15S17699   1.248   6.146   3.852  0.6106 -1.0392 -3.5988
  158OSM   H15T17700   1.430   6.139   3.856  1.7215 -1.7548 -2.8378
  158OSM   C16S17701   1.324   6.003   3.991 -0.6510  0.1584  0.0993
  158OSM   H16S17702   1.408   5.932   4.004 -0.1611  0.8499  0.7976
  158OSM   H16T17703   1.230   5.944   3.983 -0.3622 -0.0939 -2.7562
  158OSM   C17S17704   1.322   6.085   4.111  0.1027 -0.2686  0.4965
  158OSM   H17S17705   1.259   6.176   4.117 -3.6419 -2.6852  1.2486
  158OSM   H17T17706   1.423   6.126   4.132  0.4611 -0.5246 -0.6447
  158OSM   C18S17707   1.294   6.006   4.238  0.1321 -1.1555  0.0009
  158OSM   H18S17708   1.380   5.936   4.245  0.4555 -1.0125 -1.9930
  158OSM   H18T17709   1.202   5.943   4.230 -0.5975 -0.3531  1.5587
  158OSM   H18U17710   1.290   6.063   4.333  0.3903  1.6646 -1.5930
  158OSM    C1F17711   0.997   6.233   2.472  0.3518  0.1069  1.3671
  158OSM     OF17712   0.885   6.210   2.429  0.2327 -0.1380  0.2098
  158OSM    C2F17713   1.017   6.357   2.546 -0.4623 -0.2728 -0.2115
  158OSM    H2F17714   0.946   6.437   2.516  0.2195  0.8331  0.9786
  158OSM    H2G17715   1.121   6.395   2.534  0.1107 -1.6405  0.2496
  158OSM    C3F17716   0.994   6.321   2.696 -0.3368 -0.3049  0.3498
  158OSM    H3F17717   1.060   6.241   2.735  0.2657  0.1351  0.2373
  158OSM    H3G17718   0.887   6.293   2.709  0.2663 -1.9590  2.1304
  158OSM    C4F17719   1.004   6.440   2.794  0.2906 -0.1425 -0.1146
  158OSM    H4F17720   0.937   6.517   2.750 -0.2751  0.2811  1.4121
  158OSM    H4G17721   1.110   6.472   2.790  0.5481 -1.0503 -1.0272
  158OSM    C5F17722   0.957   6.411   2.932 -0.0831  0.4804 -0.2336
  158OSM    H5F17723   1.022   6.333   2.976 -0.3877  1.4588  2.1268
  158OSM    H5G17724   0.855   6.373   2.912 -0.6434  0.2690  2.5888
  158OSM    C6F17725   0.938   6.526   3.033 -0.3972 -0.1292  0.3444
  158OSM    H6F17726   0.860   6.592   2.991 -0.6093  0.2402  1.2991
  158OSM    H6G17727   1.034   6.579   3.050 -0.5502  0.1708  0.2723
  158OSM    C7F17728   0.874   6.478   3.160  0.3607  0.6020 -0.2457
  158OSM    H7F17729   0.940   6.411   3.218 -2.1830 -0.6021  1.4496
  158OSM    H7G17730   0.780   6.428   3.128  0.9387 -1.4166  1.0313
  158OSM    C8F17731   0.841   6.580   3.258  0.4703 -0.3440  0.0229
  158OSM    H8F17732   0.794   6.661   3.199 -1.8610  0.6060  2.9621
  158OSM    H8G17733   0.932   6.610   3.312  1.6172  1.2187 -2.5926
  158OSM    C9F17734   0.724   6.553   3.356 -0.7519 -0.3101 -0.1365
  158OSM    H9F17735   0.626   6.531   3.312  0.2326 -1.2635 -1.9496
  158OSM   C10F17736   0.746   6.547   3.492 -0.4233  0.1320  0.2044
  158OSM   H10F17737   0.664   6.507   3.553 -0.7138  2.0320  1.1539
  158OSM   C11F17738   0.872   6.559   3.574  0.6498  0.1976 -0.0353
  158OSM   H11F17739   0.964   6.591   3.522  0.1736 -0.2906 -1.2236
  158OSM   H11G17740   0.893   6.460   3.618 -0.5390  0.3347  0.8837
  158OSM   C12F17741   0.860   6.664   3.690 -0.9077  0.6433  0.0937
  158OSM   H12F17742   0.797   6.754   3.671 -2.1142 -0.3310 -0.6478
  158OSM   H12G17743   0.964   6.695   3.714  0.5865 -3.4824 -0.2958
  158OSM   C13F17744   0.796   6.603   3.821 -0.6058 -0.0296  0.6648
  158OSM   H13F17745   0.875   6.562   3.887 -0.0256  1.3446  0.8558
  158OSM   H13G17746   0.732   6.517   3.791  0.0672 -0.3839  0.2100
  158OSM   C14F17747   0.723   6.714   3.908 -0.2512 -0.2306  0.0655
  158OSM   H14F17748   0.631   6.745   3.854 -0.6039 -0.8657  0.2885
  158OSM   H14G17749   0.789   6.803   3.902  3.7385 -2.9844 -3.6825
  158OSM   C15F17750   0.701   6.680   4.057 -0.2698 -0.0036  0.0400
  158OSM   H15F17751   0.798   6.635   4.086 -0.9127 -2.1141 -0.8873
  158OSM   H15G17752   0.620   6.605   4.065 -0.3390  0.2452  2.6196
  158OSM   C16F17753   0.655   6.799   4.138 -0.2156  0.0093 -0.4414
  158OSM   H16F17754   0.567   6.849   4.092  0.0349 -0.3154 -1.2971
  158OSM   H16G17755   0.739   6.872   4.139 -0.3979  0.3606  3.5227
  158OSM   C17F17756   0.614   6.756   4.283  0.8227  0.4291 -0.7013
  158OSM   H17F17757   0.698   6.695   4.320  2.0769  1.0162 -2.4716
  158OSM   H17G17758   0.524   6.691   4.270  1.8299 -2.0683  3.1317
  158OSM   C18F17759   0.587   6.874   4.372  0.9520  0.6826 -0.5980
  158OSM   H18F17760   0.680   6.918   4.414 -0.0498  2.6121 -0.3139
  158OSM   H18G17761   0.513   6.852   4.453  1.6307  0.2749 -0.0695
  158OSM   H18H17762   0.542   6.952   4.308  1.2168 -0.4924 -2.2865
  159OSM      N17763   3.466   0.548   1.760  0.8276  0.0948  0.2888
  159OSM    C1517764   3.528   0.651   1.671  0.2494  0.1278  0.9598
  159OSM   H15A17765   3.565   0.608   1.579  0.1454 -0.1086  1.0273
  159OSM   H15B17766   3.606   0.706   1.722 -0.1913 -0.2286  2.0621
  159OSM   H15C17767   3.453   0.724   1.649 -2.5820 -3.0948 -1.0934
  159OSM    C1417768   3.367   0.461   1.681 -0.2228  0.2320 -0.0863
  159OSM   H14A17769   3.405   0.400   1.600 -1.0147 -0.8078  0.3050
  159OSM   H14B17770   3.299   0.529   1.632  1.0170  1.4840 -0.1312
  159OSM   H14C17771   3.321   0.393   1.751 -0.0579  0.7869  0.5641
  159OSM    C1317772   3.592   0.461   1.798  0.0005 -0.0779  0.7265
  159OSM   H13A17773   3.658   0.520   1.861 -0.7485 -0.0110  1.4716
  159OSM   H13B17774   3.636   0.447   1.701  0.1642  0.6166  0.6941
  159OSM   H13C17775   3.560   0.369   1.844 -0.2686 -0.4549 -0.2113
  159OSM    C1217776   3.397   0.608   1.883 -0.9287  0.0607 -0.1372
  159OSM   H12A17777   3.364   0.523   1.940  0.0589 -1.7512 -2.1372
  159OSM   H12B17778   3.317   0.674   1.853 -0.0715  1.4287  0.4784
  159OSM    C1117779   3.483   0.694   1.975  0.2838 -0.4060 -0.1564
  159OSM   H11A17780   3.410   0.741   2.045  1.5925 -0.3788  1.2573
  159OSM   H11B17781   3.518   0.781   1.915 -0.6580 -0.2238 -0.4619
  159OSM      P17782   3.738   0.688   2.045 -0.2518  0.2102 -0.4414
  159OSM    O1317783   3.825   0.574   2.094  0.4565  0.3393 -0.4173
  159OSM    O1417784   3.772   0.746   1.912  0.2820 -0.3687  0.3246
  159OSM    O1117785   3.729   0.799   2.150 -0.0854  0.4552  0.2498
  159OSM    O1217786   3.593   0.620   2.033 -0.0828 -0.0516  0.2251
  159OSM    C1S17787   3.678   0.776   2.279 -0.2867  0.1786  0.1199
  159OSM    H1S17788   3.748   0.718   2.342 -0.0138 -2.6876 -2.6235
  159OSM    H1T17789   3.587   0.713   2.279  0.5780 -1.1345  1.4490
  159OSM     NF17790   3.612   0.885   2.487 -0.6898 -0.4452  0.1067
  159OSM    HNF17791   3.523   0.919   2.514  0.6652  1.0870  3.2017
  159OSM    C2S17792   3.649   0.908   2.348 -0.3626  0.0494  0.3078
  159OSM    H2S17793   3.744   0.966   2.357 -1.6057  1.9639  1.7183
  159OSM    C3S17794   3.564   1.004   2.264  0.2569  1.0316  0.2178
  159OSM    H3S17795   3.476   0.944   2.234 -0.4417  1.6221  1.0154
  159OSM     O317796   3.630   1.044   2.149 -0.3736  0.0496 -0.2488
  159OSM    HO317797   3.681   0.967   2.123 -0.9089 -0.0371 -1.0593
  159OSM    C4S17798   3.519   1.127   2.338 -0.1083 -0.4171 -0.3363
  159OSM    H4S17799   3.409   1.125   2.350 -0.0022 -2.3859  0.6573
  159OSM    C5S17800   3.602   1.224   2.385  0.8129 -1.0063 -0.6289
  159OSM    H5S17801   3.711   1.211   2.388  1.3194  2.4646  1.8653
  159OSM    C6S17802   3.554   1.341   2.467  0.7378 -0.3156  0.8282
  159OSM    H6S17803   3.447   1.356   2.439  1.5218  0.9050 -1.7924
  159OSM    H6T17804   3.601   1.439   2.442 -1.8349  0.7569 -0.1762
  159OSM    C7S17805   3.584   1.304   2.615 -0.3189 -0.4500  0.1781
  159OSM    H7S17806   3.694   1.300   2.632  0.2537  1.7124 -2.4816
  159OSM    H7T17807   3.534   1.211   2.649 -2.1167  0.6428  0.6548
  159OSM    C8S17808   3.541   1.424   2.705  0.4753 -0.3146 -0.3115
  159OSM    H8S17809   3.441   1.458   2.670  0.6979 -1.3530 -2.1148
  159OSM    H8T17810   3.614   1.506   2.695 -0.4602  0.4508 -1.0921
  159OSM    C9S17811   3.545   1.388   2.854 -0.3977 -0.7263 -0.6423
  159OSM    H9S17812   3.540   1.475   2.923  1.0690 -2.7851  2.3235
  159OSM    H9T17813   3.647   1.345   2.866  1.5502  3.1564 -1.6589
  159OSM   C10S17814   3.432   1.301   2.904 -0.8366  0.2473 -0.2596
  159OSM   H10S17815   3.447   1.193   2.887  1.1631  0.1867  1.4967
  159OSM   H10T17816   3.333   1.340   2.872 -0.2987  0.1936 -2.0871
  159OSM   C11S17817   3.414   1.312   3.065 -0.2231  0.3191  0.5068
  159OSM   H11S17818   3.412   1.415   3.105 -0.5554 -0.1399  1.7254
  159OSM   H11T17819   3.500   1.259   3.110 -1.3941 -2.0607  0.1640
  159OSM   C12S17820   3.288   1.249   3.117  0.9654 -0.1653 -0.4681
  159OSM   H12S17821   3.264   1.166   3.048 -1.6436  1.1879 -1.3137
  159OSM   H12T17822   3.200   1.316   3.125  0.6440 -0.7114  0.7302
  159OSM   C13S17823   3.304   1.172   3.250  0.7757 -0.3951  0.5577
  159OSM   H13S17824   3.376   1.089   3.237  1.2649  0.1875 -0.5751
  159OSM   H13T17825   3.202   1.128   3.264  1.3224 -2.4366 -1.4131
  159OSM   C14S17826   3.325   1.267   3.365  0.2895 -0.0074  0.0835
  159OSM   H14S17827   3.243   1.342   3.368 -1.1904 -1.5078 -1.1993
  159OSM   H14T17828   3.414   1.333   3.352  1.3764 -1.4840 -0.2598
  159OSM   C15S17829   3.333   1.201   3.506 -0.3019 -0.6766  0.5171
  159OSM   H15S17830   3.421   1.134   3.518  0.6661  0.3942 -0.3424
  159OSM   H15T17831   3.233   1.160   3.532 -0.2186 -1.4798 -0.3737
  159OSM   C16S17832   3.362   1.308   3.614 -0.0126  0.1204 -0.0599
  159OSM   H16S17833   3.289   1.391   3.606 -2.1392 -1.6848 -0.1742
  159OSM   H16T17834   3.463   1.353   3.602  0.2941 -0.7196 -0.8311
  159OSM   C17S17835   3.353   1.263   3.764  0.3040  0.1944 -0.7105
  159OSM   H17S17836   3.386   1.352   3.822 -0.4217 -1.6810  2.9231
  159OSM   H17T17837   3.423   1.180   3.789 -0.3334  0.0335  0.6343
  159OSM   C18S17838   3.223   1.206   3.829 -0.3522  1.3194  0.3445
  159OSM   H18S17839   3.145   1.283   3.841 -2.0375 -0.4478  1.2896
  159OSM   H18T17840   3.245   1.152   3.924 -2.3879 -0.6330 -0.2201
  159OSM   H18U17841   3.175   1.127   3.767  0.1343 -0.8615  2.5699
  159OSM    C1F17842   3.693   0.835   2.573 -0.5846 -0.4013 -0.5326
  159OSM     OF17843   3.814   0.835   2.554 -0.2180 -0.2137 -0.4387
  159OSM    C2F17844   3.631   0.771   2.694  0.2846 -0.0822 -0.3493
  159OSM    H2F17845   3.705   0.699   2.736  2.1997  1.3998 -1.0032
  159OSM    H2G17846   3.544   0.718   2.651  0.4728 -1.5123  0.9577
  159OSM    C3F17847   3.595   0.881   2.800 -0.3835  0.2078 -0.0520
  159OSM    H3F17848   3.540   0.967   2.756  0.4139  0.8145  0.1052
  159OSM    H3G17849   3.691   0.923   2.837  0.1527 -1.1218  0.1164
  159OSM    C4F17850   3.507   0.815   2.903 -0.5309  0.0399  0.0115
  159OSM    H4F17851   3.567   0.740   2.957  0.1604 -0.0087 -0.8000
  159OSM    H4G17852   3.431   0.756   2.847  0.7623  0.4813 -2.3307
  159OSM    C5F17853   3.430   0.905   2.997  0.5083  0.4683 -0.6925
  159OSM    H5F17854   3.349   0.947   2.933 -0.2437  0.6294  0.3391
  159OSM    H5G17855   3.484   0.992   3.038 -0.2205  0.0316  1.2841
  159OSM    C6F17856   3.366   0.818   3.108 -0.5781 -0.3955  0.0886
  159OSM    H6F17857   3.312   0.733   3.060 -1.8144  0.1478  0.4756
  159OSM    H6G17858   3.296   0.883   3.165  2.0178  2.2831  0.4520
  159OSM    C7F17859   3.461   0.773   3.216 -0.2633 -0.2821 -0.1943
  159OSM    H7F17860   3.533   0.709   3.161  3.0754  2.9895  0.0148
  159OSM    H7G17861   3.408   0.710   3.291 -2.0118  0.1882 -0.9872
  159OSM    C8F17862   3.534   0.877   3.301 -0.5837 -0.6174 -0.4772
  159OSM    H8F17863   3.465   0.915   3.380  2.0071  2.7210  0.3981
  159OSM    H8G17864   3.561   0.964   3.238  0.5915 -0.1155  0.6751
  159OSM    C9F17865   3.651   0.821   3.379 -0.2846  0.7915  0.1139
  159OSM    H9F17866   3.726   0.776   3.311 -0.4595  0.8213 -0.1009
  159OSM   C10F17867   3.667   0.808   3.511  0.2846 -0.3097 -0.2629
  159OSM   H10F17868   3.759   0.759   3.546  0.4181 -1.2333 -1.8345
  159OSM   C11F17869   3.593   0.877   3.617  0.0550  0.7857 -0.4401
  159OSM   H11F17870   3.513   0.946   3.584 -1.5692  0.9417  3.2909
  159OSM   H11G17871   3.672   0.941   3.663  0.4821  0.0976 -0.1914
  159OSM   C12F17872   3.537   0.789   3.731  0.3657 -0.2302  0.0534
  159OSM   H12F17873   3.461   0.722   3.688 -1.1847  0.0690  2.1841
  159OSM   H12G17874   3.491   0.855   3.808  0.4554 -2.3023  1.9792
  159OSM   C13F17875   3.657   0.707   3.798  0.0070 -0.0606 -0.3153
  159OSM   H13F17876   3.724   0.660   3.722 -0.8077 -0.3916 -0.8390
  159OSM   H13G17877   3.618   0.622   3.856  1.3250 -0.8174 -0.4865
  159OSM   C14F17878   3.729   0.792   3.903 -0.1501 -0.1686 -0.0215
  159OSM   H14F17879   3.662   0.844   3.974 -0.3707 -0.7322  0.1846
  159OSM   H14G17880   3.778   0.871   3.842 -0.7737 -1.5784 -2.4907
  159OSM   C15F17881   3.840   0.726   3.987  0.1638 -0.2195  0.5316
  159OSM   H15F17882   3.899   0.811   4.028 -0.9522  0.5052  0.6719
  159OSM   H15G17883   3.898   0.666   3.913  1.7654  2.2516 -0.3552
  159OSM   C16F17884   3.805   0.635   4.098 -0.3525 -0.2899 -0.2149
  159OSM   H16F17885   3.742   0.552   4.059 -0.2163 -0.0469 -0.9678
  159OSM   H16G17886   3.749   0.683   4.181  0.0104 -0.7255  0.2862
  159OSM   C17F17887   3.935   0.579   4.161 -0.0995 -0.6155 -0.9947
  159OSM   H17F17888   3.987   0.517   4.085  1.0639 -2.3128  1.0887
  159OSM   H17G17889   3.898   0.506   4.236  0.5335 -1.4725 -1.4983
  159OSM   C18F17890   4.029   0.681   4.233  0.3881  0.2242  0.4225
  159OSM   H18F17891   4.089   0.625   4.309  1.7805  1.7709  0.5266
  159OSM   H18G17892   3.965   0.754   4.286 -2.0080 -1.1187 -0.4761
  159OSM   H18H17893   4.094   0.736   4.161 -0.0689  1.3646  0.8605
  160OSM      N17894   0.895   0.264   2.183 -0.1213 -0.1416 -0.1976
  160OSM    C1517895   0.908   0.144   2.274  0.5713  0.0939  0.0568
  160OSM   H15A17896   0.965   0.176   2.360 -1.2931  0.2787  1.3071
  160OSM   H15B17897   0.950   0.063   2.216  0.4556  0.3873 -0.4381
  160OSM   H15C17898   0.813   0.114   2.317  0.9826 -2.2028 -0.4699
  160OSM    C1417899   1.026   0.275   2.103  0.8100  0.3388  0.1344
  160OSM   H14A17900   1.052   0.173   2.080 -0.3424  0.3221 -1.2039
  160OSM   H14B17901   1.104   0.315   2.165 -0.0122  0.1673  1.3200
  160OSM   H14C17902   1.020   0.343   2.019  0.5630  0.7131  0.4533
  160OSM    C1317903   0.775   0.245   2.089 -0.6408  0.3312 -0.1829
  160OSM   H13A17904   0.800   0.177   2.009  0.6156  1.4119 -0.7295
  160OSM   H13B17905   0.744   0.341   2.053 -0.0121  0.8381  0.5918
  160OSM   H13C17906   0.690   0.202   2.140  0.2846 -1.3016  0.0831
  160OSM    C1217907   0.869   0.381   2.268 -0.0590 -0.5825 -0.1488
  160OSM   H12A17908   0.945   0.392   2.344  0.5721  1.4075 -0.9997
  160OSM   H12B17909   0.778   0.366   2.323 -0.2574 -0.9604 -0.5676
  160OSM    C1117910   0.863   0.519   2.202 -0.5919  0.1087  0.1155
  160OSM   H11A17911   0.845   0.588   2.287  0.6346  0.1115  0.3958
  160OSM   H11B17912   0.773   0.520   2.138 -0.3569  2.3333 -0.2639
  160OSM      P17913   1.104   0.620   2.178  0.2425  0.0038 -0.2025
  160OSM    O1317914   1.202   0.513   2.175 -0.4393  0.9697  0.7280
  160OSM    O1417915   1.135   0.748   2.111 -0.1399  0.1678 -0.4897
  160OSM    O1117916   1.082   0.647   2.330 -0.3402  0.0595 -0.2219
  160OSM    O1217917   0.969   0.567   2.113  0.1301  0.7673  0.8202
  160OSM    C1S17918   1.026   0.748   2.399  0.3724  0.2151 -0.0941
  160OSM    H1S17919   0.918   0.721   2.402 -0.0132  1.7108  0.5129
  160OSM    H1T17920   1.030   0.846   2.347  0.3161 -0.9491 -2.4076
  160OSM     NF17921   1.014   0.864   2.617  0.2227 -0.4138 -0.0910
  160OSM    HNF17922   1.075   0.942   2.624 -0.8724  0.5238 -0.6136
  160OSM    C2S17923   1.082   0.756   2.546 -0.0852  0.7366  0.2956
  160OSM    H2S17924   1.060   0.657   2.591 -1.2930  0.3150 -1.1116
  160OSM    C3S17925   1.237   0.771   2.543  0.1579  0.2208  0.1938
  160OSM    H3S17926   1.258   0.868   2.493 -0.7222 -0.4799 -1.5844
  160OSM     O317927   1.300   0.665   2.478  0.2680  0.0043 -0.1008
  160OSM    HO317928   1.226   0.610   2.452 -0.0605 -0.2022  1.1840
  160OSM    C4S17929   1.282   0.783   2.692  0.0872  0.0860 -0.1789
  160OSM    H4S17930   1.315   0.885   2.716  0.6811 -0.3682  1.0220
  160OSM    C5S17931   1.295   0.680   2.779 -0.1121  0.1860 -0.1003
  160OSM    H5S17932   1.282   0.577   2.740 -0.0013  0.9167 -2.2082
  160OSM    C6S17933   1.346   0.701   2.917 -0.1488  0.5494 -0.4150
  160OSM    H6S17934   1.448   0.656   2.919 -0.2072  0.3352 -1.6617
  160OSM    H6T17935   1.296   0.626   2.982 -0.2161  1.1737  0.2813
  160OSM    C7S17936   1.321   0.844   2.978 -0.9407  0.5016  0.2878
  160OSM    H7S17937   1.213   0.873   2.982 -0.9809  0.2408  4.3596
  160OSM    H7T17938   1.387   0.918   2.928  0.6586  1.0513  3.0186
  160OSM    C8S17939   1.356   0.865   3.126 -0.1749 -0.4372  0.0782
  160OSM    H8S17940   1.261   0.874   3.181  0.5581  1.4030  1.1315
  160OSM    H8T17941   1.402   0.966   3.135  0.8690 -0.8944  0.1400
  160OSM    C9S17942   1.446   0.765   3.197  0.0962 -0.1012 -0.7917
  160OSM    H9S17943   1.537   0.744   3.137  0.6599 -0.0314  0.0331
  160OSM    H9T17944   1.384   0.673   3.193  0.4658 -0.4505  0.9754
  160OSM   C10S17945   1.482   0.793   3.348  0.3756 -0.8668  0.1557
  160OSM   H10S17946   1.381   0.788   3.395 -0.8759  2.1364 -1.9241
  160OSM   H10T17947   1.520   0.897   3.362 -3.1085  1.0123 -2.7654
  160OSM   C11S17948   1.583   0.700   3.412 -0.1780  0.3590  0.1205
  160OSM   H11S17949   1.678   0.703   3.354 -0.3443 -0.2052 -0.1907
  160OSM   H11T17950   1.549   0.595   3.427  3.6873 -0.7739  2.5700
  160OSM   C12S17951   1.634   0.748   3.548  0.1915 -0.3409 -0.1688
  160OSM   H12S17952   1.576   0.714   3.636  1.1306 -0.4343  0.4320
  160OSM   H12T17953   1.623   0.858   3.543  0.2923 -0.2721  0.9215
  160OSM   C13S17954   1.785   0.725   3.581 -0.5738 -0.0537 -1.1454
  160OSM   H13S17955   1.835   0.761   3.489 -0.0736  1.4576 -0.3207
  160OSM   H13T17956   1.801   0.617   3.601 -1.3344  0.1087  0.5674
  160OSM   C14S17957   1.828   0.804   3.704 -0.0965  0.7285  0.7022
  160OSM   H14S17958   1.792   0.908   3.693  1.4447  1.2017 -0.2675
  160OSM   H14T17959   1.939   0.808   3.711 -0.2477  2.0720  3.5300
  160OSM   C15S17960   1.773   0.742   3.838 -0.4605 -0.1269 -0.3884
  160OSM   H15S17961   1.795   0.633   3.840  1.5379  0.2474  0.2630
  160OSM   H15T17962   1.663   0.750   3.828 -0.3536 -0.2523 -1.9950
  160OSM   C16S17963   1.840   0.808   3.955  0.0484 -0.5191 -0.5839
  160OSM   H16S17964   1.787   0.782   4.049  0.8634 -1.0507 -0.2589
  160OSM   H16T17965   1.867   0.915   3.949  0.9538 -0.7621 -0.9941
  160OSM   C17S17966   1.969   0.735   3.991  0.2121  0.5936  0.2634
  160OSM   H17S17967   2.035   0.766   3.907 -0.6303  2.0302  0.1129
  160OSM   H17T17968   1.947   0.626   3.985 -2.1994  0.9539  1.1880
  160OSM   C18S17969   2.042   0.762   4.118  0.7368 -0.3426 -0.5114
  160OSM   H18S17970   1.993   0.727   4.211  1.4645  1.5055  0.6243
  160OSM   H18T17971   2.051   0.872   4.130  0.2379 -0.3788  0.2312
  160OSM   H18U17972   2.143   0.716   4.118  0.9414  0.0551 -2.3003
  160OSM    C1F17973   0.883   0.876   2.657 -0.3820  0.0158  0.1775
  160OSM     OF17974   0.801   0.787   2.627  0.3491  0.1502 -0.1350
  160OSM    C2F17975   0.831   1.000   2.736  0.1160 -0.5221  0.4586
  160OSM    H2F17976   0.740   1.025   2.677  1.4554 -1.4082 -2.1307
  160OSM    H2G17977   0.905   1.082   2.728 -1.0293  0.5609  0.6954
  160OSM    C3F17978   0.809   0.967   2.880 -0.4731  0.2838 -0.4832
  160OSM    H3F17979   0.906   0.986   2.932  0.5321  0.2502 -2.2736
  160OSM    H3G17980   0.772   0.863   2.892  0.4733  0.1352  1.6526
  160OSM    C4F17981   0.723   1.070   2.953  0.3626 -0.2200  0.4771
  160OSM    H4F17982   0.615   1.050   2.934  0.7948 -1.0491 -1.4229
  160OSM    H4G17983   0.746   1.171   2.913  0.1708  0.2994  1.6473
  160OSM    C5F17984   0.741   1.068   3.102 -0.6974  0.8469  0.1067
  160OSM    H5F17985   0.838   1.111   3.132 -1.1552  1.6829  0.4345
  160OSM    H5G17986   0.752   0.963   3.134  2.8741  1.4039  1.1029
  160OSM    C6F17987   0.623   1.121   3.179 -0.2763 -0.0538  0.3048
  160OSM    H6F17988   0.536   1.065   3.139  1.0265 -0.5822 -1.9844
  160OSM    H6G17989   0.609   1.228   3.149  0.5961 -0.4199 -1.5695
  160OSM    C7F17990   0.637   1.113   3.333  0.0911 -0.1683 -0.0855
  160OSM    H7F17991   0.661   1.005   3.344  0.1807 -0.3341 -1.6846
  160OSM    H7G17992   0.539   1.135   3.380  1.0277  1.4404  1.2218
  160OSM    C8F17993   0.744   1.201   3.396 -0.5744 -0.2644 -0.6421
  160OSM    H8F17994   0.698   1.302   3.393 -0.2046 -0.0698  0.0163
  160OSM    H8G17995   0.834   1.192   3.331 -0.1340 -1.7435  0.1204
  160OSM    C9F17996   0.761   1.166   3.538 -0.0103  0.4210 -0.5196
  160OSM    H9F17997   0.671   1.180   3.599  0.1289 -1.1659  0.0913
  160OSM   C10F17998   0.876   1.132   3.602 -0.0901 -0.2108 -0.7461
  160OSM   H10F17999   0.876   1.137   3.712  1.7541  1.8565 -0.7647
  160OSM   C11F18000   1.016   1.128   3.556  0.0571  0.6974 -0.0040
  160OSM   H11F18001   1.017   1.174   3.455 -0.7819  1.9405  0.5273
  160OSM   H11G18002   1.051   1.022   3.555  0.8363  0.8569 -3.3467
  160OSM   C12F18003   1.115   1.192   3.660 -0.6780  0.1811 -0.6995
  160OSM   H12F18004   1.081   1.171   3.764 -3.0381  0.3143 -1.3823
  160OSM   H12G18005   1.095   1.299   3.637  1.0439  0.6316 -0.2393
  160OSM   C13F18006   1.262   1.159   3.636 -0.1368  0.8769 -0.2608
  160OSM   H13F18007   1.330   1.221   3.699 -1.9035  0.7772  1.8365
  160OSM   H13G18008   1.283   1.176   3.528 -1.5037 -0.9626 -0.8686
  160OSM   C14F18009   1.304   1.016   3.663 -0.0860  0.1213 -0.0468
  160OSM   H14F18010   1.408   1.000   3.628  0.4386  0.1053  1.4395
  160OSM   H14G18011   1.245   0.940   3.608 -0.4372 -0.2843  0.8721
  160OSM   C15F18012   1.292   0.975   3.813 -0.1675 -0.5143 -0.2210
  160OSM   H15F18013   1.184   0.979   3.836 -0.2756 -0.7966 -0.6774
  160OSM   H15G18014   1.327   1.059   3.878 -1.5251 -0.8508  0.9943
  160OSM   C16F18015   1.366   0.844   3.845  0.2232  0.0213  0.3635
  160OSM   H16F18016   1.473   0.849   3.818  0.4858 -0.8367  1.2164
  160OSM   H16G18017   1.319   0.773   3.774  2.2373  1.1365 -2.2579
  160OSM   C17F18018   1.358   0.792   3.992 -0.4554 -0.5389 -0.1030
  160OSM   H17F18019   1.250   0.791   4.016 -0.9921  2.4753 -1.8700
  160OSM   H17G18020   1.421   0.864   4.048  1.3470 -1.8529 -0.3638
  160OSM   C18F18021   1.411   0.647   4.002 -0.3016  0.4621 -0.1720
  160OSM   H18F18022   1.411   0.623   4.110 -2.0459  0.8351 -0.0452
  160OSM   H18G18023   1.518   0.638   3.976  0.6540 -0.3641  3.5440
  160OSM   H18H18024   1.344   0.573   3.952 -0.3496 -0.2303  0.8899
  161OSM      N18025   4.817   6.749   1.776  0.4523 -0.3081 -0.0148
  161OSM    C1518026   4.668   6.743   1.770  0.1636 -0.1798 -1.1066
  161OSM   H15A18027   4.634   6.646   1.803 -1.9083  0.9140  0.1724
  161OSM   H15B18028   4.636   6.787   1.677  1.7107  3.1331 -0.2661
  161OSM   H15C18029   4.627   6.808   1.847  3.0006  0.6003 -0.1102
  161OSM    C1418030   4.867   6.691   1.650 -0.1815 -0.1014  0.2000
  161OSM   H14A18031   4.841   6.588   1.633 -1.4095  0.3072 -0.4688
  161OSM   H14B18032   4.975   6.687   1.662 -0.2300 -1.2381  0.4004
  161OSM   H14C18033   4.842   6.753   1.566 -0.2358  0.9016  0.9433
  161OSM    C1318034   4.861   6.891   1.783 -0.3462  0.5337 -0.2231
  161OSM   H13A18035   4.968   6.899   1.775 -0.2809  2.1389  1.6635
  161OSM   H13B18036   4.850   6.943   1.876  0.7648  3.3584 -1.5722
  161OSM   H13C18037   4.813   6.956   1.710 -0.2072  0.2807 -0.5440
  161OSM    C1218038   4.858   6.678   1.903  0.4540  0.4348  0.1318
  161OSM   H12A18039   4.964   6.691   1.918  0.4909 -0.1968  0.4469
  161OSM   H12B18040   4.844   6.575   1.874  0.5802 -0.2247  2.2427
  161OSM    C1118041   4.767   6.700   2.028 -0.0596  0.5647  0.1012
  161OSM   H11A18042   4.797   6.625   2.104 -0.1530  0.1332 -0.2840
  161OSM   H11B18043   4.661   6.676   2.004 -0.0224 -1.5846  1.8040
  161OSM      P18044   4.907   6.860   2.184 -0.3591  0.5642  0.0482
  161OSM    O1318045   5.032   6.803   2.132  0.0658 -0.5380 -1.1633
  161OSM    O1418046   4.912   7.007   2.202  0.0491  0.5909  0.4434
  161OSM    O1118047   4.860   6.786   2.316  0.2959  0.2896  0.0347
  161OSM    O1218048   4.787   6.821   2.090 -0.1113  0.1662 -0.2706
  161OSM    C1S18049   4.906   6.663   2.365  0.5427  0.0259  0.0058
  161OSM    H1S18050   4.997   6.631   2.311 -0.7512 -1.1737 -1.5907
  161OSM    H1T18051   4.830   6.582   2.352  0.6034 -0.1410  0.6745
  161OSM     NF18052   4.987   6.543   2.574 -0.4816  0.2724 -0.2045
  161OSM    HNF18053   4.930   6.478   2.624 -0.0329 -0.9722 -1.2670
  161OSM    C2S18054   4.915   6.663   2.523  0.2981  0.3252 -0.1320
  161OSM    H2S18055   4.976   6.751   2.556 -0.4455  0.2973  1.4309
  161OSM    C3S18056   4.775   6.680   2.579  0.0599  0.0571  0.2113
  161OSM    H3S18057   4.713   6.588   2.586  1.0625 -0.5804  1.3089
  161OSM     O318058   4.693   6.764   2.503  0.0526 -0.3765 -0.2313
  161OSM    HO318059   4.745   6.790   2.426  0.6185 -0.3519  0.1498
  161OSM    C4S18060   4.785   6.718   2.727 -0.4012  0.2129  0.0773
  161OSM    H4S18061   4.867   6.790   2.743  1.5374 -2.0455  0.9977
  161OSM    C5S18062   4.704   6.673   2.824 -0.4198 -0.0357 -0.0298
  161OSM    H5S18063   4.617   6.608   2.808 -0.7101 -0.1647  1.8406
  161OSM    C6S18064   4.692   6.742   2.961 -0.0887 -0.4885  0.2345
  161OSM    H6S18065   4.595   6.796   2.971  0.9344  1.5385 -0.0896
  161OSM    H6T18066   4.762   6.829   2.968 -0.5127 -0.1307  0.0852
  161OSM    C7S18067   4.717   6.647   3.084  0.5457  0.0406 -0.4984
  161OSM    H7S18068   4.822   6.613   3.099  0.3671  0.0329  0.8884
  161OSM    H7T18069   4.653   6.557   3.076 -0.4427  0.6067  0.8068
  161OSM    C8S18070   4.673   6.716   3.211 -0.0054 -0.8726  0.2742
  161OSM    H8S18071   4.567   6.748   3.204  0.4128  0.6291  0.3751
  161OSM    H8T18072   4.732   6.806   3.239 -0.3226 -1.3915  2.9759
  161OSM    C9S18073   4.672   6.626   3.337 -0.1214  0.4364  0.2439
  161OSM    H9S18074   4.779   6.595   3.348 -0.0026  0.6773 -0.2044
  161OSM    H9T18075   4.615   6.534   3.311  1.8568 -0.1279 -2.5622
  161OSM   C10S18076   4.614   6.680   3.468 -0.1463  0.4950  0.2205
  161OSM   H10S18077   4.507   6.695   3.440  0.1018  1.1915 -0.4071
  161OSM   H10T18078   4.659   6.779   3.487  0.6377  0.0201  0.8880
  161OSM   C11S18079   4.612   6.590   3.590  0.0400  0.0345  0.2283
  161OSM   H11S18080   4.715   6.552   3.610 -0.6936 -1.9878  0.3858
  161OSM   H11T18081   4.556   6.499   3.562  0.4634 -0.2039  0.1493
  161OSM   C12S18082   4.562   6.670   3.709 -0.1097 -0.5533  0.3018
  161OSM   H12S18083   4.457   6.695   3.682 -0.9043  0.3862  3.8142
  161OSM   H12T18084   4.613   6.768   3.717 -0.2736 -0.0257 -3.3724
  161OSM   C13S18085   4.563   6.596   3.838 -0.8141 -0.2259 -0.3320
  161OSM   H13S18086   4.660   6.542   3.850 -0.7757 -1.0359 -3.4277
  161OSM   H13T18087   4.490   6.514   3.857  0.3302 -1.1314  0.3138
  161OSM   C14S18088   4.539   6.693   3.959 -0.2277  0.5714  0.2937
  161OSM   H14S18089   4.432   6.693   3.990  0.2735 -2.9893  2.6727
  161OSM   H14T18090   4.569   6.793   3.922 -0.7251  1.5139  2.3166
  161OSM   C15S18091   4.613   6.662   4.089 -0.2879 -0.1690 -0.4702
  161OSM   H15S18092   4.720   6.681   4.066 -0.6482  0.0301 -2.1455
  161OSM   H15T18093   4.599   6.553   4.105  0.2484 -0.3369 -1.0892
  161OSM   C16S18094   4.570   6.740   4.213 -0.1420  0.4209  0.2451
  161OSM   H16S18095   4.636   6.700   4.293 -0.1615 -0.2017 -0.0494
  161OSM   H16T18096   4.468   6.714   4.251  0.7032 -1.6978  1.2490
  161OSM   C17S18097   4.593   6.892   4.206 -1.3520  0.5107 -0.3266
  161OSM   H17S18098   4.533   6.940   4.285  0.5188 -0.1128  1.5894
  161OSM   H17T18099   4.558   6.917   4.104  1.6386 -3.2624 -2.5937
  161OSM   C18S18100   4.743   6.932   4.223  0.7707 -0.4469 -0.3596
  161OSM   H18S18101   4.794   6.913   4.320 -0.4445  1.4991  0.7172
  161OSM   H18T18102   4.746   7.041   4.203 -2.3216 -0.0418  0.9148
  161OSM   H18U18103   4.807   6.891   4.141 -0.7297 -2.1082 -0.7609
  161OSM    C1F18104   5.115   6.523   2.542 -0.3478 -0.6288 -0.1643
  161OSM     OF18105   5.173   6.614   2.481  0.8035 -0.3847  0.2761
  161OSM    C2F18106   5.187   6.409   2.604  0.0208  0.4203  0.1916
  161OSM    H2F18107   5.209   6.331   2.529 -2.7109  0.4110 -0.7021
  161OSM    H2G18108   5.117   6.357   2.673  1.1021 -4.3594 -1.9190
  161OSM    C3F18109   5.308   6.470   2.672 -0.0559 -0.4600 -0.3838
  161OSM    H3F18110   5.374   6.517   2.596 -1.1158 -0.0265 -1.0597
  161OSM    H3G18111   5.380   6.396   2.712  1.4162  1.9382  1.6711
  161OSM    C4F18112   5.267   6.560   2.792 -0.5265  0.1911 -0.0296
  161OSM    H4F18113   5.200   6.641   2.758 -0.9284 -0.1873 -0.1508
  161OSM    H4G18114   5.358   6.603   2.839 -0.7651  2.4991 -1.5097
  161OSM    C5F18115   5.198   6.488   2.909  0.4313 -0.2573  0.0093
  161OSM    H5F18116   5.257   6.400   2.941 -0.7156 -0.1349  2.8291
  161OSM    H5G18117   5.104   6.436   2.880 -0.6773  0.0559  2.6865
  161OSM    C6F18118   5.162   6.576   3.031 -0.0988  0.4590  0.0513
  161OSM    H6F18119   5.121   6.675   3.001  1.5210  2.2348  3.1928
  161OSM    H6G18120   5.263   6.605   3.067  0.3562  0.4268 -1.1493
  161OSM    C7F18121   5.095   6.509   3.141 -0.9500  0.3395 -0.6842
  161OSM    H7F18122   5.135   6.405   3.147  1.2107  1.2081  1.9016
  161OSM    H7G18123   4.988   6.493   3.117 -1.4225  1.2866  0.6735
  161OSM    C8F18124   5.118   6.593   3.269 -0.0287  0.1318  0.7617
  161OSM    H8F18125   5.098   6.701   3.261 -1.9796 -0.2490  0.0683
  161OSM    H8G18126   5.228   6.584   3.285 -0.0348 -1.0661  0.2498
  161OSM    C9F18127   5.049   6.534   3.389  0.1701  0.6180  0.3129
  161OSM    H9F18128   4.979   6.456   3.355 -0.7420  1.9357 -0.9732
  161OSM   C10F18129   5.061   6.564   3.523  0.1830 -0.0767  0.5818
  161OSM   H10F18130   5.004   6.521   3.606 -1.4346 -0.6691 -0.7979
  161OSM   C11F18131   5.138   6.688   3.564  0.1861  0.0270  0.0706
  161OSM   H11F18132   5.132   6.773   3.492  1.4981 -0.0690 -0.1744
  161OSM   H11G18133   5.246   6.664   3.575  0.1990 -0.8969 -1.7406
  161OSM   C12F18134   5.090   6.749   3.698  0.0775 -0.4889  0.3820
  161OSM   H12F18135   4.985   6.783   3.686 -0.2814 -1.7684 -0.2246
  161OSM   H12G18136   5.154   6.835   3.728  0.6330 -0.3070 -1.2214
  161OSM   C13F18137   5.082   6.650   3.817 -0.1027  0.1515  0.3512
  161OSM   H13F18138   5.180   6.598   3.814  0.6118  1.5051 -0.7694
  161OSM   H13G18139   5.000   6.578   3.793 -0.3325  1.0051 -1.6245
  161OSM   C14F18140   5.059   6.728   3.949 -0.1535  0.2293  0.1102
  161OSM   H14F18141   4.958   6.695   3.981 -0.1261 -0.2208 -0.2627
  161OSM   H14G18142   5.081   6.836   3.935  0.5997 -0.1312 -1.7760
  161OSM   C15F18143   5.170   6.675   4.054  0.2877 -0.3295  0.1992
  161OSM   H15F18144   5.266   6.711   4.012  1.6157 -2.7051  0.9730
  161OSM   H15G18145   5.162   6.564   4.048 -2.2947 -0.2387  0.5149
  161OSM   C16F18146   5.134   6.719   4.197 -0.3814  1.3362 -0.5092
  161OSM   H16F18147   5.036   6.675   4.225 -0.4101  1.5070 -0.3408
  161OSM   H16G18148   5.116   6.829   4.192 -0.0279  1.3467 -1.8702
  161OSM   C17F18149   5.242   6.690   4.300 -0.0343 -1.1313 -0.0845
  161OSM   H17F18150   5.335   6.729   4.252 -2.0125  2.0171 -1.6763
  161OSM   H17G18151   5.254   6.582   4.322  1.0378 -0.9641  0.2418
  161OSM   C18F18152   5.234   6.773   4.435  0.4980  0.5803  0.4946
  161OSM   H18F18153   5.317   6.740   4.501  0.5894  2.0842  1.1496
  161OSM   H18G18154   5.141   6.746   4.489  0.2356 -0.4150 -0.4142
  161OSM   H18H18155   5.238   6.880   4.404  2.5753 -0.3226 -2.9652
  162OSM      N18156   6.288   0.045   1.812  0.1551 -0.7823  0.5627
  162OSM    C1518157   6.408   0.025   1.737 -0.2665  0.0525  0.1007
  162OSM   H15A18158   6.482  -0.030   1.794  1.1821  0.0337 -1.6995
  162OSM   H15B18159   6.467   0.107   1.698  1.7142 -0.7566  1.2446
  162OSM   H15C18160   6.395  -0.040   1.652 -3.0917  1.1985 -0.4544
  162OSM    C1418161   6.190   0.134   1.734  0.1365  0.3011  0.4978
  162OSM   H14A18162   6.233   0.233   1.728  0.1886  0.2699  0.3458
  162OSM   H14B18163   6.091   0.130   1.776  0.4636  1.0138  1.3571
  162OSM   H14C18164   6.187   0.097   1.632  1.0174 -0.8627  0.8718
  162OSM    C1318165   6.234  -0.088   1.843  0.0283  0.1952  0.0810
  162OSM   H13A18166   6.139  -0.076   1.894 -0.4579 -1.4325 -0.3725
  162OSM   H13B18167   6.298  -0.128   1.921 -0.5966 -0.1222  0.4425
  162OSM   H13C18168   6.223  -0.151   1.756 -1.7821 -1.3334  1.3204
  162OSM    C1218169   6.318   0.117   1.948  0.5608  0.5443  0.6292
  162OSM   H12A18170   6.228   0.106   2.007 -0.0255 -1.0828 -0.4763
  162OSM   H12B18171   6.329   0.221   1.923 -0.2136  0.4696 -0.0678
  162OSM    C1118172   6.431   0.072   2.033  0.0364  0.5986 -0.2732
  162OSM   H11A18173   6.436   0.133   2.126  0.3158  0.7274 -0.3721
  162OSM   H11B18174   6.527   0.091   1.980  0.3866 -0.4269 -0.0355
  162OSM      P18175   6.551  -0.147   2.136 -0.0774  0.0986  0.5608
  162OSM    O1318176   6.521  -0.289   2.152  0.2300 -0.1494  0.3412
  162OSM    O1418177   6.672  -0.116   2.058  0.5337 -0.2177  0.5202
  162OSM    O1118178   6.563  -0.079   2.278 -0.4750 -0.5521 -1.0212
  162OSM    O1218179   6.421  -0.070   2.070  0.0382  0.3851  0.6741
  162OSM    C1S18180   6.459  -0.026   2.366 -0.2455 -0.0030 -0.2253
  162OSM    H1S18181   6.370   0.001   2.306  0.8752  0.2138 -1.8368
  162OSM    H1T18182   6.503   0.068   2.408  1.0650  0.6491 -2.8247
  162OSM     NF18183   6.302  -0.059   2.542  0.0292 -0.4631 -0.0708
  162OSM    HNF18184   6.320  -0.007   2.625 -0.6053 -2.6659  1.5365
  162OSM    C2S18185   6.413  -0.120   2.479 -0.5639  0.8782 -0.7655
  162OSM    H2S18186   6.381  -0.217   2.435 -0.8604  0.7642 -0.2985
  162OSM    C3S18187   6.540  -0.139   2.577  0.0194  0.6218  0.6413
  162OSM    H3S18188   6.580  -0.041   2.609 -0.0886  1.2225 -0.9471
  162OSM     O318189   6.654  -0.203   2.509 -0.0472  0.0210 -0.7631
  162OSM    HO318190   6.642  -0.172   2.419  0.8274  1.7842 -0.3155
  162OSM    C4S18191   6.501  -0.221   2.696 -0.0863  0.2908 -0.0669
  162OSM    H4S18192   6.492  -0.166   2.791 -1.7572  1.3651 -0.7937
  162OSM    C5S18193   6.503  -0.357   2.706 -0.5159 -0.5293  0.7309
  162OSM    H5S18194   6.549  -0.422   2.630  1.3654  0.2353  1.1574
  162OSM    C6S18195   6.489  -0.433   2.835  0.0947 -0.2602 -0.4803
  162OSM    H6S18196   6.573  -0.505   2.844 -0.5399 -0.9345  0.2424
  162OSM    H6T18197   6.404  -0.504   2.824  0.8099 -1.2322  0.0529
  162OSM    C7S18198   6.481  -0.351   2.962  0.5816 -0.0884  0.5070
  162OSM    H7S18199   6.396  -0.282   2.945  0.7452 -0.5330 -2.7844
  162OSM    H7T18200   6.579  -0.304   2.985  1.1704 -1.0204 -0.0105
  162OSM    C8S18201   6.459  -0.445   3.077 -0.5087  0.0822  0.0359
  162OSM    H8S18202   6.542  -0.519   3.084 -2.8713 -2.7971 -0.3641
  162OSM    H8T18203   6.367  -0.507   3.073 -1.3265  1.2246  0.6832
  162OSM    C9S18204   6.457  -0.370   3.206  0.9091  0.6256  0.2920
  162OSM    H9S18205   6.372  -0.299   3.203  2.2689  2.3168 -3.0062
  162OSM    H9T18206   6.543  -0.302   3.226  2.7818 -1.7878  1.0786
  162OSM   C10S18207   6.433  -0.462   3.328  0.0840 -0.2616  0.6162
  162OSM   H10S18208   6.507  -0.545   3.323  2.0473  1.4650  0.0515
  162OSM   H10T18209   6.332  -0.507   3.312  0.8608 -2.6887  1.9778
  162OSM   C11S18210   6.441  -0.383   3.460  0.1378 -0.4195 -0.1436
  162OSM   H11S18211   6.389  -0.286   3.474  1.9207  0.3939  1.2349
  162OSM   H11T18212   6.541  -0.335   3.459 -0.3464  0.9987  3.5416
  162OSM   C12S18213   6.437  -0.457   3.592  0.3687  0.3974  0.6292
  162OSM   H12S18214   6.523  -0.524   3.613  0.1495 -0.5092 -1.1616
  162OSM   H12T18215   6.337  -0.507   3.587 -0.7909  2.7202 -0.8420
  162OSM   C13S18216   6.420  -0.366   3.708 -0.6830 -0.0167 -0.5535
  162OSM   H13S18217   6.328  -0.304   3.703 -2.0038 -1.7655  0.8864
  162OSM   H13T18218   6.497  -0.286   3.701  0.5971 -1.3670 -2.9929
  162OSM   C14S18219   6.421  -0.438   3.842 -0.3818  0.3478  0.4386
  162OSM   H14S18220   6.509  -0.503   3.861 -2.0139 -1.5941  1.7825
  162OSM   H14T18221   6.321  -0.488   3.839 -0.4123  0.4242 -2.1185
  162OSM   C15S18222   6.419  -0.328   3.953  0.0008 -0.4648  0.0665
  162OSM   H15S18223   6.326  -0.269   3.941 -0.5854 -0.9986  1.7831
  162OSM   H15T18224   6.509  -0.264   3.941 -0.3763  0.1239  0.3423
  162OSM   C16S18225   6.439  -0.395   4.085 -0.2135 -0.7526  0.8800
  162OSM   H16S18226   6.537  -0.445   4.094  1.1873  1.8464  0.9557
  162OSM   H16T18227   6.362  -0.474   4.092 -0.0960 -0.8849  0.6532
  162OSM   C17S18228   6.421  -0.285   4.189 -0.4413  0.0543 -0.2450
  162OSM   H17S18229   6.324  -0.242   4.156  0.3222  1.0479 -1.3176
  162OSM   H17T18230   6.498  -0.208   4.167 -0.8103  0.3959 -0.3636
  162OSM   C18S18231   6.419  -0.325   4.336  0.1476  0.1051 -0.2564
  162OSM   H18S18232   6.499  -0.398   4.360  3.4229  3.0424 -1.3556
  162OSM   H18T18233   6.326  -0.382   4.359  1.5484 -1.6372  1.3221
  162OSM   H18U18234   6.427  -0.244   4.412 -0.4116 -1.0277  1.0493
  162OSM    C1F18235   6.181  -0.074   2.491  0.0033 -0.1514 -0.6198
  162OSM     OF18236   6.175  -0.133   2.384  0.6592  0.4394 -0.2868
  162OSM    C2F18237   6.065  -0.019   2.575  0.1703  0.3817 -0.7732
  162OSM    H2F18238   5.987   0.018   2.505 -3.6802  1.4009  3.5936
  162OSM    H2G18239   6.111   0.065   2.632  2.1950  1.4465 -3.7257
  162OSM    C3F18240   6.005  -0.131   2.671 -0.2696 -0.6647 -0.3939
  162OSM    H3F18241   6.088  -0.169   2.735 -0.3845  1.7133  1.3163
  162OSM    H3G18242   5.968  -0.216   2.610 -0.3345  1.4220 -3.4416
  162OSM    C4F18243   5.895  -0.083   2.767  1.1741  1.2385 -0.3264
  162OSM    H4F18244   5.845  -0.166   2.820 -0.8849  2.1887 -0.6623
  162OSM    H4G18245   5.815  -0.052   2.696 -0.0914  0.0464  0.5345
  162OSM    C5F18246   5.939   0.023   2.871 -0.1982  0.1449  1.1680
  162OSM    H5F18247   5.846   0.066   2.915 -0.5006  0.7667 -0.0310
  162OSM    H5G18248   5.990   0.100   2.809 -1.2353 -0.6083 -0.7018
  162OSM    C6F18249   6.026  -0.042   2.980 -0.3319  0.2627 -0.3128
  162OSM    H6F18250   6.091   0.027   3.038  0.6381 -1.7966  1.1610
  162OSM    H6G18251   6.084  -0.121   2.928  0.5623  1.3775 -1.0434
  162OSM    C7F18252   5.936  -0.109   3.088  0.3657  0.6020 -0.0895
  162OSM    H7F18253   6.000  -0.174   3.153 -0.2693  0.2966  0.2414
  162OSM    H7G18254   5.864  -0.184   3.049  0.5860 -1.0022  2.3657
  162OSM    C8F18255   5.844  -0.027   3.185 -0.0777  0.5741  0.1532
  162OSM    H8F18256   5.759  -0.088   3.223 -0.6112  0.8823 -0.5134
  162OSM    H8G18257   5.786   0.047   3.126 -1.0775  0.4741  0.9880
  162OSM    C9F18258   5.924   0.056   3.288  0.4291  1.5184  0.2740
  162OSM    H9F18259   5.943   0.159   3.255 -1.7681  1.4779 -1.3672
  162OSM   C10F18260   5.968   0.007   3.408  0.1506 -0.1970  0.3678
  162OSM   H10F18261   6.008   0.086   3.474 -0.4920  2.4962 -2.2531
  162OSM   C11F18262   5.971  -0.132   3.462  0.3809 -0.4246  0.4404
  162OSM   H11F18263   6.000  -0.217   3.396 -1.9323 -1.9835  1.2687
  162OSM   H11G18264   5.869  -0.157   3.499  0.8395 -2.9586  0.1564
  162OSM   C12F18265   6.063  -0.147   3.587 -0.5793 -0.4570 -0.1417
  162OSM   H12F18266   6.160  -0.114   3.543 -0.5460  1.7310  1.4397
  162OSM   H12G18267   6.066  -0.253   3.621  1.9682 -0.3750  0.0594
  162OSM   C13F18268   6.036  -0.068   3.713 -0.0465 -1.2064  0.3539
  162OSM   H13F18269   5.935  -0.085   3.756 -0.1494 -1.4314  0.0333
  162OSM   H13G18270   6.030   0.037   3.678  2.1438 -1.1127  0.1431
  162OSM   C14F18271   6.123  -0.087   3.840 -0.2737 -0.5538  0.2682
  162OSM   H14F18272   6.227  -0.055   3.820 -1.1115  2.1252 -0.2148
  162OSM   H14G18273   6.125  -0.194   3.870  1.6826 -0.1843  1.6771
  162OSM   C15F18274   6.076   0.010   3.949  0.0934 -0.5075 -0.0976
  162OSM   H15F18275   6.003  -0.044   4.013 -2.0308 -0.6159 -2.4179
  162OSM   H15G18276   6.020   0.092   3.900 -2.0376 -0.7046  1.8489
  162OSM   C16F18277   6.188   0.067   4.034  0.9293  0.0909  0.4841
  162OSM   H16F18278   6.245   0.143   3.975 -0.6378  1.0231  0.1101
  162OSM   H16G18279   6.260  -0.015   4.054 -0.5554 -0.7883  2.5599
  162OSM   C17F18280   6.148   0.110   4.177  0.0659  0.2117  0.1077
  162OSM   H17F18281   6.070   0.035   4.201  0.5402 -0.1696  0.4787
  162OSM   H17G18282   6.107   0.213   4.192 -1.1363 -0.4144  1.3502
  162OSM   C18F18283   6.265   0.092   4.270  0.6979 -0.7349  0.3266
  162OSM   H18F18284   6.294  -0.014   4.283 -1.5308 -1.7452 -1.9629
  162OSM   H18G18285   6.244   0.123   4.375  0.1774 -2.7289  0.8585
  162OSM   H18H18286   6.351   0.156   4.242  0.5725 -0.7019  0.0199
  163OSM      N18287   5.174   1.109   2.077 -0.6690 -0.3524  0.5259
  163OSM    C1518288   5.041   1.081   2.144  0.1732  0.2532  0.1038
  163OSM   H15A18289   5.016   1.146   2.227 -0.8401  0.7202 -0.5522
  163OSM   H15B18290   5.033   0.977   2.174  1.4627  0.2080  0.3696
  163OSM   H15C18291   4.959   1.101   2.077  0.1467  0.3519  0.1654
  163OSM    C1418292   5.187   1.254   2.059  0.2087 -0.7075  0.9495
  163OSM   H14A18293   5.267   1.276   1.989 -0.9055  0.6230  0.0355
  163OSM   H14B18294   5.189   1.304   2.154 -0.8591  0.3144  0.4608
  163OSM   H14C18295   5.102   1.282   1.999 -0.8290 -4.2795  0.5217
  163OSM    C1318296   5.292   1.059   2.164 -0.4783  0.4520  0.5082
  163OSM   H13A18297   5.296   1.105   2.262  0.5867 -0.8921  1.1351
  163OSM   H13B18298   5.386   1.074   2.113  1.1495  0.0202  3.1768
  163OSM   H13C18299   5.293   0.951   2.163  1.8719  0.4203 -1.5571
  163OSM    C1218300   5.161   1.041   1.941  0.4260  0.1201 -0.6131
  163OSM   H12A18301   5.090   1.099   1.884  3.1832  1.9611 -2.4157
  163OSM   H12B18302   5.116   0.946   1.965  0.6651  0.6624  2.5069
  163OSM    C1118303   5.286   1.008   1.858  0.5220 -0.0044 -0.3801
  163OSM   H11A18304   5.370   1.070   1.897  0.2393 -0.8221  1.6445
  163OSM   H11B18305   5.279   1.037   1.750  0.9996 -2.2226 -1.0570
  163OSM      P18306   5.234   0.757   1.797  0.3904  0.0432  0.6092
  163OSM    O1318307   5.113   0.822   1.737 -0.1330  0.5566 -0.3069
  163OSM    O1418308   5.323   0.671   1.714  0.3940 -0.9401 -0.1010
  163OSM    O1118309   5.186   0.672   1.911  0.2615 -0.4070 -0.6937
  163OSM    O1218310   5.318   0.870   1.871 -0.2843 -0.0298  0.4022
  163OSM    C1S18311   5.226   0.693   2.053  0.0055 -0.2916  1.0145
  163OSM    H1S18312   5.196   0.798   2.073 -1.6636 -0.3394 -0.9788
  163OSM    H1T18313   5.336   0.682   2.069  0.5757  0.3503 -1.9578
  163OSM     NF18314   5.108   0.670   2.273  0.2500  0.0984 -0.4866
  163OSM    HNF18315   5.158   0.659   2.358 -0.4547  1.0437  0.0682
  163OSM    C2S18316   5.155   0.596   2.153 -0.2428  0.4843  0.2114
  163OSM    H2S18317   5.065   0.561   2.098 -0.2171  0.1971  0.3458
  163OSM    C3S18318   5.254   0.480   2.168  0.0218 -0.3415 -0.0014
  163OSM    H3S18319   5.357   0.508   2.202 -0.4661  0.3572  0.9521
  163OSM     O318320   5.283   0.423   2.040  0.2908  0.6232 -0.2487
  163OSM    HO318321   5.241   0.482   1.976  0.2228 -0.8250 -1.6168
  163OSM    C4S18322   5.188   0.382   2.260 -0.2112 -0.1730  0.4348
  163OSM    H4S18323   5.079   0.369   2.245 -0.3569  0.6202  0.7591
  163OSM    C5S18324   5.246   0.326   2.363  0.3432 -0.2069  0.6043
  163OSM    H5S18325   5.356   0.330   2.363  0.3109  2.9853 -0.4836
  163OSM    C6S18326   5.179   0.236   2.459  0.2636  0.3391 -0.7517
  163OSM    H6S18327   5.242   0.150   2.490 -0.7696  0.3268  1.5150
  163OSM    H6T18328   5.080   0.197   2.428  0.5700 -1.9489  0.8538
  163OSM    C7S18329   5.151   0.315   2.589 -0.2174  0.2166 -0.2302
  163OSM    H7S18330   5.093   0.409   2.581  0.4791  0.5829 -1.0780
  163OSM    H7T18331   5.250   0.344   2.629 -0.7058  0.2264  1.0186
  163OSM    C8S18332   5.099   0.220   2.696  0.1089  0.0463  0.6988
  163OSM    H8S18333   5.153   0.123   2.693  1.8965  1.0240 -0.2386
  163OSM    H8T18334   4.995   0.191   2.673  1.0385 -2.6402 -0.4850
  163OSM    C9S18335   5.115   0.276   2.837 -0.2657  0.1868  1.4455
  163OSM    H9S18336   5.082   0.382   2.827  1.0057  0.4559 -0.4842
  163OSM    H9T18337   5.225   0.277   2.849 -0.0253 -1.6673 -0.1884
  163OSM   C10S18338   5.043   0.206   2.952 -0.2053 -0.4878 -0.3194
  163OSM   H10S18339   5.087   0.106   2.967  1.2834  0.1568 -0.2327
  163OSM   H10T18340   4.934   0.206   2.930 -0.1576 -0.3696 -0.5590
  163OSM   C11S18341   5.060   0.275   3.089  0.5989 -0.3671 -0.3053
  163OSM   H11S18342   5.007   0.372   3.085  1.2984 -0.0045 -1.1574
  163OSM   H11T18343   5.171   0.280   3.096  0.6500 -1.8691  0.4771
  163OSM   C12S18344   5.011   0.189   3.200  0.4360 -0.5494 -0.0313
  163OSM   H12S18345   5.068   0.093   3.204 -1.7076 -1.9905 -1.3906
  163OSM   H12T18346   4.905   0.163   3.176 -0.3443  1.7574  0.6880
  163OSM   C13S18347   4.990   0.264   3.337  0.0186  0.1615 -0.0111
  163OSM   H13S18348   4.983   0.371   3.308  0.1130  0.5425  1.3443
  163OSM   H13T18349   5.075   0.249   3.406 -0.9153  2.2296  1.6816
  163OSM   C14S18350   4.873   0.213   3.424 -0.0193 -0.3137 -0.3331
  163OSM   H14S18351   4.876   0.104   3.441  0.0158 -0.3005 -0.2546
  163OSM   H14T18352   4.777   0.239   3.375 -0.6968  0.7902  1.4660
  163OSM   C15S18353   4.866   0.289   3.556 -0.4555  1.0803 -0.0353
  163OSM   H15S18354   4.848   0.393   3.520  2.2629  1.5530 -0.2386
  163OSM   H15T18355   4.960   0.281   3.614 -1.4864 -0.1537  1.5385
  163OSM   C16S18356   4.754   0.236   3.648 -0.0947 -0.0565 -1.2460
  163OSM   H16S18357   4.750   0.127   3.630  1.4191 -0.1246 -1.2556
  163OSM   H16T18358   4.661   0.284   3.609  0.8274  2.3023 -0.6890
  163OSM   C17S18359   4.778   0.280   3.798 -0.1579 -0.2537  0.6691
  163OSM   H17S18360   4.874   0.236   3.832  1.0413  0.8047 -1.1744
  163OSM   H17T18361   4.695   0.242   3.861 -1.4562  0.2296 -0.6803
  163OSM   C18S18362   4.783   0.431   3.803  0.3318 -0.1668 -0.4713
  163OSM   H18S18363   4.874   0.481   3.761  0.7206  1.2178  1.8451
  163OSM   H18T18364   4.791   0.456   3.911  0.7295 -3.4750  0.3563
  163OSM   H18U18365   4.693   0.476   3.755  0.8498  2.3435  0.7233
  163OSM    C1F18366   5.008   0.753   2.268  0.0779  0.0046 -0.2783
  163OSM     OF18367   4.948   0.775   2.163  0.2039  0.0207  0.3530
  163OSM    C2F18368   4.971   0.814   2.400 -0.2420  0.2455 -0.3769
  163OSM    H2F18369   5.053   0.879   2.438 -1.3713  1.6779 -0.2793
  163OSM    H2G18370   4.939   0.736   2.472 -1.2964  2.3391  1.5648
  163OSM    C3F18371   4.844   0.905   2.386 -0.1391  0.3954 -0.5052
  163OSM    H3F18372   4.769   0.840   2.334  0.3987 -0.5850 -0.0771
  163OSM    H3G18373   4.855   0.995   2.322 -0.4017  0.3747 -0.5827
  163OSM    C4F18374   4.802   0.938   2.528 -0.8073 -0.9575 -0.1939
  163OSM    H4F18375   4.862   1.023   2.567 -1.5739 -1.9232  3.4197
  163OSM    H4G18376   4.827   0.854   2.595  0.2182  0.9408  1.9423
  163OSM    C5F18377   4.651   0.966   2.540 -0.1312 -0.4897  0.5766
  163OSM    H5F18378   4.605   0.865   2.535  1.3001 -1.2937  2.4361
  163OSM    H5G18379   4.619   1.024   2.451 -2.0565  1.6539  2.5276
  163OSM    C6F18380   4.611   1.039   2.668  0.7410 -0.0236 -0.1089
  163OSM    H6F18381   4.500   1.031   2.672  0.7479  0.1992  1.4976
  163OSM    H6G18382   4.632   1.149   2.668  1.6317 -0.1320  2.0471
  163OSM    C7F18383   4.674   0.975   2.795 -0.2225  0.2784  0.5432
  163OSM    H7F18384   4.784   0.973   2.778 -0.2908  1.7915 -0.2544
  163OSM    H7G18385   4.638   0.872   2.816 -0.9737  0.8583  2.3078
  163OSM    C8F18386   4.652   1.056   2.920  0.0956 -0.7774  0.7170
  163OSM    H8F18387   4.543   1.046   2.937 -0.7373  2.2517 -1.8426
  163OSM    H8G18388   4.674   1.162   2.896  0.9024 -0.2074  3.5992
  163OSM    C9F18389   4.722   1.003   3.038  0.6052 -0.3087 -0.7544
  163OSM    H9F18390   4.815   0.947   3.018  0.3456 -0.2952 -2.1013
  163OSM   C10F18391   4.672   1.011   3.163  0.6763  0.0591  0.3499
  163OSM   H10F18392   4.732   0.967   3.244 -0.3219 -2.2316 -0.1002
  163OSM   C11F18393   4.547   1.083   3.204  0.8893 -0.5892 -0.6064
  163OSM   H11F18394   4.451   1.036   3.174 -1.5228  2.1444  2.1599
  163OSM   H11G18395   4.532   1.173   3.140  0.2773 -1.0917 -1.1886
  163OSM   C12F18396   4.527   1.109   3.354 -0.5769 -0.8391  0.5802
  163OSM   H12F18397   4.626   1.118   3.404 -0.5230  0.6995  0.2487
  163OSM   H12G18398   4.468   1.031   3.407 -1.7048 -1.0330 -0.9012
  163OSM   C13F18399   4.452   1.240   3.380  0.4640  0.1019 -0.4745
  163OSM   H13F18400   4.350   1.223   3.339 -0.2947 -0.0696  1.3876
  163OSM   H13G18401   4.502   1.323   3.327 -0.5391  1.5841  0.8118
  163OSM   C14F18402   4.443   1.272   3.534 -0.1151  0.2335  0.7234
  163OSM   H14F18403   4.533   1.318   3.580 -1.2019  3.4259 -0.0531
  163OSM   H14G18404   4.429   1.174   3.584 -1.3227 -0.1242 -0.2559
  163OSM   C15F18405   4.320   1.366   3.571  0.7692 -0.5651  0.4032
  163OSM   H15F18406   4.237   1.297   3.594  0.3130 -0.7348 -1.5432
  163OSM   H15G18407   4.296   1.429   3.482  2.0201 -1.9139 -0.9556
  163OSM   C16F18408   4.360   1.454   3.695  0.1240 -0.2722 -0.9163
  163OSM   H16F18409   4.281   1.531   3.710  0.1003 -0.0482 -2.0884
  163OSM   H16G18410   4.456   1.503   3.669 -1.2395  2.5514 -1.0342
  163OSM   C17F18411   4.377   1.357   3.814 -0.5013 -0.7355 -0.7419
  163OSM   H17F18412   4.471   1.299   3.795  1.0882  1.6141 -0.5051
  163OSM   H17G18413   4.290   1.289   3.825 -0.6306 -0.7608 -1.7639
  163OSM   C18F18414   4.403   1.440   3.947 -0.4247 -0.7620 -0.5093
  163OSM   H18F18415   4.332   1.519   3.981 -1.5712 -1.8116 -0.4133
  163OSM   H18G18416   4.505   1.483   3.956  0.3755 -2.7825  0.8247
  163OSM   H18H18417   4.399   1.365   4.029  0.4271 -1.4935 -1.1154
  164OSM      N18418   0.128   0.181   2.319 -0.1021 -0.2520  0.3039
  164OSM    C1518419   0.069   0.039   2.316 -0.1962 -0.3070  0.2325
  164OSM   H15A18420   0.020   0.022   2.410 -1.4503  2.3402  0.1540
  164OSM   H15B18421   0.145  -0.036   2.298 -0.7893 -0.2074 -3.4580
  164OSM   H15C18422  -0.006   0.038   2.239 -1.0391  0.8674  1.0031
  164OSM    C1418423   0.167   0.221   2.181 -0.2216 -0.5129 -0.1733
  164OSM   H14A18424   0.088   0.247   2.112 -0.2045  0.8062  0.2757
  164OSM   H14B18425   0.231   0.144   2.140  0.2069 -0.4486  0.3507
  164OSM   H14C18426   0.233   0.306   2.191 -1.1966  0.2131  0.2541
  164OSM    C1318427   0.012   0.270   2.360 -0.2901  0.0204 -0.2092
  164OSM   H13A18428   0.040   0.375   2.354 -0.7936  0.1833  0.2414
  164OSM   H13B18429  -0.014   0.254   2.463 -1.0044  1.4791 -0.1398
  164OSM   H13C18430  -0.072   0.250   2.296  0.7512 -0.3027 -1.5228
  164OSM    C1218431   0.246   0.174   2.415 -0.0684  0.2215  0.0609
  164OSM   H12A18432   0.323   0.116   2.365 -1.5551 -0.7087 -1.2090
  164OSM   H12B18433   0.212   0.130   2.507 -1.8509 -1.0975 -1.1754
  164OSM    C1118434   0.311   0.306   2.451 -0.8145  0.0283  0.7689
  164OSM   H11A18435   0.393   0.306   2.527 -0.3424  2.0044  0.3328
  164OSM   H11B18436   0.235   0.372   2.497 -2.5852 -0.9070 -0.6761
  164OSM      P18437   0.493   0.351   2.274 -0.1389 -0.2483 -0.2201
  164OSM    O1318438   0.522   0.210   2.250  0.0484  0.1420 -0.6321
  164OSM    O1418439   0.517   0.449   2.164 -0.3566 -0.4637 -0.5826
  164OSM    O1118440   0.582   0.404   2.391  0.3395  0.9009  0.0545
  164OSM    O1218441   0.349   0.378   2.330  0.5007 -0.2893  0.1173
  164OSM    C1S18442   0.554   0.515   2.468 -0.5099  0.0182 -0.0053
  164OSM    H1S18443   0.447   0.542   2.472 -0.1374  1.6921 -0.5563
  164OSM    H1T18444   0.615   0.605   2.447 -1.3469  0.6114  0.0953
  164OSM     NF18445   0.585   0.607   2.678  0.0580 -0.5148 -0.0798
  164OSM    HNF18446   0.663   0.669   2.689 -0.5121 -0.0235  1.4824
  164OSM    C2S18447   0.602   0.480   2.614  0.8821 -0.3044  0.2344
  164OSM    H2S18448   0.534   0.405   2.659 -0.4653 -0.3421 -1.7635
  164OSM    C3S18449   0.751   0.429   2.612  0.2242  0.2797  0.0092
  164OSM    H3S18450   0.821   0.494   2.556 -0.4744  0.2306 -0.9342
  164OSM     O318451   0.773   0.295   2.570  0.1270  0.4867 -0.0454
  164OSM    HO318452   0.684   0.267   2.550  0.3344  0.6956 -1.3648
  164OSM    C4S18453   0.803   0.420   2.755  0.1447 -0.0028 -0.5495
  164OSM    H4S18454   0.744   0.347   2.812 -2.7057  1.1121 -1.8302
  164OSM    C5S18455   0.881   0.503   2.824 -0.4048  0.4851  0.8003
  164OSM    H5S18456   0.913   0.590   2.765  0.9339 -1.4928 -1.6307
  164OSM    C6S18457   0.927   0.490   2.967  0.1671 -0.1580 -0.2642
  164OSM    H6S18458   1.037   0.494   2.975  0.1274  1.3011 -0.0840
  164OSM    H6T18459   0.901   0.395   3.018  3.8947 -1.0505  0.2728
  164OSM    C7S18460   0.887   0.611   3.058 -0.8978  0.3578  0.2028
  164OSM    H7S18461   0.776   0.611   3.065 -0.9415  0.6439 -0.4400
  164OSM    H7T18462   0.925   0.700   3.004 -0.5036  0.6203  0.9058
  164OSM    C8S18463   0.947   0.612   3.200 -0.4526 -0.8488 -0.1095
  164OSM    H8S18464   1.056   0.635   3.209 -0.7499  0.6151  0.0037
  164OSM    H8T18465   0.938   0.514   3.252 -1.3960 -0.4050  0.5920
  164OSM    C9S18466   0.870   0.700   3.300 -0.3314 -0.4411 -0.4512
  164OSM    H9S18467   0.760   0.694   3.281 -0.4259  1.2690 -0.6380
  164OSM    H9T18468   0.895   0.808   3.287  1.7207 -0.8246  0.0748
  164OSM   C10S18469   0.901   0.650   3.442  0.5189  0.4187  0.2922
  164OSM   H10S18470   1.010   0.637   3.456  0.1985 -1.4225  1.3322
  164OSM   H10T18471   0.855   0.551   3.460  1.7849 -0.3293 -0.4868
  164OSM   C11S18472   0.846   0.737   3.555  0.3762 -0.3646 -0.2540
  164OSM   H11S18473   0.740   0.755   3.527  0.3733  0.8584  0.4622
  164OSM   H11T18474   0.894   0.837   3.566 -0.9523  0.1953  0.9313
  164OSM   C12S18475   0.859   0.675   3.695 -0.5299  0.0622  0.0596
  164OSM   H12S18476   0.968   0.674   3.718 -1.3110  1.9813  5.3760
  164OSM   H12T18477   0.831   0.568   3.706  1.1095 -0.4140 -0.1918
  164OSM   C13S18478   0.800   0.762   3.806  0.4573  0.4595  0.1923
  164OSM   H13S18479   0.689   0.764   3.801  0.4565 -0.5503 -0.4833
  164OSM   H13T18480   0.842   0.863   3.792  1.8842 -0.4124 -2.5214
  164OSM   C14S18481   0.836   0.714   3.953  0.1613  0.6834  0.0678
  164OSM   H14S18482   0.945   0.734   3.963  0.3037  0.0281 -0.1735
  164OSM   H14T18483   0.812   0.608   3.974 -1.2634  1.2520  1.5989
  164OSM   C15S18484   0.769   0.810   4.054  0.6009 -0.8589  0.1967
  164OSM   H15S18485   0.670   0.760   4.060 -0.0322  0.3041 -0.2097
  164OSM   H15T18486   0.754   0.911   4.010 -0.9281 -0.2405  1.9785
  164OSM   C16S18487   0.844   0.800   4.186  0.1009  0.4725 -0.9760
  164OSM   H16S18488   0.944   0.837   4.155  1.4509 -2.5100 -0.5310
  164OSM   H16T18489   0.865   0.699   4.228 -0.4196  1.0864  0.8333
  164OSM   C17S18490   0.774   0.880   4.301 -0.3221  0.7796 -0.7526
  164OSM   H17S18491   0.673   0.837   4.314  0.4595 -1.3093 -1.1240
  164OSM   H17T18492   0.765   0.989   4.283  1.3951  1.1741  0.4552
  164OSM   C18S18493   0.848   0.868   4.433 -0.8321 -0.4570  0.0515
  164OSM   H18S18494   0.851   0.761   4.463 -1.1752  0.3007  3.0769
  164OSM   H18T18495   0.805   0.919   4.521  0.4672 -0.0002  0.4461
  164OSM   H18U18496   0.950   0.911   4.427 -1.7025  1.6775 -0.1825
  164OSM    C1F18497   0.464   0.658   2.715  1.1068  0.7885 -0.2519
  164OSM     OF18498   0.364   0.589   2.721 -0.4707  0.3754 -0.0122
  164OSM    C2F18499   0.454   0.801   2.754 -1.1631 -0.6557  0.2301
  164OSM    H2F18500   0.531   0.865   2.706 -1.5474 -0.0153  0.4555
  164OSM    H2G18501   0.460   0.810   2.864 -4.9490 -2.0192  0.6888
  164OSM    C3F18502   0.318   0.858   2.714 -0.1279 -0.7578 -0.6113
  164OSM    H3F18503   0.234   0.830   2.780 -0.5702 -0.9821 -1.2517
  164OSM    H3G18504   0.288   0.833   2.609  0.2067  0.3922 -0.9958
  164OSM    C4F18505   0.320   1.015   2.706  0.0994 -0.1525  0.4842
  164OSM    H4F18506   0.226   1.041   2.653 -0.0778 -0.7178  0.5182
  164OSM    H4G18507   0.403   1.048   2.639 -1.3988  1.8180 -0.4936
  164OSM    C5F18508   0.325   1.079   2.846  0.4456 -0.3556 -0.8382
  164OSM    H5F18509   0.363   1.182   2.863  0.9039 -0.9696  2.7509
  164OSM    H5G18510   0.397   1.020   2.907 -1.5932 -3.2702 -1.0176
  164OSM    C6F18511   0.191   1.085   2.926 -0.1571 -0.4347  0.5970
  164OSM    H6F18512   0.172   0.983   2.965 -2.8505  0.8341  2.9698
  164OSM    H6G18513   0.114   1.115   2.851 -0.5244 -0.3687  0.9938
  164OSM    C7F18514   0.197   1.171   3.049 -0.6828  0.4358 -0.6461
  164OSM    H7F18515   0.230   1.273   3.019 -1.0629  0.7107 -0.1391
  164OSM    H7G18516   0.282   1.149   3.118 -0.2995  1.8066 -0.6558
  164OSM    C8F18517   0.063   1.175   3.128 -0.6146 -0.6574  0.1592
  164OSM    H8F18518  -0.022   1.172   3.057 -1.2050 -2.4673  0.8928
  164OSM    H8G18519   0.053   1.277   3.171 -0.4092  0.0423 -1.3671
  164OSM    C9F18520   0.055   1.065   3.235  0.4737 -0.4454 -0.2145
  164OSM    H9F18521   0.042   0.964   3.194  0.4492  0.1200 -1.6723
  164OSM   C10F18522   0.020   1.087   3.363 -0.5995 -0.1130  0.2238
  164OSM   H10F18523   0.037   1.006   3.435  1.1356  1.2823  1.4586
  164OSM   C11F18524   0.024   1.230   3.432  0.0399  0.1662 -0.1766
  164OSM   H11F18525  -0.083   1.260   3.430 -0.7170 -2.3054  0.0728
  164OSM   H11G18526   0.086   1.308   3.384 -0.2211  1.1332  1.0127
  164OSM   C12F18527   0.060   1.235   3.585 -0.5526 -0.5973  0.4264
  164OSM   H12F18528   0.053   1.338   3.627 -1.8268  0.6402 -2.5562
  164OSM   H12G18529   0.165   1.202   3.602 -0.8457 -2.1509 -0.6526
  164OSM   C13F18530  -0.026   1.144   3.671  0.1336  0.2664  0.1939
  164OSM   H13F18531  -0.030   1.039   3.636  0.8470  0.3681 -0.2014
  164OSM   H13G18532  -0.131   1.180   3.660  0.2501  0.2719 -1.0885
  164OSM   C14F18533  -0.004   1.142   3.826  0.1457 -0.0791 -0.6770
  164OSM   H14F18534  -0.012   1.245   3.868 -0.2313 -0.5033  0.3184
  164OSM   H14G18535   0.100   1.116   3.857 -0.3101 -2.4650 -0.9706
  164OSM   C15F18536  -0.112   1.067   3.899  0.7912 -1.6320  0.5855
  164OSM   H15F18537  -0.131   0.966   3.857 -2.5241 -0.6021 -0.7480
  164OSM   H15G18538  -0.209   1.122   3.896  1.2320 -0.8876 -0.0829
  164OSM   C16F18539  -0.087   1.063   4.053 -0.3663  0.0923 -0.9873
  164OSM   H16F18540  -0.066   1.158   4.108 -0.1666 -0.2912 -0.3968
  164OSM   H16G18541   0.006   1.005   4.065  0.4152  1.5508  0.4885
  164OSM   C17F18542  -0.196   1.000   4.139  0.1836 -0.1829  0.0959
  164OSM   H17F18543  -0.289   1.056   4.118  0.6804 -0.4084 -3.0851
  164OSM   H17G18544  -0.183   1.013   4.249 -1.8231 -1.7947  0.6033
  164OSM   C18F18545  -0.239   0.855   4.119 -0.4371 -0.3842 -0.3999
  164OSM   H18F18546  -0.148   0.797   4.147  1.1573  2.4979  0.8740
  164OSM   H18G18547  -0.266   0.852   4.011  0.7141 -1.3710 -0.6898
  164OSM   H18H18548  -0.327   0.816   4.174 -1.6172 -0.5993 -2.3690
  165SAPS     N18549   4.569   3.484   6.978 -0.2947 -0.1209  0.4989
  165SAPS   HN118550   4.534   3.582   6.983  1.8613  0.6852  0.7641
  165SAPS   HN218551   4.579   3.474   6.875 -0.4510  2.8905  0.0989
  165SAPS   HN318552   4.495   3.417   7.007  0.3096 -0.6440  0.8485
  165SAPS   C1218553   4.691   3.468   7.065 -0.3228 -0.1342  0.6651
  165SAPS  H12A18554   4.753   3.556   7.053  0.8707 -1.0950 -0.4333
  165SAPS   C1318555   4.647   3.461   7.216 -0.0368 -0.7766  0.4957
  165SAPS  O13A18556   4.525   3.462   7.246 -0.1416  0.3345  0.0742
  165SAPS  O13B18557   4.741   3.440   7.294  0.0168  0.2849 -0.5228
  165SAPS   C1118558   4.773   3.339   7.022 -0.2021  0.1867 -0.0960
  165SAPS  H11A18559   4.716   3.245   7.036  0.5216 -0.1345  0.7671
  165SAPS  H11B18560   4.859   3.336   7.092 -0.1071 -0.8076 -0.2426
  165SAPS     P18561   4.837   3.229   6.791 -0.0717 -0.1410 -0.2609
  165SAPS   O1318562   4.914   3.127   6.859 -0.0399 -0.2024 -0.0085
  165SAPS   O1418563   4.694   3.205   6.755  0.0180  0.0350 -0.0401
  165SAPS   O1218564   4.831   3.356   6.887  0.3051  0.0597 -0.3442
  165SAPS   O1118565   4.911   3.297   6.676 -0.6306  0.1773 -0.2781
  165SAPS    C118566   5.034   3.247   6.617 -0.7214  0.0630  0.4580
  165SAPS    HA18567   5.101   3.335   6.621  2.3355 -2.0958  0.1108
  165SAPS    HB18568   5.085   3.172   6.681 -2.0449 -1.6187 -0.3913
  165SAPS    C218569   5.025   3.186   6.474  0.0400  0.0110 -0.3015
  165SAPS    HS18570   5.123   3.205   6.426  1.3286 -0.9634  1.8104
  165SAPS   O2118571   4.911   3.252   6.400 -0.4331 -0.5174  0.5343
  165SAPS   C2118572   4.938   3.381   6.378  0.2139  0.4262  0.4276
  165SAPS   O2218573   5.052   3.423   6.380  0.2964  0.1592  0.1450
  165SAPS   C2218574   4.815   3.451   6.333 -0.4727 -0.3696 -0.4429
  165SAPS   H2R18575   4.829   3.488   6.229 -0.9649  0.3865 -0.2531
  165SAPS   H2S18576   4.736   3.373   6.333  0.7672 -1.6517 -0.1236
  165SAPS    C318577   5.008   3.028   6.473  0.3227  0.2660 -0.0163
  165SAPS    HX18578   4.902   3.001   6.493  1.4912 -1.6199  4.9767
  165SAPS    HY18579   5.071   2.979   6.550  2.0190  0.0030 -1.4966
  165SAPS   O3118580   5.053   2.976   6.344  0.1983  0.2840  0.4567
  165SAPS   C3118581   5.184   2.974   6.321 -0.0068  0.6187  0.0149
  165SAPS   O3218582   5.275   3.016   6.387  0.2311  0.3116  0.0510
  165SAPS   C3218583   5.211   2.910   6.181  0.1344 -0.0094  0.5663
  165SAPS   H2X18584   5.159   2.971   6.104 -0.4137  0.3552  1.2088
  165SAPS   H2Y18585   5.158   2.813   6.186  0.8799 -0.3566  3.1038
  165SAPS   C2318586   4.770   3.579   6.405  0.2074  0.5649 -0.4419
  165SAPS   H3R18587   4.853   3.652   6.414  1.1666 -0.7249  2.1353
  165SAPS   H3S18588   4.733   3.550   6.506 -1.0382 -0.3349 -1.1322
  165SAPS   C2418589   4.659   3.644   6.332  0.1095 -0.4674  0.2374
  165SAPS   H4R18590   4.694   3.683   6.234 -2.3407 -0.0076 -0.5384
  165SAPS   H4S18591   4.628   3.732   6.393  0.8476 -0.4335  0.5784
  165SAPS   C2518592   4.538   3.562   6.323  0.0953 -0.3471  0.2913
  165SAPS   H5R18593   4.493   3.515   6.412  0.4101 -1.1125  0.0629
  165SAPS   C2618594   4.475   3.527   6.205  0.4366  0.2419 -0.0196
  165SAPS   H6R18595   4.393   3.454   6.214  0.6244  0.0178 -0.1323
  165SAPS   C2718596   4.504   3.558   6.065  0.2809 -0.1183  0.6633
  165SAPS   H7R18597   4.569   3.647   6.053  0.6650 -0.5277 -0.4259
  165SAPS   H7S18598   4.411   3.583   6.011 -0.0752  2.4059  2.2782
  165SAPS   C2818599   4.576   3.443   5.995 -0.1672 -0.3658 -0.5830
  165SAPS   H8R18600   4.527   3.346   6.013 -2.5982  0.9645  0.4765
  165SAPS   C2918601   4.693   3.444   5.942  0.1920 -0.8436 -0.4843
  165SAPS   H9R18602   4.745   3.357   5.899  1.5329  0.2328 -1.1292
  165SAPS  C21018603   4.769   3.579   5.921 -0.6470  0.1187  0.0299
  165SAPS  H10R18604   4.799   3.610   6.023 -0.7873 -0.7879  0.3570
  165SAPS  H10S18605   4.696   3.656   5.889 -1.3789 -0.9995 -1.0554
  165SAPS  C21118606   4.896   3.565   5.834 -0.4077  0.3451 -0.2550
  165SAPS  H11R18607   4.987   3.527   5.883 -1.4427  0.2353  1.6734
  165SAPS  C21218608   4.895   3.589   5.702 -0.8752  0.2283 -0.0349
  165SAPS  H12R18609   4.988   3.585   5.644 -1.6101 -2.3083 -1.1481
  165SAPS  C21318610   4.775   3.626   5.619  0.1001 -0.0480  0.1118
  165SAPS  H13R18611   4.803   3.686   5.530 -1.6498  0.5017 -0.0998
  165SAPS  H13S18612   4.711   3.702   5.668  0.7965  0.0107  0.9507
  165SAPS  C21418613   4.686   3.509   5.572 -0.0363  0.4813  0.0651
  165SAPS  H14R18614   4.588   3.503   5.622 -0.7059  0.7129 -1.1941
  165SAPS  C21518615   4.702   3.449   5.455 -0.0123  0.7845  0.2365
  165SAPS  H15R18616   4.629   3.376   5.416  0.5084  0.4196 -0.0683
  165SAPS  C21618617   4.822   3.461   5.360  0.5358  0.6797 -0.1718
  165SAPS  H16R18618   4.858   3.356   5.355  0.0272  0.4649  0.5646
  165SAPS  H16S18619   4.907   3.518   5.403 -0.5609  1.9230  0.4052
  165SAPS  C21718620   4.790   3.521   5.226 -0.5144  0.2858 -0.1210
  165SAPS  H17R18621   4.877   3.513   5.157 -0.9608 -0.1568 -0.6362
  165SAPS  H17S18622   4.775   3.631   5.237 -0.2090  0.2119  1.1117
  165SAPS  C21818623   4.678   3.449   5.150  0.0070  0.5296  0.7593
  165SAPS  H18R18624   4.574   3.459   5.189 -0.0578  0.1332  0.6968
  165SAPS  H18S18625   4.704   3.342   5.136  1.4513  0.9892 -0.2316
  165SAPS  C21918626   4.682   3.507   5.006  0.4949  0.4812  0.6692
  165SAPS  H19R18627   4.783   3.484   4.967 -0.2580 -1.2108 -0.4159
  165SAPS  H19S18628   4.671   3.618   5.006  0.4759  0.4896 -0.2783
  165SAPS  C22018629   4.596   3.451   4.901 -0.0031  0.2275  0.2345
  165SAPS  H20R18630   4.636   3.485   4.803  0.9035  0.7695  0.7851
  165SAPS  H20S18631   4.495   3.497   4.906 -1.6228 -2.7935 -1.7887
  165SAPS  H20T18632   4.582   3.341   4.909  0.8904  0.1935  1.6263
  165SAPS   C3318633   5.358   2.879   6.153  0.0556  0.4283 -0.5430
  165SAPS   H3X18634   5.393   2.820   6.240  0.3299  1.3087 -0.0351
  165SAPS   H3Y18635   5.421   2.971   6.155  0.8388 -0.1059  0.0360
  165SAPS   C3418636   5.373   2.797   6.023  0.1932 -0.9474  0.4710
  165SAPS   H4X18637   5.317   2.701   6.028  0.3788 -1.1879 -1.2872
  165SAPS   H4Y18638   5.482   2.777   6.017 -0.1843 -2.8250 -1.0835
  165SAPS   C3518639   5.351   2.883   5.893 -0.5604  0.5791  0.1009
  165SAPS   H5X18640   5.401   2.982   5.903  0.2354  0.1793  0.1068
  165SAPS   H5Y18641   5.246   2.920   5.895  0.0723  2.4621  0.2968
  165SAPS   C3618642   5.383   2.796   5.773 -0.6070  0.2473  0.1193
  165SAPS   H6X18643   5.333   2.698   5.762 -0.4494  0.3863 -2.3087
  165SAPS   H6Y18644   5.493   2.780   5.777 -0.5780 -0.9786 -2.9075
  165SAPS   C3718645   5.358   2.876   5.647  0.9007 -0.2691  0.3703
  165SAPS   H7X18646   5.431   2.959   5.631 -0.7629  1.0379 -0.8765
  165SAPS   H7Y18647   5.255   2.917   5.643  0.1372 -2.1591 -0.6943
  165SAPS   C3818648   5.387   2.784   5.530  0.6383  0.1149  0.1913
  165SAPS   H8X18649   5.312   2.704   5.544 -0.6879  1.7698  3.3005
  165SAPS   H8Y18650   5.485   2.734   5.543 -0.2639 -2.4443 -1.8555
  165SAPS   C3918651   5.362   2.843   5.386  0.2731  0.6457  0.7053
  165SAPS   H9X18652   5.436   2.918   5.351  0.6406 -0.5172 -1.1496
  165SAPS   H9Y18653   5.270   2.905   5.386  0.0330  0.3063  1.8119
  165SAPS  C31018654   5.347   2.744   5.267 -0.0390 -0.0506  1.1418
  165SAPS  H10X18655   5.259   2.679   5.283  1.1556 -1.6641  1.3634
  165SAPS  H10Y18656   5.435   2.676   5.264  0.1936  0.2110  1.7102
  165SAPS  C31118657   5.335   2.821   5.139 -0.6017 -0.1873 -0.0896
  165SAPS  H11X18658   5.429   2.875   5.116 -0.3438 -0.5412  0.1229
  165SAPS  H11Y18659   5.262   2.901   5.162  0.4227 -0.1150  3.5805
  165SAPS  C31218660   5.291   2.743   5.019 -0.1035  0.2623  0.5157
  165SAPS  H12X18661   5.198   2.686   5.037 -1.2609  1.6110 -0.9046
  165SAPS  H12Y18662   5.364   2.668   4.981  2.4519  1.8269  2.0028
  165SAPS  C31318663   5.244   2.841   4.895 -0.6520  0.8175  0.4524
  165SAPS  H13X18664   5.333   2.901   4.867 -1.6559  1.9064 -0.5016
  165SAPS  H13Y18665   5.180   2.922   4.937 -0.4427  0.3458  1.7179
  165SAPS  C31418666   5.194   2.767   4.770 -0.1379  0.1607  0.3743
  165SAPS  H14X18667   5.178   2.842   4.690  1.0867  0.0457 -0.0128
  165SAPS  H14Y18668   5.101   2.710   4.791  0.3922 -1.0067 -0.3387
  165SAPS  C31518669   5.294   2.662   4.711  0.1601  0.5691 -0.0013
  165SAPS  H15X18670   5.277   2.675   4.602  0.6708 -0.6361 -0.2309
  165SAPS  H15Y18671   5.267   2.558   4.737 -1.5060  1.1539  0.8271
  165SAPS  C31618672   5.443   2.698   4.718 -0.2014  0.5592 -0.4538
  165SAPS  H16X18673   5.473   2.730   4.820  0.0059 -1.2284  0.0817
  165SAPS  H16Y18674   5.453   2.787   4.652 -1.8423  1.8023  0.8971
  165SAPS  C31718675   5.529   2.577   4.682 -0.1956 -0.4737 -0.1392
  165SAPS  H17X18676   5.476   2.480   4.698  0.8361 -1.0275 -0.0028
  165SAPS  H17Y18677   5.611   2.584   4.757 -0.0464 -0.5922 -0.2928
  165SAPS  C31818678   5.583   2.589   4.542 -0.1429 -0.2178 -0.0938
  165SAPS  H18X18679   5.646   2.681   4.540 -1.4793  0.7074 -0.7858
  165SAPS  H18Y18680   5.507   2.596   4.462  0.3966  0.4881 -0.5557
  165SAPS  H18Z18681   5.647   2.503   4.514 -2.8056 -1.8901 -1.3098
  166SAPS     N18682   2.770   3.070   6.957  0.4767 -0.0718  0.4251
  166SAPS   HN118683   2.760   2.990   6.891  0.0011 -1.2957  1.9300
  166SAPS   HN218684   2.829   3.041   7.037 -0.3504 -1.5698  0.5273
  166SAPS   HN318685   2.674   3.100   6.983  0.4361  0.5841 -0.4402
  166SAPS   C1218686   2.842   3.175   6.880 -0.4706 -0.4610 -0.4640
  166SAPS  H12A18687   2.866   3.265   6.935  1.6834 -1.2880  0.0784
  166SAPS   C1318688   2.987   3.137   6.840  0.0118  1.3872  1.4284
  166SAPS  O13A18689   3.027   3.017   6.864 -0.0162  0.2219 -0.0097
  166SAPS  O13B18690   3.056   3.211   6.766 -0.0213 -0.5053  0.1396
  166SAPS   C1118691   2.762   3.221   6.760 -0.8597  0.0797 -0.0559
  166SAPS  H11A18692   2.765   3.129   6.698  1.2390 -0.6271  1.0037
  166SAPS  H11B18693   2.822   3.294   6.701  2.6466 -2.3807  0.1340
  166SAPS     P18694   2.580   3.401   6.797 -0.2568  0.1083 -0.1476
  166SAPS   O1318695   2.440   3.408   6.844  0.1398  0.0072  0.1126
  166SAPS   O1418696   2.679   3.490   6.855  0.9939 -0.0955  0.0907
  166SAPS   O1218697   2.627   3.252   6.796 -0.1329 -0.2488  0.8065
  166SAPS   O1118698   2.583   3.437   6.647 -1.0102 -0.0660  0.6667
  166SAPS    C118699   2.536   3.350   6.537 -0.8130  0.3584 -0.5527
  166SAPS    HA18700   2.612   3.272   6.517 -0.3546 -0.3007  3.0251
  166SAPS    HB18701   2.439   3.301   6.559 -1.6981  1.7674 -1.2239
  166SAPS    C218702   2.505   3.430   6.412 -0.1587 -0.1683 -0.1474
  166SAPS    HS18703   2.472   3.360   6.332 -2.1282 -1.2391  1.5093
  166SAPS   O2118704   2.614   3.510   6.366 -1.4018 -0.1222  0.0127
  166SAPS   C2118705   2.714   3.445   6.296  0.3274 -0.4826 -0.5374
  166SAPS   O2218706   2.721   3.325   6.274 -0.1221 -0.4957 -0.1992
  166SAPS   C2218707   2.819   3.555   6.250 -0.4437  0.1787 -0.2092
  166SAPS   H2R18708   2.774   3.622   6.174  0.1141  0.0138 -0.6879
  166SAPS   H2S18709   2.837   3.613   6.343  2.2061 -0.1228 -0.4685
  166SAPS    C318710   2.383   3.521   6.426  0.2179 -0.1264  0.6471
  166SAPS    HX18711   2.399   3.597   6.505 -0.9884 -1.4007  2.1996
  166SAPS    HY18712   2.309   3.450   6.469  0.6014 -0.4599  0.7732
  166SAPS   O3118713   2.341   3.562   6.295 -0.5277  0.1862  0.0830
  166SAPS   C3118714   2.236   3.636   6.297 -0.3460  0.1712  0.2138
  166SAPS   O3218715   2.148   3.640   6.380 -0.5205 -0.2126  0.2542
  166SAPS   C3218716   2.225   3.722   6.172 -0.6915 -0.1307  0.1525
  166SAPS   H2X18717   2.293   3.691   6.089 -0.0046  2.2177 -0.2485
  166SAPS   H2Y18718   2.257   3.822   6.209 -0.7782  0.1181 -0.4303
  166SAPS   C2318719   2.958   3.514   6.205  0.0219 -0.1832  0.6488
  166SAPS   H3R18720   2.949   3.466   6.105  0.9961  1.3173 -0.1892
  166SAPS   H3S18721   2.995   3.435   6.275  0.7657  0.1780  0.6706
  166SAPS   C2418722   3.066   3.621   6.199  0.2683 -0.5166 -0.5466
  166SAPS   H4R18723   3.161   3.575   6.164 -0.7464 -1.1675 -2.5229
  166SAPS   H4S18724   3.087   3.665   6.299 -2.8655 -0.0870  0.0219
  166SAPS   C2518725   3.025   3.729   6.101  0.0216 -1.2288 -0.1982
  166SAPS   H5R18726   2.925   3.770   6.121 -0.3978 -1.9689 -0.7320
  166SAPS   C2618727   3.096   3.777   5.989 -0.7758  0.4546 -0.2108
  166SAPS   H6R18728   3.054   3.850   5.918  2.4282  1.9523 -0.7448
  166SAPS   C2718729   3.233   3.746   5.945 -0.8593  0.0326 -0.6014
  166SAPS   H7R18730   3.256   3.639   5.965 -0.0679  0.2811 -0.1380
  166SAPS   H7S18731   3.301   3.795   6.018 -1.6690 -1.5283  1.2964
  166SAPS   C2818732   3.267   3.782   5.802  0.3479  0.6173  0.4962
  166SAPS   H8R18733   3.348   3.856   5.795  1.0780 -0.1342  0.7346
  166SAPS   C2918734   3.231   3.716   5.686  0.2051 -0.8044  0.6544
  166SAPS   H9R18735   3.260   3.757   5.588 -0.5675 -1.4350  0.1518
  166SAPS  C21018736   3.138   3.601   5.657 -0.0091 -0.7157  0.0506
  166SAPS  H10R18737   3.146   3.542   5.752  0.6877  0.8312  0.9867
  166SAPS  H10S18738   3.165   3.538   5.570 -0.8615 -0.0519 -0.7120
  166SAPS  C21118739   3.001   3.672   5.640  0.0920 -0.3064  0.0523
  166SAPS  H11R18740   2.938   3.665   5.730  0.8949  0.1742  0.6640
  166SAPS  C21218741   2.941   3.725   5.526 -0.4263  0.2204  0.0987
  166SAPS  H12R18742   2.856   3.794   5.531 -0.7315 -0.1513  0.0941
  166SAPS  C21318743   3.010   3.728   5.391  0.1984 -0.4414  0.3919
  166SAPS  H13R18744   3.066   3.634   5.370  0.0605 -0.2735 -0.8310
  166SAPS  H13S18745   3.095   3.799   5.386  1.6217 -2.1364 -1.3816
  166SAPS  C21418746   2.924   3.766   5.272 -0.8275  0.2226  0.1278
  166SAPS  H14R18747   2.893   3.871   5.272  0.1349  0.5876  3.1125
  166SAPS  C21518748   2.886   3.690   5.167  0.0553  1.1283 -0.5333
  166SAPS  H15R18749   2.811   3.736   5.101  0.1576  0.6898 -0.9633
  166SAPS  C21618750   2.900   3.541   5.158  0.0607  0.1678  0.5514
  166SAPS  H16R18751   2.948   3.490   5.243  0.3630 -0.1685  0.1837
  166SAPS  H16S18752   2.975   3.523   5.078  0.2266 -3.0848  1.3128
  166SAPS  C21718753   2.777   3.455   5.134  0.0017 -0.2620 -0.3209
  166SAPS  H17R18754   2.708   3.478   5.219 -0.3460 -0.6294 -0.5006
  166SAPS  H17S18755   2.814   3.351   5.137 -1.9793 -1.0025  0.5335
  166SAPS  C21818756   2.701   3.491   5.002  1.0363  0.5790  0.2912
  166SAPS  H18R18757   2.765   3.511   4.914  0.4898 -0.9284 -0.4874
  166SAPS  H18S18758   2.642   3.584   5.018  2.7698  1.7086  0.3940
  166SAPS  C21918759   2.608   3.370   4.966 -0.4469 -0.0801  0.0735
  166SAPS  H19R18760   2.550   3.342   5.057  1.2503 -0.6313  1.0324
  166SAPS  H19S18761   2.669   3.283   4.935  2.1784  1.2457  1.2197
  166SAPS  C22018762   2.521   3.414   4.849 -0.6584  0.4559 -0.2108
  166SAPS  H20R18763   2.595   3.428   4.768  1.3255  0.4588  1.4990
  166SAPS  H20S18764   2.481   3.515   4.873  0.7952  1.2636 -1.0153
  166SAPS  H20T18765   2.446   3.336   4.823 -0.0019 -0.3490  0.2454
  166SAPS   C3318766   2.083   3.730   6.111  0.6577 -0.2226 -0.0344
  166SAPS   H3X18767   2.098   3.788   6.017 -0.0825 -1.9867 -1.2927
  166SAPS   H3Y18768   2.014   3.777   6.185 -0.7687 -2.3670  0.0857
  166SAPS   C3418769   2.020   3.598   6.089  0.1900  0.7405 -0.1780
  166SAPS   H4X18770   2.003   3.557   6.191  2.0110 -1.0529 -0.5188
  166SAPS   H4Y18771   2.082   3.517   6.043 -2.8892 -3.3274  2.1116
  166SAPS   C3518772   1.885   3.614   6.018 -0.0547 -0.0617  0.7182
  166SAPS   H5X18773   1.842   3.694   6.082  1.1370  1.2967 -0.1161
  166SAPS   H5Y18774   1.825   3.522   6.030 -1.4568  0.7846  0.4157
  166SAPS   C3618775   1.887   3.662   5.875  0.2517  0.6782  0.4312
  166SAPS   H6X18776   1.923   3.767   5.866  0.4888  0.8045  2.3679
  166SAPS   H6Y18777   1.781   3.674   5.846 -0.2503 -0.5254  1.6687
  166SAPS   C3718778   1.966   3.560   5.791  0.3268 -0.1744  0.2231
  166SAPS   H7X18779   1.929   3.457   5.811 -2.1423  0.8030  1.1544
  166SAPS   H7Y18780   2.074   3.571   5.814 -0.4208  0.8846  3.9771
  166SAPS   C3818781   1.931   3.568   5.641 -0.0363 -0.9837 -0.1618
  166SAPS   H8X18782   1.822   3.555   5.623 -0.9111  1.2116  2.7843
  166SAPS   H8Y18783   1.988   3.483   5.596 -1.6031 -3.4069  2.1308
  166SAPS   C3918784   1.977   3.698   5.583  0.5510  0.0510  0.9247
  166SAPS   H9X18785   2.086   3.695   5.561  1.1010  4.1522  2.1462
  166SAPS   H9Y18786   1.971   3.779   5.659  0.1374  1.6712 -0.7371
  166SAPS  C31018787   1.902   3.736   5.453 -0.4664 -0.0023 -0.6319
  166SAPS  H10X18788   1.931   3.838   5.419 -2.8736  0.4375 -1.5599
  166SAPS  H10Y18789   1.793   3.736   5.478  0.0171 -1.3609  1.8058
  166SAPS  C31118790   1.932   3.641   5.336 -0.1316 -0.0892  0.4839
  166SAPS  H11X18791   1.869   3.550   5.337 -2.0459  1.1033 -1.8906
  166SAPS  H11Y18792   2.039   3.613   5.329  0.1969  1.2449 -0.0370
  166SAPS  C31218793   1.904   3.723   5.206  0.0157 -0.2857  0.0074
  166SAPS  H12X18794   1.969   3.813   5.209 -1.0396  0.4754  1.5339
  166SAPS  H12Y18795   1.801   3.765   5.212  0.8623  1.6732  1.3521
  166SAPS  C31318796   1.931   3.647   5.078 -0.1001  0.0150 -0.0530
  166SAPS  H13X18797   1.857   3.565   5.069  2.2858 -2.4171  1.0032
  166SAPS  H13Y18798   2.034   3.607   5.090 -1.0723 -1.9926  2.9925
  166SAPS  C31418799   1.931   3.744   4.960 -0.3278 -0.0822 -0.4164
  166SAPS  H14X18800   2.024   3.804   4.964  0.2767 -1.0726  1.9263
  166SAPS  H14Y18801   1.856   3.823   4.977  1.1408  1.0520  1.0674
  166SAPS  C31518802   1.925   3.669   4.825  0.6198 -0.5644 -0.3145
  166SAPS  H15X18803   1.986   3.576   4.824  0.3189 -0.7723  0.2943
  166SAPS  H15Y18804   1.955   3.738   4.743 -2.3413 -0.0303 -1.0429
  166SAPS  C31618805   1.785   3.623   4.793 -0.1937 -0.1813 -1.1286
  166SAPS  H16X18806   1.715   3.705   4.767  0.6931  0.9285 -0.1100
  166SAPS  H16Y18807   1.743   3.560   4.874  3.0833 -0.5376  0.4815
  166SAPS  C31718808   1.770   3.529   4.669  0.3558  0.3022  0.2776
  166SAPS  H17X18809   1.851   3.453   4.663  0.4442  0.4847 -1.0341
  166SAPS  H17Y18810   1.770   3.591   4.577  0.1893 -0.9774 -0.6064
  166SAPS  C31818811   1.643   3.445   4.664 -0.1799  0.1816 -0.0250
  166SAPS  H18X18812   1.624   3.387   4.758  1.5230 -3.9271 -1.9584
  166SAPS  H18Y18813   1.651   3.364   4.588 -0.2121 -0.6211  0.8042
  166SAPS  H18Z18814   1.557   3.514   4.653  1.1200  1.8790 -0.0120
  167SAPS     N18815   5.742   5.148   6.899 -0.2523 -0.2082  0.0731
  167SAPS   HN118816   5.840   5.148   6.934  0.2622  1.9488 -1.1963
  167SAPS   HN218817   5.737   5.148   6.795  0.4769 -0.4171  0.0361
  167SAPS   HN318818   5.696   5.238   6.923 -1.5299 -1.0319  0.8296
  167SAPS   C1218819   5.653   5.038   6.955 -0.2781 -0.0115 -0.6468
  167SAPS  H12A18820   5.687   4.950   6.902  1.7011 -0.2220  0.8511
  167SAPS   C1318821   5.666   5.020   7.102 -0.4084  0.4639 -0.5494
  167SAPS  O13A18822   5.766   5.079   7.157  0.2525  0.5398 -0.0956
  167SAPS  O13B18823   5.594   4.947   7.166 -0.6440  0.4065  0.2943
  167SAPS   C1118824   5.513   5.085   6.908 -0.4599 -0.4793  0.2996
  167SAPS  H11A18825   5.499   5.191   6.937  1.6185 -0.1462  0.2035
  167SAPS  H11B18826   5.435   5.025   6.960 -0.3364  0.0913  1.1610
  167SAPS     P18827   5.377   5.069   6.672 -0.1052 -0.2082 -0.0901
  167SAPS   O1318828   5.267   5.121   6.757 -0.2675 -0.4668 -0.3093
  167SAPS   O1418829   5.419   5.144   6.556 -0.2104 -0.0711 -0.1960
  167SAPS   O1218830   5.507   5.060   6.764  0.2352 -0.3713  0.1287
  167SAPS   O1118831   5.343   4.920   6.634  0.5703  0.1397  0.1275
  167SAPS    C118832   5.411   4.813   6.693  0.4221  0.5271  0.4354
  167SAPS    HA18833   5.433   4.831   6.800  1.3282  0.6202  0.2455
  167SAPS    HB18834   5.344   4.724   6.699  0.2077  0.4465 -1.9738
  167SAPS    C218835   5.531   4.762   6.614  0.1036 -0.0489 -0.2050
  167SAPS    HS18836   5.606   4.843   6.627 -0.8320  0.8763 -0.4239
  167SAPS   O2118837   5.479   4.752   6.479  0.4856  0.4531  0.4424
  167SAPS   C2118838   5.555   4.805   6.381 -0.4945  0.2176 -0.0268
  167SAPS   O2218839   5.664   4.855   6.398  0.7987  0.0443 -0.1894
  167SAPS   C2218840   5.490   4.783   6.252 -0.1403 -0.0390  0.1357
  167SAPS   H2R18841   5.514   4.680   6.216  0.7710 -0.4888  1.9426
  167SAPS   H2S18842   5.380   4.785   6.265 -0.1440 -0.8820  0.3295
  167SAPS    C318843   5.590   4.626   6.652  0.5165  0.0109 -1.2593
  167SAPS    HX18844   5.510   4.550   6.646  0.3834  0.2924 -5.3211
  167SAPS    HY18845   5.624   4.643   6.757  0.6246  1.1677 -1.4622
  167SAPS   O3118846   5.692   4.589   6.565  0.4942  0.4666 -0.2440
  167SAPS   C3118847   5.751   4.468   6.594 -0.1732  0.0783  0.2989
  167SAPS   O3218848   5.716   4.405   6.695 -0.0388 -0.2500  0.6221
  167SAPS   C3218849   5.856   4.426   6.491 -1.1420  0.5201  0.1649
  167SAPS   H2X18850   5.956   4.431   6.539 -1.0717  0.8086 -0.0113
  167SAPS   H2Y18851   5.853   4.498   6.407 -1.8154  1.2951  0.8397
  167SAPS   C2318852   5.527   4.896   6.156  0.0033 -0.4497  0.2328
  167SAPS   H3R18853   5.510   4.870   6.049  0.8741  0.1268 -0.0568
  167SAPS   H3S18854   5.634   4.925   6.158 -0.4866  1.4368  1.2807
  167SAPS   C2418855   5.452   5.032   6.178  0.3474 -0.7342 -0.0487
  167SAPS   H4R18856   5.459   5.045   6.288 -0.8335 -0.9453  0.0644
  167SAPS   H4S18857   5.343   5.024   6.158  0.2251  0.0357  0.2663
  167SAPS   C2518858   5.499   5.154   6.097 -0.1160 -0.5157 -0.4259
  167SAPS   H5R18859   5.562   5.225   6.152 -3.7190  1.8532  0.9879
  167SAPS   C2618860   5.500   5.171   5.966  0.4709 -0.0024  0.4296
  167SAPS   H6R18861   5.531   5.267   5.921  2.7042 -0.5122  0.7979
  167SAPS   C2718862   5.435   5.086   5.857 -0.3603 -0.1958  0.9364
  167SAPS   H7R18863   5.352   5.137   5.804  1.9547  1.3864 -1.4286
  167SAPS   H7S18864   5.384   4.999   5.904 -0.1127 -0.8148  0.0900
  167SAPS   C2818865   5.534   5.038   5.761 -0.4291  0.2129  0.5852
  167SAPS   H8R18866   5.602   4.960   5.800  0.8957  0.9216 -0.2351
  167SAPS   C2918867   5.558   5.073   5.629 -0.6594 -0.2124 -0.4153
  167SAPS   H9R18868   5.623   5.008   5.569  0.9814 -0.2179  1.2923
  167SAPS  C21018869   5.481   5.175   5.546  0.1834  0.2860 -0.3538
  167SAPS  H10R18870   5.445   5.250   5.620  0.1625 -1.8207  1.8751
  167SAPS  H10S18871   5.392   5.130   5.497 -0.0641 -1.4030  1.5425
  167SAPS  C21118872   5.574   5.240   5.444  0.3070 -0.7869 -0.0332
  167SAPS  H11R18873   5.631   5.324   5.485 -2.4445  1.2854 -0.1370
  167SAPS  C21218874   5.579   5.206   5.309  0.1700  1.0095  0.1132
  167SAPS  H12R18875   5.640   5.262   5.237 -1.4858 -0.6238 -2.7468
  167SAPS  C21318876   5.508   5.099   5.237  0.3148 -0.0999 -0.3228
  167SAPS  H13R18877   5.522   5.004   5.294 -0.7232  0.0043  0.1383
  167SAPS  H13S18878   5.567   5.103   5.144  1.4542 -0.5291  0.3675
  167SAPS  C21418879   5.361   5.110   5.229 -0.1037 -0.2688  0.1702
  167SAPS  H14R18880   5.309   5.188   5.286  0.4051  0.5162 -0.4180
  167SAPS  C21518881   5.288   5.043   5.140 -0.1537 -0.9359  0.0440
  167SAPS  H15R18882   5.184   5.077   5.132  0.4207  0.8304 -0.2986
  167SAPS  C21618883   5.327   4.942   5.037  0.6323  0.2837  0.5573
  167SAPS  H16R18884   5.279   4.846   5.064 -0.0306  0.9749  1.9341
  167SAPS  H16S18885   5.435   4.915   5.033  0.1390 -1.7548 -0.1364
  167SAPS  C21718886   5.278   4.977   4.891  0.3203 -0.2823 -0.1133
  167SAPS  H17R18887   5.326   5.074   4.864  0.6713  0.0513  1.6236
  167SAPS  H17S18888   5.169   4.994   4.902  0.2265 -0.0673 -1.2241
  167SAPS  C21818889   5.307   4.880   4.782  0.0139  0.3176 -0.4900
  167SAPS  H18R18890   5.311   4.775   4.819  1.1535  1.0859  1.7218
  167SAPS  H18S18891   5.414   4.904   4.763  0.6250 -0.7165  1.3384
  167SAPS  C21918892   5.230   4.879   4.653  0.3501 -0.0557  0.5805
  167SAPS  H19R18893   5.259   4.969   4.594  2.4557 -0.4742  0.9087
  167SAPS  H19S18894   5.119   4.884   4.655  0.2984 -0.5038 -0.4338
  167SAPS  C22018895   5.263   4.748   4.574  0.1185  0.3126  0.0707
  167SAPS  H20R18896   5.242   4.761   4.466 -0.2055  1.4665  0.2529
  167SAPS  H20S18897   5.192   4.674   4.616  0.1502  0.6704  0.7811
  167SAPS  H20T18898   5.370   4.720   4.581 -0.5185 -2.1881  0.6013
  167SAPS   C3318899   5.838   4.285   6.431 -0.8585  0.3701 -0.4472
  167SAPS   H3X18900   5.853   4.212   6.513 -3.8049  0.3664  0.2232
  167SAPS   H3Y18901   5.926   4.271   6.365  0.2463  0.2629  1.0237
  167SAPS   C3418902   5.703   4.245   6.376  0.6436  0.6016  0.4882
  167SAPS   H4X18903   5.615   4.262   6.443 -0.1105 -0.6253 -0.1503
  167SAPS   H4Y18904   5.706   4.136   6.356  2.6347  0.8183 -0.6495
  167SAPS   C3518905   5.657   4.327   6.252  0.3849 -0.4923  0.0561
  167SAPS   H5X18906   5.635   4.433   6.279 -0.2938 -0.6473  0.1323
  167SAPS   H5Y18907   5.556   4.290   6.222  0.2871  0.8197 -1.4102
  167SAPS   C3618908   5.751   4.313   6.131 -0.4902  0.1012  0.0989
  167SAPS   H6X18909   5.759   4.209   6.093  1.3316  0.5506 -0.8404
  167SAPS   H6Y18910   5.850   4.357   6.152 -0.2218 -1.1240  1.5816
  167SAPS   C3718911   5.695   4.399   6.011  0.3893  0.1555 -0.6027
  167SAPS   H7X18912   5.678   4.504   6.044 -0.3947  0.2536 -1.3134
  167SAPS   H7Y18913   5.596   4.351   6.003  0.1363  0.4932  0.3636
  167SAPS   C3818914   5.786   4.383   5.888 -0.1556 -0.9838  0.5149
  167SAPS   H8X18915   5.796   4.275   5.863  1.7960 -0.4357 -1.4148
  167SAPS   H8Y18916   5.884   4.425   5.918  0.2756 -2.0444  0.6551
  167SAPS   C3918917   5.731   4.452   5.765 -0.2381  0.3056 -0.6484
  167SAPS   H9X18918   5.629   4.418   5.738 -0.2154 -0.1001 -0.2204
  167SAPS   H9Y18919   5.802   4.439   5.680 -1.1392 -0.4996 -1.3063
  167SAPS  C31018920   5.729   4.606   5.790  0.0657  0.4443  0.4761
  167SAPS  H10X18921   5.813   4.623   5.860 -0.4913 -2.7821  2.1557
  167SAPS  H10Y18922   5.634   4.620   5.846 -1.1779 -1.4006 -1.0178
  167SAPS  C31118923   5.742   4.697   5.666  0.2222  0.2354 -0.2102
  167SAPS  H11X18924   5.832   4.667   5.608 -0.1877 -0.0026 -0.7358
  167SAPS  H11Y18925   5.761   4.800   5.703  0.5631 -0.2917  1.1606
  167SAPS  C31218926   5.622   4.695   5.561  0.3690 -0.4326  0.5238
  167SAPS  H12X18927   5.531   4.744   5.602 -1.3498 -1.0623 -2.2887
  167SAPS  H12Y18928   5.604   4.586   5.550 -1.5998 -0.0792  0.0082
  167SAPS  C31318929   5.666   4.764   5.432  0.3238 -0.0525  0.1541
  167SAPS  H13X18930   5.716   4.856   5.467  0.2056 -0.6271  1.9423
  167SAPS  H13Y18931   5.575   4.806   5.384 -0.4858 -0.1091  1.5697
  167SAPS  C31418932   5.745   4.679   5.337 -1.0394  0.7283 -0.3883
  167SAPS  H14X18933   5.693   4.581   5.328  2.2407 -1.5049  2.4883
  167SAPS  H14Y18934   5.845   4.663   5.383 -1.9101  0.3195  1.4659
  167SAPS  C31518935   5.759   4.757   5.207 -0.2272 -0.7440 -0.1095
  167SAPS  H15X18936   5.802   4.857   5.232  0.9171 -1.2521  0.0074
  167SAPS  H15Y18937   5.660   4.782   5.162  0.9802  1.6625 -1.6288
  167SAPS  C31618938   5.850   4.687   5.102  0.3565 -0.2722 -0.8617
  167SAPS  H16X18939   5.827   4.579   5.106  1.2010 -0.4722  3.2281
  167SAPS  H16Y18940   5.955   4.692   5.139  0.5233  0.0456 -1.3572
  167SAPS  C31718941   5.847   4.751   4.968 -0.4463  0.9212  0.6840
  167SAPS  H17X18942   5.911   4.842   4.962  0.4912  0.1914 -1.6880
  167SAPS  H17Y18943   5.743   4.776   4.941 -0.8151 -1.1993 -0.0169
  167SAPS  C31818944   5.915   4.654   4.865 -0.0600 -0.2884 -0.0213
  167SAPS  H18X18945   5.880   4.667   4.760 -0.9692 -0.9854  0.1898
  167SAPS  H18Y18946   5.884   4.550   4.885  1.2961 -0.9778 -1.3361
  167SAPS  H18Z18947   6.026   4.658   4.868 -0.0049 -1.8410  0.8103
  168SAPS     N18948   3.814   5.098   6.648 -0.6667  0.6527  0.0725
  168SAPS   HN118949   3.795   5.080   6.547  0.6150 -1.1816  0.1189
  168SAPS   HN218950   3.733   5.084   6.712  0.4692  0.0882  1.4483
  168SAPS   HN318951   3.855   5.191   6.672 -0.3988  0.5939 -0.1593
  168SAPS   C1218952   3.903   4.980   6.688  0.1917 -0.3326 -0.1419
  168SAPS  H12A18953   3.994   5.008   6.638  0.3609 -0.9902 -0.2123
  168SAPS   C1318954   3.936   4.974   6.842  0.1699  0.8478  0.4563
  168SAPS  O13A18955   3.878   5.062   6.915  0.0214 -0.6511 -0.6575
  168SAPS  O13B18956   3.979   4.861   6.891  0.3659 -0.5477  0.2707
  168SAPS   C1118957   3.829   4.840   6.646 -0.3200 -0.1603 -0.1322
  168SAPS  H11A18958   3.895   4.751   6.657  0.9834  0.8007  0.0376
  168SAPS  H11B18959   3.810   4.840   6.536 -0.7674 -1.4051 -0.0690
  168SAPS     P18960   3.633   4.690   6.723  0.4575 -0.4587  0.2570
  168SAPS   O1318961   3.728   4.607   6.793  0.1715  0.5584 -0.1201
  168SAPS   O1418962   3.495   4.702   6.780  0.0730 -0.6485  0.5512
  168SAPS   O1218963   3.701   4.838   6.713 -0.7027  0.8391  0.8473
  168SAPS   O1118964   3.624   4.643   6.574  0.0105 -0.7400 -0.3336
  168SAPS    C118965   3.658   4.513   6.532 -0.5929 -0.1541 -0.3452
  168SAPS    HA18966   3.760   4.487   6.569  0.4605  1.9499 -1.6095
  168SAPS    HB18967   3.581   4.441   6.568 -0.7121 -0.5236 -1.3153
  168SAPS    C218968   3.660   4.515   6.374  0.2399  0.0661 -0.5135
  168SAPS    HS18969   3.675   4.411   6.339 -1.4030 -0.4246  0.1428
  168SAPS   O2118970   3.758   4.601   6.314  0.2357  0.2430 -0.4930
  168SAPS   C2118971   3.887   4.588   6.339  0.7679 -0.5039 -0.7680
  168SAPS   O2218972   3.930   4.497   6.413 -0.0751 -0.0674 -0.0946
  168SAPS   C2218973   3.970   4.698   6.265  0.0943  0.1072 -0.1593
  168SAPS   H2R18974   3.920   4.698   6.166  3.7187  0.9631 -2.1599
  168SAPS   H2S18975   3.957   4.800   6.305 -1.6027  0.1237 -0.6766
  168SAPS    C318976   3.522   4.551   6.317 -0.4688 -0.0011 -0.3675
  168SAPS    HX18977   3.498   4.656   6.346  2.7231  0.6828  0.1734
  168SAPS    HY18978   3.450   4.478   6.359  1.7705 -1.0735  1.9057
  168SAPS   O3118979   3.525   4.552   6.170 -0.3834 -0.0491 -0.1962
  168SAPS   C3118980   3.406   4.577   6.119  0.4398 -0.0053 -0.4713
  168SAPS   O3218981   3.304   4.609   6.180  0.1239  0.1572 -0.3478
  168SAPS   C3218982   3.416   4.577   5.971  0.3520  0.6469 -0.2593
  168SAPS   H2X18983   3.473   4.486   5.941  2.3494  1.7256  0.0617
  168SAPS   H2Y18984   3.482   4.664   5.950  3.5741 -1.8188 -1.2539
  168SAPS   C2318985   4.116   4.677   6.256 -0.0328  0.4673  0.3897
  168SAPS   H3R18986   4.142   4.570   6.263 -0.3673  0.2992 -0.7848
  168SAPS   H3S18987   4.160   4.731   6.343 -2.8145  1.7787  1.0872
  168SAPS   C2418988   4.164   4.730   6.126  0.3515  0.3153  0.3063
  168SAPS   H4R18989   4.106   4.824   6.110 -0.3152 -0.0982  0.2742
  168SAPS   H4S18990   4.120   4.659   6.053 -0.6567 -0.3723  1.5392
  168SAPS   C2518991   4.313   4.772   6.119 -0.2395 -0.8224  0.9729
  168SAPS   H5R18992   4.354   4.803   6.217  2.6166 -0.6025 -0.1919
  168SAPS   C2618993   4.391   4.800   6.010  1.4354 -0.2883 -0.3979
  168SAPS   H6R18994   4.500   4.806   6.024  1.5896 -2.3659 -0.4766
  168SAPS   C2718995   4.338   4.796   5.864  0.2335 -0.2010 -0.1749
  168SAPS   H7R18996   4.380   4.708   5.810 -0.3763 -0.6549  0.0818
  168SAPS   H7S18997   4.379   4.886   5.814 -0.5592 -0.2133 -0.8486
  168SAPS   C2818998   4.195   4.795   5.806  0.0212  0.7392  0.1907
  168SAPS   H8R18999   4.120   4.807   5.885  1.5010  0.2920  1.7362
  168SAPS   C2919000   4.156   4.828   5.684 -0.6053 -0.4460 -0.2080
  168SAPS   H9R19001   4.047   4.821   5.674 -1.2508  2.0164  3.3670
  168SAPS  C21019002   4.240   4.853   5.559  0.3734  0.6020  0.0211
  168SAPS  H10R19003   4.345   4.820   5.576  0.9430  2.7305  0.9460
  168SAPS  H10S19004   4.262   4.961   5.549 -0.4272  0.7772  0.0801
  168SAPS  C21119005   4.207   4.791   5.423 -0.4559 -0.6694 -0.1874
  168SAPS  H11R19006   4.214   4.683   5.406 -0.4741 -0.9125  1.1755
  168SAPS  C21219007   4.189   4.876   5.315  0.5015 -0.2127 -0.0567
  168SAPS  H12R19008   4.169   4.828   5.217 -1.8124  0.5339 -0.0003
  168SAPS  C21319009   4.174   5.024   5.313 -0.8266 -0.2940  0.0051
  168SAPS  H13R19010   4.218   5.056   5.216  0.2713 -1.0072  0.2448
  168SAPS  H13S19011   4.251   5.061   5.385  0.4784 -0.4656 -1.2527
  168SAPS  C21419012   4.035   5.074   5.348  0.1808 -0.5168  0.1260
  168SAPS  H14R19013   4.001   5.040   5.447  1.8635  2.1638  1.7691
  168SAPS  C21519014   3.960   5.162   5.281  0.0320 -0.2253 -0.0738
  168SAPS  H15R19015   3.875   5.204   5.337  0.8938  0.9888  0.3868
  168SAPS  C21619016   3.990   5.231   5.149  0.4265  0.2118 -0.1936
  168SAPS  H16R19017   4.098   5.240   5.124  0.6749 -1.3988  0.1814
  168SAPS  H16S19018   3.952   5.335   5.158 -0.0346  0.0831 -0.5998
  168SAPS  C21719019   3.915   5.166   5.040 -0.8387  0.1029  0.9426
  168SAPS  H17R19020   3.809   5.169   5.074 -1.1745  1.0668 -0.0929
  168SAPS  H17S19021   3.941   5.059   5.030 -1.4507 -0.0250  0.6505
  168SAPS  C21819022   3.939   5.241   4.900  0.1664 -0.0293 -0.0706
  168SAPS  H18R19023   4.038   5.196   4.879  2.1158  2.8976  2.1567
  168SAPS  H18S19024   3.942   5.352   4.906  0.9126  0.1545 -2.7547
  168SAPS  C21919025   3.834   5.197   4.803 -0.4108 -0.7237  0.2093
  168SAPS  H19R19026   3.740   5.238   4.846 -0.7983 -1.4546  0.0758
  168SAPS  H19S19027   3.811   5.089   4.803 -1.2962 -0.5716 -1.4784
  168SAPS  C22019028   3.837   5.261   4.657 -0.2717 -0.0666 -0.3853
  168SAPS  H20R19029   3.905   5.199   4.594  2.1402  1.0842  0.9164
  168SAPS  H20S19030   3.875   5.365   4.665  0.6981 -0.4887  0.9160
  168SAPS  H20T19031   3.733   5.276   4.621 -0.2431  1.2058 -0.0007
  168SAPS   C3319032   3.285   4.608   5.886 -0.5547 -0.0851  0.1264
  168SAPS   H3X19033   3.254   4.714   5.877 -1.3096 -0.2314  0.9370
  168SAPS   H3Y19034   3.195   4.551   5.917  0.3792 -1.9061 -0.3403
  168SAPS   C3419035   3.325   4.577   5.738 -0.8025 -0.0095 -0.1891
  168SAPS   H4X19036   3.341   4.468   5.727 -2.6630 -0.3638  0.3125
  168SAPS   H4Y19037   3.422   4.627   5.715 -0.1221 -0.5767  1.3305
  168SAPS   C3519038   3.230   4.622   5.631 -0.1406  0.2674  0.0656
  168SAPS   H5X19039   3.195   4.727   5.639  0.1971  0.2924  1.3006
  168SAPS   H5Y19040   3.143   4.555   5.647  1.0004 -1.3877 -0.3945
  168SAPS   C3619041   3.286   4.608   5.490  0.4533 -0.2978  0.5197
  168SAPS   H6X19042   3.309   4.500   5.473  0.9022 -0.3917  1.6150
  168SAPS   H6Y19043   3.387   4.654   5.490  0.5140 -0.4206 -0.0736
  168SAPS   C3719044   3.192   4.648   5.377 -0.3883  0.8462 -0.0577
  168SAPS   H7X19045   3.157   4.753   5.376 -1.5249  0.4892 -0.2699
  168SAPS   H7Y19046   3.103   4.580   5.385 -0.3379  0.9243  1.5983
  168SAPS   C3819047   3.260   4.617   5.247 -0.1311  0.2912  0.2038
  168SAPS   H8X19048   3.277   4.508   5.232 -2.7148 -0.4206  1.8267
  168SAPS   H8Y19049   3.355   4.674   5.237  0.1653 -0.2037  0.1461
  168SAPS   C3919050   3.177   4.675   5.137  0.1132  0.0696  0.1833
  168SAPS   H9X19051   3.169   4.786   5.145  0.0194  0.2276 -1.5940
  168SAPS   H9Y19052   3.071   4.643   5.134  0.0365  0.2784  0.5510
  168SAPS  C31019053   3.241   4.673   4.997 -0.2701  0.5031 -0.7164
  168SAPS  H10X19054   3.263   4.566   4.976  1.6291  1.4237 -4.1908
  168SAPS  H10Y19055   3.346   4.709   5.006  0.0902 -0.5793 -0.4136
  168SAPS  C31119056   3.153   4.729   4.886  0.3106  0.1151  0.3608
  168SAPS  H11X19057   3.172   4.837   4.871 -3.5721  1.3758  2.9576
  168SAPS  H11Y19058   3.046   4.728   4.916  0.5811 -1.8718  1.4172
  168SAPS  C31219059   3.167   4.652   4.758  0.6450 -0.1199 -0.5513
  168SAPS  H12X19060   3.149   4.544   4.777 -0.8754  0.0724 -0.7653
  168SAPS  H12Y19061   3.275   4.661   4.733  1.0118  0.4142  1.0862
  168SAPS  C31319062   3.083   4.706   4.641  0.2720 -0.4996 -0.0881
  168SAPS  H13X19063   3.113   4.813   4.641  1.4004 -0.7710  1.5387
  168SAPS  H13Y19064   2.973   4.693   4.644  0.0383  1.3951  2.4298
  168SAPS  C31419065   3.112   4.623   4.511  0.0457 -0.3404 -0.1692
  168SAPS  H14X19066   3.105   4.514   4.526  1.1547 -0.5450 -1.0110
  168SAPS  H14Y19067   3.212   4.644   4.468 -0.1907 -1.4165 -1.2929
  168SAPS  C31519068   3.012   4.653   4.390 -0.2584  0.2643 -0.3411
  168SAPS  H15X19069   3.017   4.763   4.371  0.0169 -0.1306 -3.0375
  168SAPS  H15Y19070   2.907   4.628   4.416 -0.4745  2.0468  0.6771
  168SAPS  C31619071   3.049   4.589   4.255 -0.3392  0.4133 -0.8091
  168SAPS  H16X19072   2.988   4.616   4.167 -0.4237 -2.0729 -1.5803
  168SAPS  H16Y19073   3.039   4.479   4.266  2.6833  0.2698  2.1665
  168SAPS  C31719074   3.195   4.603   4.210 -0.1465 -0.0714  0.0566
  168SAPS  H17X19075   3.258   4.554   4.287 -1.3907 -1.0743  0.4673
  168SAPS  H17Y19076   3.224   4.710   4.204 -0.1821  0.0521  1.6365
  168SAPS  C31819077   3.226   4.538   4.069  0.2768 -0.2099 -0.8342
  168SAPS  H18X19078   3.182   4.589   3.981  0.2124 -0.1101 -0.7443
  168SAPS  H18Y19079   3.189   4.433   4.076  0.1710 -0.0929  3.7923
  168SAPS  H18Z19080   3.336   4.542   4.055  0.9992 -0.0379  3.4448
  169SAPS     N19081   5.237   0.264   6.986  0.3073  0.0301 -0.0501
  169SAPS   HN119082   5.196   0.345   7.037  1.1647  2.8103 -3.4624
  169SAPS   HN219083   5.209   0.262   6.886  2.5145  0.2967 -0.7155
  169SAPS   HN319084   5.188   0.182   7.028  0.2280 -0.8433 -1.7686
  169SAPS   C1219085   5.379   0.234   6.987  0.2741  0.0450  0.0021
  169SAPS  H12A19086   5.428   0.326   6.960 -0.4594  0.0186 -1.5413
  169SAPS   C1319087   5.426   0.188   7.128 -0.0604  0.7498  0.1294
  169SAPS  O13A19088   5.354   0.174   7.228  0.5857  0.7303 -0.2410
  169SAPS  O13B19089   5.547   0.158   7.137  0.1177  0.1302  0.2040
  169SAPS   C1119090   5.406   0.116   6.890  0.3381 -0.8148  0.0076
  169SAPS  H11A19091   5.367   0.022   6.935  1.5181 -1.1485  0.3652
  169SAPS  H11B19092   5.517   0.110   6.884  0.3432 -0.7481  0.0554
  169SAPS     P19093   5.289   0.010   6.674 -0.5045 -0.0356 -0.0669
  169SAPS   O1319094   5.224  -0.084   6.767 -0.0792  0.1582 -0.4747
  169SAPS   O1419095   5.210   0.063   6.571 -0.2175 -0.0788  0.0667
  169SAPS   O1219096   5.342   0.136   6.758 -0.1052 -0.3269  0.0344
  169SAPS   O1119097   5.422  -0.047   6.610  0.1550  0.4316  0.2145
  169SAPS    C119098   5.529   0.027   6.570  0.1182  0.2183  0.9505
  169SAPS    HA19099   5.506   0.132   6.543 -2.3519 -0.6840 -0.7758
  169SAPS    HB19100   5.599   0.034   6.656  1.4424  1.7934 -0.1906
  169SAPS    C219101   5.595  -0.042   6.448 -0.1702  0.1053 -0.3852
  169SAPS    HS19102   5.673   0.028   6.410 -0.5069  1.1947  0.8336
  169SAPS   O2119103   5.488  -0.069   6.353 -0.0878 -0.1637 -0.2938
  169SAPS   C2119104   5.458   0.030   6.277 -0.8023 -1.1615 -0.2007
  169SAPS   O2219105   5.509   0.143   6.276  0.0570  0.4291  0.1002
  169SAPS   C2219106   5.343  -0.022   6.191  0.1581 -0.2783  0.3951
  169SAPS   H2R19107   5.275  -0.084   6.253  0.1994 -1.0110 -0.2778
  169SAPS   H2S19108   5.284   0.071   6.175 -0.2470 -0.5436  0.3181
  169SAPS    C319109   5.664  -0.175   6.475 -0.5261  1.0154  0.1373
  169SAPS    HX19110   5.585  -0.238   6.521  1.8982 -1.9970  0.4791
  169SAPS    HY19111   5.741  -0.166   6.555  0.6436  0.5512 -0.9095
  169SAPS   O3119112   5.715  -0.251   6.358 -0.1438  0.3212 -0.0286
  169SAPS   C3119113   5.834  -0.225   6.323  0.0757  0.3954  0.1433
  169SAPS   O3219114   5.909  -0.149   6.383 -0.3344  0.9212 -0.0787
  169SAPS   C3219115   5.870  -0.304   6.194 -0.5864  0.1786  0.5562
  169SAPS   H2X19116   5.910  -0.233   6.118  1.5248 -2.8263 -1.3386
  169SAPS   H2Y19117   5.776  -0.343   6.149  0.0691  0.2425 -0.9395
  169SAPS   C2319118   5.384  -0.066   6.050  0.3620 -0.3703 -0.0755
  169SAPS   H3R19119   5.422   0.024   5.997  1.5131 -1.7972 -1.7914
  169SAPS   H3S19120   5.297  -0.104   5.993 -0.6682  1.1055  0.4471
  169SAPS   C2419121   5.505  -0.169   6.031  0.4162  0.2306  0.1276
  169SAPS   H4R19122   5.483  -0.257   6.094 -1.6298  0.0806 -0.7244
  169SAPS   H4S19123   5.589  -0.107   6.070 -2.1557  3.2985  1.2988
  169SAPS   C2519124   5.528  -0.195   5.883 -0.2153  0.7185  0.6668
  169SAPS   H5R19125   5.536  -0.109   5.814 -0.2660  1.5901  1.7199
  169SAPS   C2619126   5.526  -0.322   5.831 -0.0102  0.4099 -0.2559
  169SAPS   H6R19127   5.541  -0.344   5.724  0.0588 -1.3456  0.0895
  169SAPS   C2719128   5.502  -0.443   5.912  0.0519 -0.1580  0.9087
  169SAPS   H7R19129   5.414  -0.435   5.980  0.2313 -0.7723  1.2214
  169SAPS   H7S19130   5.593  -0.458   5.975  1.4138 -2.9852 -1.4956
  169SAPS   C2819131   5.468  -0.565   5.822 -0.0808 -0.2452 -0.5902
  169SAPS   H8R19132   5.367  -0.565   5.779 -1.0231  0.1607  1.4984
  169SAPS   C2919133   5.548  -0.665   5.787 -0.6364  0.3287 -0.8730
  169SAPS   H9R19134   5.504  -0.737   5.717  0.7413 -1.0360 -0.3811
  169SAPS  C21019135   5.699  -0.682   5.814 -0.1328 -0.1254 -0.1034
  169SAPS  H10R19136   5.701  -0.706   5.922 -3.3119  0.4407  0.2024
  169SAPS  H10S19137   5.748  -0.583   5.823  0.6737 -0.5387  0.0892
  169SAPS  C21119138   5.763  -0.768   5.708 -0.6709  0.3360  0.0590
  169SAPS  H11R19139   5.805  -0.862   5.747 -4.1654 -0.8035  1.4852
  169SAPS  C21219140   5.782  -0.729   5.580 -0.2262  0.1597  0.2908
  169SAPS  H12R19141   5.836  -0.789   5.505 -1.0559 -0.6237  0.3042
  169SAPS  C21319142   5.758  -0.592   5.523 -0.0737 -0.5660 -0.2967
  169SAPS  H13R19143   5.653  -0.557   5.538  0.5544  0.8038  1.1528
  169SAPS  H13S19144   5.776  -0.612   5.416 -0.3310 -3.4715  0.1234
  169SAPS  C21419145   5.843  -0.485   5.580 -0.4109 -0.2944 -0.1507
  169SAPS  H14R19146   5.862  -0.486   5.688 -0.8094 -0.1445 -0.0787
  169SAPS  C21519147   5.883  -0.380   5.506  0.1084  0.0812 -0.3442
  169SAPS  H15R19148   5.959  -0.320   5.559  0.4723 -0.5781 -0.0955
  169SAPS  C21619149   5.847  -0.346   5.362 -0.2988  0.7641 -0.5608
  169SAPS  H16R19150   5.837  -0.433   5.293  0.8681 -0.4306  0.7226
  169SAPS  H16S19151   5.938  -0.296   5.323  0.9087  0.8519  2.1963
  169SAPS  C21719152   5.722  -0.258   5.345  0.2387  0.1482 -1.1553
  169SAPS  H17R19153   5.640  -0.294   5.411  0.1221  0.3117 -1.2111
  169SAPS  H17S19154   5.682  -0.266   5.242  1.6259  1.4883 -1.8390
  169SAPS  C21819155   5.731  -0.110   5.390 -0.2705  0.2060 -0.7551
  169SAPS  H18R19156   5.662  -0.062   5.318 -2.6579 -0.9846  0.6264
  169SAPS  H18S19157   5.840  -0.086   5.385 -0.1666 -0.3762 -1.5304
  169SAPS  C21919158   5.685  -0.088   5.536  0.1935  0.3970  0.5016
  169SAPS  H19R19159   5.759  -0.137   5.603 -0.7198  0.7957  1.8363
  169SAPS  H19S19160   5.588  -0.141   5.548 -0.0996  0.4075 -1.4884
  169SAPS  C22019161   5.683   0.063   5.560  0.5825  0.0806 -0.2678
  169SAPS  H20R19162   5.651   0.077   5.666  0.3436 -0.9041 -0.2024
  169SAPS  H20S19163   5.601   0.105   5.499 -0.2682 -0.4221  0.5065
  169SAPS  H20T19164   5.770   0.127   5.532  0.1034 -0.0041 -2.0403
  169SAPS   C3319165   5.975  -0.420   6.206 -0.6856 -0.1849  0.0095
  169SAPS   H3X19166   5.943  -0.490   6.286 -3.1247  1.1757  0.3173
  169SAPS   H3Y19167   6.069  -0.371   6.238 -1.5209  1.0220  0.6632
  169SAPS   C3419168   6.011  -0.487   6.073  0.5178  0.0607 -0.5191
  169SAPS   H4X19169   5.920  -0.535   6.031 -1.0815  0.5726  2.1074
  169SAPS   H4Y19170   6.086  -0.562   6.107  0.5691  0.1964 -0.3298
  169SAPS   C3519171   6.072  -0.393   5.977 -0.4427  0.0666  0.0848
  169SAPS   H5X19172   6.147  -0.320   6.015 -0.6753  0.4610 -0.2024
  169SAPS   H5Y19173   5.998  -0.318   5.942 -0.0843  0.9759  1.1829
  169SAPS   C3619174   6.150  -0.461   5.863  0.7491  0.6209 -0.4652
  169SAPS   H6X19175   6.077  -0.511   5.795  0.0616 -0.7373  1.2190
  169SAPS   H6Y19176   6.208  -0.540   5.915 -0.4355  0.5581  0.8102
  169SAPS   C3719177   6.246  -0.368   5.793  0.4180 -0.5342  0.6934
  169SAPS   H7X19178   6.331  -0.331   5.853  1.1581  2.0316 -1.7236
  169SAPS   H7Y19179   6.191  -0.272   5.786  0.6878 -0.4095  0.2693
  169SAPS   C3819180   6.293  -0.424   5.659 -0.3260  0.6383  0.3120
  169SAPS   H8X19181   6.205  -0.468   5.607  1.2641 -1.2074 -0.9558
  169SAPS   H8Y19182   6.362  -0.504   5.691 -2.2362 -1.0029  0.5640
  169SAPS   C3919183   6.353  -0.311   5.573 -0.4450 -0.1538 -0.3419
  169SAPS   H9X19184   6.457  -0.291   5.607 -0.7561 -1.2107  1.3671
  169SAPS   H9Y19185   6.284  -0.225   5.588  0.6623  0.8244 -0.7112
  169SAPS  C31019186   6.363  -0.335   5.418  0.0513 -0.3856 -0.2040
  169SAPS  H10X19187   6.261  -0.348   5.377  1.0486 -2.1824 -2.2979
  169SAPS  H10Y19188   6.428  -0.424   5.407 -0.8363 -1.0149 -0.3865
  169SAPS  C31119189   6.427  -0.219   5.342  0.6505  0.4970 -0.4511
  169SAPS  H11X19190   6.514  -0.175   5.395  0.4751  0.8827 -0.4732
  169SAPS  H11Y19191   6.352  -0.136   5.345  0.3020  0.1519  1.1448
  169SAPS  C31219192   6.443  -0.250   5.189 -0.5613 -0.0411 -0.7539
  169SAPS  H12X19193   6.339  -0.264   5.152 -1.1966  1.5957  0.2815
  169SAPS  H12Y19194   6.492  -0.349   5.176  1.3863  0.8550 -0.5969
  169SAPS  C31319195   6.528  -0.146   5.113  0.5399 -0.6827  0.3020
  169SAPS  H13X19196   6.635  -0.161   5.136  0.8501  1.7699  0.7057
  169SAPS  H13Y19197   6.496  -0.048   5.157 -2.3618  0.4532 -3.7683
  169SAPS  C31419198   6.502  -0.132   4.960 -0.1436 -0.1353  0.5804
  169SAPS  H14X19199   6.397  -0.111   4.930  0.0234  0.8510  0.6765
  169SAPS  H14Y19200   6.519  -0.226   4.903 -1.9149 -1.4816  2.1068
  169SAPS  C31519201   6.592  -0.017   4.907 -0.4578 -0.1631 -0.3125
  169SAPS  H15X19202   6.700  -0.022   4.931  0.1147  4.2167 -1.2502
  169SAPS  H15Y19203   6.564   0.084   4.944  0.8709  1.3821 -3.2432
  169SAPS  C31619204   6.568  -0.020   4.751 -0.7611 -0.2905 -0.6605
  169SAPS  H16X19205   6.458  -0.026   4.737 -0.8978 -0.7541  0.5031
  169SAPS  H16Y19206   6.603  -0.116   4.705 -2.1166 -0.6427 -0.9958
  169SAPS  C31719207   6.627   0.106   4.687  0.1006  0.2221  0.4117
  169SAPS  H17X19208   6.735   0.106   4.712  0.1831  0.2541  0.0540
  169SAPS  H17Y19209   6.593   0.196   4.743  0.4300 -0.2669  1.4157
  169SAPS  C31819210   6.614   0.129   4.530  0.1592  0.2085  0.2245
  169SAPS  H18X19211   6.637   0.237   4.517 -0.7467  0.5876  1.5226
  169SAPS  H18Y19212   6.517   0.093   4.489  0.8724 -1.6385  0.0842
  169SAPS  H18Z19213   6.686   0.057   4.485 -1.1445 -0.6619 -0.5281
  170SAPS     N19214   0.787   4.444   7.413  0.3156  0.3538 -0.0826
  170SAPS   HN119215   0.699   4.426   7.466  1.6876  1.4563  2.7548
  170SAPS   HN219216   0.842   4.356   7.410  0.1905  0.2812 -0.3483
  170SAPS   HN319217   0.846   4.511   7.466 -0.4615  1.3247 -0.4008
  170SAPS   C1219218   0.771   4.498   7.272  0.4426  0.2734  0.0114
  170SAPS  H12A19219   0.713   4.588   7.287  0.2681 -0.0814  1.6152
  170SAPS   C1319220   0.905   4.544   7.204 -0.0871  0.6649 -0.2889
  170SAPS  O13A19221   1.008   4.548   7.276  0.3252 -0.1578  0.3797
  170SAPS  O13B19222   0.899   4.605   7.095  0.2275 -0.1901  0.7573
  170SAPS   C1119223   0.710   4.381   7.182 -0.1889  1.2239 -0.7172
  170SAPS  H11A19224   0.789   4.305   7.164 -0.3428 -0.0200  3.0260
  170SAPS  H11B19225   0.695   4.411   7.077  2.2190  0.9857 -1.1976
  170SAPS     P19226   0.552   4.173   7.253 -0.1673 -0.2287  0.4083
  170SAPS   O1319227   0.647   4.095   7.334 -0.0570 -0.0616 -0.4116
  170SAPS   O1419228   0.415   4.177   7.304 -0.0978  0.2225  0.3219
  170SAPS   O1219229   0.591   4.325   7.238 -0.5952  0.2352 -0.3131
  170SAPS   O1119230   0.556   4.105   7.111 -0.4292 -0.1552 -0.2109
  170SAPS    C119231   0.545   4.184   6.985 -0.4210  0.6561 -0.1562
  170SAPS    HA19232   0.486   4.278   6.991 -1.4784  0.0713 -0.9496
  170SAPS    HB19233   0.645   4.220   6.952 -1.3722  0.3466 -3.7123
  170SAPS    C219234   0.493   4.099   6.863  0.0133  0.0150  0.7275
  170SAPS    HS19235   0.503   4.161   6.771  3.4964 -1.2998  0.0379
  170SAPS   O2119236   0.362   4.038   6.879  0.0859  0.2528 -0.1991
  170SAPS   C2119237   0.267   4.104   6.815  0.0798  0.0830 -0.1679
  170SAPS   O2219238   0.275   4.201   6.745  0.2658  0.1532 -0.9372
  170SAPS   C2219239   0.138   4.024   6.839  0.4574 -0.2098  0.2263
  170SAPS   H2R19240   0.179   3.925   6.868 -0.4463 -0.4106  0.8687
  170SAPS   H2S19241   0.083   4.060   6.929 -1.5606 -0.9373 -0.6432
  170SAPS    C319242   0.585   3.978   6.829  0.2880 -0.2385 -0.1969
  170SAPS    HX19243   0.616   3.923   6.920 -1.9180 -1.1795  0.0464
  170SAPS    HY19244   0.680   4.010   6.781  1.0234 -1.7720  0.1740
  170SAPS   O3119245   0.522   3.870   6.748  0.1684  0.2193  0.2895
  170SAPS   C3119246   0.546   3.884   6.623  0.2921 -0.2218 -0.1625
  170SAPS   O3219247   0.612   3.970   6.567 -0.0330  0.4456 -0.7781
  170SAPS   C3219248   0.473   3.772   6.547  0.1438  0.0557 -0.2948
  170SAPS   H2X19249   0.369   3.768   6.585  0.0271  3.9916  0.1874
  170SAPS   H2Y19250   0.533   3.683   6.576 -0.9009 -0.8179 -0.7447
  170SAPS   C2319251   0.051   4.003   6.717  0.2688 -0.3227 -0.5272
  170SAPS   H3R19252  -0.024   4.084   6.702 -0.0643 -0.4514  0.3544
  170SAPS   H3S19253  -0.006   3.912   6.743 -0.4398  0.4900  0.8932
  170SAPS   C2419254   0.126   3.979   6.585  0.1026 -0.5054  0.5215
  170SAPS   H4R19255   0.212   3.912   6.609  0.5261  0.5397  2.0963
  170SAPS   H4S19256   0.173   4.072   6.546 -0.5337  0.9569  2.9964
  170SAPS   C2519257   0.047   3.918   6.467 -0.2336 -0.3975 -0.3480
  170SAPS   H5R19258   0.037   3.809   6.474  3.2685 -0.7635  2.1280
  170SAPS   C2619259   0.007   3.979   6.357  0.3364 -0.2057 -0.2110
  170SAPS   H6R19260  -0.050   3.916   6.287  0.8079 -2.1123  1.0484
  170SAPS   C2719261   0.007   4.127   6.324  0.0006  0.1790 -0.0962
  170SAPS   H7R19262   0.108   4.173   6.336 -1.0763  2.1370  2.2933
  170SAPS   H7S19263  -0.065   4.188   6.383 -0.1080 -0.0535  0.0107
  170SAPS   C2819264  -0.022   4.142   6.178 -0.6809 -0.2949 -0.4889
  170SAPS   H8R19265   0.047   4.084   6.114  2.1757  2.3068 -0.0425
  170SAPS   C2919266  -0.091   4.241   6.106  0.5539  1.4256 -0.6228
  170SAPS   H9R19267  -0.107   4.245   5.997 -1.1876 -2.3051 -0.6690
  170SAPS  C21019268  -0.186   4.339   6.165 -0.3980 -0.2490 -0.5594
  170SAPS  H10R19269  -0.204   4.303   6.269 -0.0550 -1.9881 -1.0714
  170SAPS  H10S19270  -0.290   4.344   6.126 -0.2847  1.7681 -0.7273
  170SAPS  C21119271  -0.110   4.470   6.159 -0.1938 -0.2352  0.0640
  170SAPS  H11R19272  -0.021   4.487   6.222  0.9285 -0.8067 -1.3081
  170SAPS  C21219273  -0.131   4.571   6.074  0.0539 -0.1475  0.1481
  170SAPS  H12R19274  -0.079   4.667   6.091  0.1707 -0.1674 -0.1007
  170SAPS  C21319275  -0.237   4.573   5.975  0.2917  0.3506  0.3486
  170SAPS  H13R19276  -0.321   4.506   6.004 -0.5721  0.8653 -0.8979
  170SAPS  H13S19277  -0.195   4.519   5.887  3.7721  1.1502  1.3935
  170SAPS  C21419278  -0.289   4.709   5.938 -0.3603  0.2295 -0.7234
  170SAPS  H14R19279  -0.394   4.716   5.969  0.4260  0.6174  2.0521
  170SAPS  C21519280  -0.238   4.804   5.859  0.0470 -0.1902 -0.2817
  170SAPS  H15R19281  -0.305   4.888   5.834  0.9634  0.6287 -0.0322
  170SAPS  C21619282  -0.108   4.793   5.787 -0.1163  0.1878  0.0342
  170SAPS  H16R19283  -0.046   4.705   5.815 -2.0629 -1.0412  0.6967
  170SAPS  H16S19284  -0.051   4.886   5.806 -0.7208  0.4073  0.8537
  170SAPS  C21719285  -0.136   4.773   5.643 -0.3303 -0.8488  0.3393
  170SAPS  H17R19286  -0.216   4.842   5.607  0.5240  1.2946  2.2949
  170SAPS  H17S19287  -0.166   4.667   5.628 -0.6345 -0.7423  0.1796
  170SAPS  C21819288  -0.015   4.817   5.557 -0.4833  0.3721 -0.5196
  170SAPS  H18R19289   0.061   4.744   5.593 -0.0036  0.8644 -0.5251
  170SAPS  H18S19290   0.010   4.922   5.582 -1.4407  0.5872 -0.4272
  170SAPS  C21919291  -0.030   4.809   5.403  0.9874 -0.2860 -0.7744
  170SAPS  H19R19292  -0.106   4.878   5.360  1.1770 -1.1156 -2.5254
  170SAPS  H19S19293  -0.052   4.701   5.386  0.9956 -0.8378  2.1062
  170SAPS  C22019294   0.101   4.840   5.335  0.1993 -0.7628 -0.3387
  170SAPS  H20R19295   0.104   4.949   5.314  0.4687 -0.9393 -1.2451
  170SAPS  H20S19296   0.117   4.793   5.236  0.4996 -1.3451 -0.0211
  170SAPS  H20T19297   0.187   4.805   5.397  0.3354  1.8108  1.0531
  170SAPS   C3319298   0.458   3.801   6.396 -0.1086 -0.2312  0.3123
  170SAPS   H3X19299   0.561   3.798   6.354 -0.4085  0.7634 -0.5335
  170SAPS   H3Y19300   0.439   3.910   6.384 -1.1140 -0.6250 -2.3603
  170SAPS   C3419301   0.350   3.724   6.327 -1.0544 -0.1178 -0.0825
  170SAPS   H4X19302   0.258   3.754   6.382 -1.2198 -1.4439  0.3942
  170SAPS   H4Y19303   0.361   3.614   6.334 -1.4755 -0.3847 -2.6116
  170SAPS   C3519304   0.320   3.765   6.176 -0.8214 -0.3828 -0.3096
  170SAPS   H5X19305   0.410   3.748   6.113  0.4006 -0.7636  1.4407
  170SAPS   H5Y19306   0.299   3.874   6.183 -0.6296 -0.2176 -2.0489
  170SAPS   C3619307   0.197   3.697   6.117  0.3995  0.6404  0.4241
  170SAPS   H6X19308   0.171   3.753   6.025  0.9657 -1.0470 -0.8259
  170SAPS   H6Y19309   0.102   3.704   6.174  0.4859  0.3689  0.6060
  170SAPS   C3719310   0.215   3.549   6.073 -0.2511  0.6708  0.5067
  170SAPS   H7X19311   0.202   3.490   6.166  0.4859 -0.2193  0.0734
  170SAPS   H7Y19312   0.315   3.524   6.031 -1.1150  0.1665 -1.3284
  170SAPS   C3819313   0.109   3.494   5.974 -0.1035 -0.0764  0.6668
  170SAPS   H8X19314   0.001   3.511   5.995 -0.5438 -2.1602  0.2486
  170SAPS   H8Y19315   0.104   3.384   5.984 -1.5231 -0.1065 -0.2182
  170SAPS   C3919316   0.142   3.528   5.826 -0.1056  0.2351 -0.2540
  170SAPS   H9X19317   0.128   3.634   5.795 -0.8139  0.3294  0.3461
  170SAPS   H9Y19318   0.057   3.479   5.774 -0.6957 -0.1649  1.0249
  170SAPS  C31019319   0.282   3.474   5.780 -0.2729 -0.0264  0.1537
  170SAPS  H10X19320   0.283   3.376   5.832  0.4111  0.5550  1.2828
  170SAPS  H10Y19321   0.363   3.532   5.829 -0.9442  1.6122 -0.5676
  170SAPS  C31119322   0.298   3.465   5.632 -0.1929  0.7890 -0.1713
  170SAPS  H11X19323   0.260   3.555   5.580 -0.7282  0.3216 -0.6010
  170SAPS  H11Y19324   0.236   3.381   5.592 -1.0755  1.2801  0.1543
  170SAPS  C31219325   0.444   3.444   5.584 -0.6961 -0.2285 -0.3089
  170SAPS  H12X19326   0.489   3.354   5.630 -0.8172  0.5048  1.3194
  170SAPS  H12Y19327   0.499   3.524   5.638  1.5241 -2.2806  0.6314
  170SAPS  C31319328   0.468   3.459   5.436  0.2328 -0.5166  0.1165
  170SAPS  H13X19329   0.456   3.569   5.423  0.2346 -0.5851 -0.4855
  170SAPS  H13Y19330   0.380   3.414   5.385 -1.0543  0.2830  1.5555
  170SAPS  C31419331   0.594   3.402   5.367  0.1175  0.3834  0.0504
  170SAPS  H14X19332   0.611   3.299   5.406 -2.6042  0.4271  1.5685
  170SAPS  H14Y19333   0.685   3.460   5.394  0.1443  0.3073  0.1260
  170SAPS  C31519334   0.583   3.406   5.213 -0.0464 -0.2160 -0.1994
  170SAPS  H15X19335   0.559   3.508   5.177 -1.0370  0.4289  2.0917
  170SAPS  H15Y19336   0.499   3.347   5.171 -1.4151  0.2639  1.7463
  170SAPS  C31619337   0.713   3.358   5.150  0.4528 -0.3819 -0.2941
  170SAPS  H16X19338   0.701   3.247   5.149  0.6682 -0.4070 -1.2565
  170SAPS  H16Y19339   0.797   3.384   5.218 -0.6588  1.5528  0.4175
  170SAPS  C31719340   0.740   3.416   5.014  0.7708  0.2566 -0.2411
  170SAPS  H17X19341   0.747   3.527   5.021 -2.9730  0.7428 -1.8097
  170SAPS  H17Y19342   0.657   3.401   4.942  0.5093  3.0922 -0.6633
  170SAPS  C31819343   0.876   3.363   4.965  0.0934  0.5652  0.3860
  170SAPS  H18X19344   0.956   3.384   5.039 -0.5169  0.4227  1.0896
  170SAPS  H18Y19345   0.901   3.405   4.864 -2.1272 -0.4894 -0.6715
  170SAPS  H18Z19346   0.864   3.253   4.958 -0.8841  0.5374  2.1571
  171SAPS     N19347   0.754   4.849   7.058 -0.1725  0.0634  0.3885
  171SAPS   HN119348   0.825   4.895   6.999 -2.2469  1.3163 -1.2805
  171SAPS   HN219349   0.764   4.881   7.157 -0.1589  3.3066 -0.5379
  171SAPS   HN319350   0.783   4.749   7.053 -0.8326 -0.0872 -0.7651
  171SAPS   C1219351   0.613   4.876   7.002 -0.7696  0.7582 -0.0727
  171SAPS  H12A19352   0.545   4.846   7.081  1.6671  0.0973  1.9306
  171SAPS   C1319353   0.572   5.029   6.991  0.3860  0.5971 -0.0507
  171SAPS  O13A19354   0.660   5.120   7.007 -0.7563 -0.1922  0.5786
  171SAPS  O13B19355   0.460   5.069   6.946 -0.4303  0.4397  0.2228
  171SAPS   C1119356   0.602   4.820   6.855 -0.0983 -0.4246 -0.4306
  171SAPS  H11A19357   0.667   4.884   6.792  0.4290 -0.2738  0.2585
  171SAPS  H11B19358   0.502   4.840   6.811  0.2588  1.0584 -0.6110
  171SAPS     P19359   0.561   4.565   6.826 -0.0003  0.1266  0.0628
  171SAPS   O1319360   0.635   4.439   6.824 -0.1161 -0.2445  0.1686
  171SAPS   O1419361   0.462   4.577   6.934  0.2616 -0.0450 -0.0825
  171SAPS   O1219362   0.659   4.686   6.833  0.2255 -0.0106  0.1739
  171SAPS   O1119363   0.487   4.586   6.686 -0.7262  0.1378 -0.1465
  171SAPS    C119364   0.554   4.658   6.584 -0.2357  0.0015  0.1508
  171SAPS    HA19365   0.525   4.763   6.606 -0.8642 -0.3896  1.3029
  171SAPS    HB19366   0.664   4.641   6.580 -0.0506  0.2630  2.4672
  171SAPS    C219367   0.494   4.617   6.446  0.1298  0.0360  0.6187
  171SAPS    HS19368   0.393   4.662   6.458  1.7765  4.1656  0.7547
  171SAPS   O2119369   0.510   4.479   6.422 -0.4158  0.1669  0.3497
  171SAPS   C2119370   0.400   4.411   6.441  1.3979 -0.3111  0.4213
  171SAPS   O2219371   0.292   4.455   6.478  0.5120 -0.5325  0.3447
  171SAPS   C2219372   0.430   4.266   6.413  0.1238 -0.6694  0.0879
  171SAPS   H2R19373   0.513   4.243   6.483  1.6147 -1.3203 -1.8151
  171SAPS   H2S19374   0.340   4.211   6.451 -1.2210  2.2449  1.4656
  171SAPS    C319375   0.558   4.707   6.342  0.4348 -0.8255  0.1069
  171SAPS    HX19376   0.667   4.690   6.334  0.5252 -0.6769  0.9264
  171SAPS    HY19377   0.543   4.813   6.372  1.2594 -0.5881 -0.3010
  171SAPS   O3119378   0.492   4.698   6.213  0.0972  1.0885 -0.0117
  171SAPS   C3119379   0.367   4.734   6.191  0.3973  1.1678  0.1429
  171SAPS   O3219380   0.284   4.759   6.274 -0.0125  0.1527 -0.1393
  171SAPS   C3219381   0.346   4.753   6.039 -0.3706  0.4120 -0.4130
  171SAPS   H2X19382   0.445   4.767   5.989 -0.2751 -0.1485 -0.3914
  171SAPS   H2Y19383   0.298   4.853   6.038  0.3165  0.7870  1.1530
  171SAPS   C2319384   0.480   4.232   6.271 -0.0848 -0.0735  0.4278
  171SAPS   H3R19385   0.508   4.125   6.262 -0.6083 -0.1281 -0.6169
  171SAPS   H3S19386   0.569   4.297   6.259 -0.5411  0.2063 -1.7536
  171SAPS   C2419387   0.376   4.252   6.158  0.1723 -0.2625 -0.3645
  171SAPS   H4R19388   0.330   4.351   6.176  0.9067  0.0781 -0.2993
  171SAPS   H4S19389   0.306   4.168   6.172  1.9436 -2.0950 -1.7659
  171SAPS   C2519390   0.449   4.250   6.027 -0.2987  0.3487 -0.2512
  171SAPS   H5R19391   0.558   4.235   6.029  0.0478  2.4741  1.6897
  171SAPS   C2619392   0.389   4.261   5.909 -0.1053  0.5736 -0.2964
  171SAPS   H6R19393   0.450   4.266   5.818  2.0975 -1.0932  0.9908
  171SAPS   C2719394   0.239   4.286   5.884 -0.0852  0.1336 -0.2093
  171SAPS   H7R19395   0.225   4.379   5.826  2.2459  0.4364 -0.3774
  171SAPS   H7S19396   0.192   4.322   5.978  1.0741  1.0617  0.0443
  171SAPS   C2819397   0.183   4.158   5.821 -0.3525 -0.7208 -0.3198
  171SAPS   H8R19398   0.214   4.065   5.871 -0.4512 -1.1986 -1.1353
  171SAPS   C2919399   0.115   4.148   5.709  0.3602  0.2334  0.9270
  171SAPS   H9R19400   0.077   4.049   5.677 -0.3124  0.6915  0.2628
  171SAPS  C21019401   0.089   4.261   5.605  0.2171  0.1234 -0.3672
  171SAPS  H10R19402   0.078   4.211   5.507  1.1551 -3.7420  1.3058
  171SAPS  H10S19403   0.180   4.325   5.597  1.0407 -0.9065  0.4240
  171SAPS  C21119404  -0.032   4.342   5.641 -0.0749 -0.1880 -0.3623
  171SAPS  H11R19405  -0.026   4.396   5.736 -1.2181 -0.5353 -0.0779
  171SAPS  C21219406  -0.149   4.365   5.574 -0.0446  0.0347 -0.3562
  171SAPS  H12R19407  -0.233   4.416   5.623 -0.4953 -0.8539 -0.2015
  171SAPS  C21319408  -0.187   4.311   5.437 -0.0214 -0.0138  1.1019
  171SAPS  H13R19409  -0.296   4.321   5.418  0.1462  0.4914  0.3863
  171SAPS  H13S19410  -0.175   4.200   5.439  0.3830 -0.0254 -0.6826
  171SAPS  C21419411  -0.114   4.380   5.325 -0.0141 -0.0821 -0.2866
  171SAPS  H14R19412  -0.078   4.480   5.350 -3.5020  1.0046  1.0934
  171SAPS  C21519413  -0.084   4.333   5.203  0.2555 -0.0910 -0.0365
  171SAPS  H15R19414  -0.030   4.398   5.133 -2.0035  1.3672 -0.5497
  171SAPS  C21619415  -0.111   4.188   5.161  0.1673  0.7393 -0.2330
  171SAPS  H16R19416  -0.216   4.156   5.141  0.7285 -0.5795 -1.1805
  171SAPS  H16S19417  -0.067   4.134   5.247 -1.9359  2.0342  1.7730
  171SAPS  C21719418  -0.030   4.148   5.033  0.4090  0.7459  0.2826
  171SAPS  H17R19419   0.072   4.188   5.051  0.1613  0.7970  1.7634
  171SAPS  H17S19420  -0.076   4.205   4.950 -1.2549  0.1488  0.7360
  171SAPS  C21819421  -0.042   4.001   5.000 -0.3364  0.1091 -0.3542
  171SAPS  H18R19422  -0.146   3.964   5.011  0.4716 -1.8062  1.5331
  171SAPS  H18S19423   0.016   3.945   5.076  1.0316  1.2947 -0.4992
  171SAPS  C21919424   0.023   3.962   4.866  0.0100 -1.1747  0.3931
  171SAPS  H19R19425   0.125   4.003   4.877 -1.3705  2.9315 -0.2327
  171SAPS  H19S19426  -0.031   4.013   4.783 -1.8791 -1.2253  1.5138
  171SAPS  C22019427   0.025   3.808   4.841  0.6982 -0.2036  0.1933
  171SAPS  H20R19428  -0.056   3.786   4.768 -1.1696  3.1786  0.9974
  171SAPS  H20S19429   0.010   3.758   4.939  1.7859  0.6045  0.7916
  171SAPS  H20T19430   0.125   3.774   4.810  0.0220 -1.1966 -0.9800
  171SAPS   C3319431   0.269   4.647   5.949 -0.1371  0.2570 -0.6462
  171SAPS   H3X19432   0.159   4.661   5.956 -0.3515 -1.1294 -0.7746
  171SAPS   H3Y19433   0.302   4.545   5.980  1.5503  0.9185 -0.1517
  171SAPS   C3419434   0.315   4.669   5.804 -0.3875 -0.0620 -0.1907
  171SAPS   H4X19435   0.329   4.779   5.795 -0.4178 -0.1268 -1.1170
  171SAPS   H4Y19436   0.236   4.643   5.731  1.1273 -2.2332 -1.1647
  171SAPS   C3519437   0.443   4.591   5.770  0.2618 -0.2463 -0.3931
  171SAPS   H5X19438   0.419   4.486   5.746  1.8529 -1.1825  1.7702
  171SAPS   H5Y19439   0.517   4.602   5.853  1.2175 -0.0208 -1.2603
  171SAPS   C3619440   0.531   4.643   5.653  0.4267 -0.1757  0.2218
  171SAPS   H6X19441   0.469   4.676   5.567  0.8388  1.9126  0.6618
  171SAPS   H6Y19442   0.611   4.570   5.628  0.7008  0.3255 -0.3990
  171SAPS   C3719443   0.594   4.779   5.685 -0.1660 -0.4866 -0.0451
  171SAPS   H7X19444   0.651   4.771   5.780  0.1986 -0.2801 -0.2424
  171SAPS   H7Y19445   0.517   4.859   5.687  0.6725  0.3403 -0.1439
  171SAPS   C3819446   0.694   4.813   5.580 -0.4387  0.5162  0.4437
  171SAPS   H8X19447   0.753   4.720   5.567 -1.0860  0.3266 -1.3098
  171SAPS   H8Y19448   0.768   4.889   5.612 -0.5569  0.2920  1.2695
  171SAPS   C3919449   0.635   4.874   5.442 -0.0153 -0.4738 -0.4878
  171SAPS   H9X19450   0.561   4.955   5.460  0.7994  0.0246  0.7218
  171SAPS   H9Y19451   0.571   4.803   5.385 -1.6160 -0.1834  0.8721
  171SAPS  C31019452   0.754   4.934   5.366 -0.1339  0.0030  0.1136
  171SAPS  H10X19453   0.824   4.850   5.350  1.1007  0.9458  0.4224
  171SAPS  H10Y19454   0.815   5.002   5.430  0.2743 -0.0750 -0.1913
  171SAPS  C31119455   0.717   5.014   5.235  0.6524  0.9460  0.1627
  171SAPS  H11X19456   0.641   4.962   5.173  0.4978  1.3786 -0.0096
  171SAPS  H11Y19457   0.810   5.025   5.176 -0.9779 -0.9907 -3.0194
  171SAPS  C31219458   0.660   5.155   5.269 -0.4473  0.7902  0.4832
  171SAPS  H12X19459   0.735   5.215   5.325  2.4175 -1.3000 -0.8930
  171SAPS  H12Y19460   0.574   5.145   5.339 -1.9255  3.1756 -0.8392
  171SAPS  C31319461   0.612   5.235   5.145  0.2107 -0.2178 -0.2196
  171SAPS  H13X19462   0.557   5.324   5.182 -0.4731 -0.5156 -0.4892
  171SAPS  H13Y19463   0.527   5.174   5.106 -2.8721  0.9943  3.8810
  171SAPS  C31419464   0.718   5.267   5.040  0.1709 -0.1005 -0.4766
  171SAPS  H14X19465   0.662   5.333   4.970  1.3590  1.1788 -0.2544
  171SAPS  H14Y19466   0.759   5.190   4.971  0.1080 -0.5322 -0.0368
  171SAPS  C31519467   0.832   5.355   5.104 -0.3995  0.3871 -0.1296
  171SAPS  H15X19468   0.888   5.302   5.184 -1.2296  1.3234  1.1233
  171SAPS  H15Y19469   0.787   5.449   5.143 -0.8307  1.2587 -2.5421
  171SAPS  C31619470   0.934   5.401   4.988  0.4046  0.4072 -0.7073
  171SAPS  H16X19471   0.961   5.312   4.927 -2.2938 -0.9574 -0.0674
  171SAPS  H16Y19472   1.016   5.448   5.045  0.4569  0.3784 -0.7588
  171SAPS  C31719473   0.877   5.503   4.895 -0.0236 -0.4559 -0.5923
  171SAPS  H17X19474   0.858   5.595   4.954  0.5506 -1.1713  0.7296
  171SAPS  H17Y19475   0.779   5.476   4.849 -0.4914  1.7188 -0.9685
  171SAPS  C31819476   0.974   5.546   4.791 -0.4304 -0.7486  0.0394
  171SAPS  H18X19477   1.064   5.599   4.829 -0.2733 -0.0244 -1.2647
  171SAPS  H18Y19478   0.921   5.607   4.714  0.6543 -1.1099 -1.0080
  171SAPS  H18Z19479   1.017   5.457   4.740 -1.6204 -1.2860 -0.0575
  172SAPS     N19480   1.233   6.391   6.903 -0.4488  0.4203 -0.3747
  172SAPS   HN119481   1.261   6.414   7.001 -1.9839  1.2093 -0.0954
  172SAPS   HN219482   1.319   6.383   6.845 -0.2812 -0.5814 -0.0022
  172SAPS   HN319483   1.176   6.473   6.874 -2.5481 -0.7486  0.2639
  172SAPS   C1219484   1.147   6.268   6.904 -0.0042 -0.0246 -0.2765
  172SAPS  H12A19485   1.188   6.203   6.980 -1.0018  0.4184  0.6558
  172SAPS   C1319486   0.999   6.281   6.940  0.1715  0.0554 -0.4357
  172SAPS  O13A19487   0.958   6.386   6.989  0.2896  0.7515  0.4870
  172SAPS  O13B19488   0.942   6.172   6.963 -0.3345 -0.2497 -0.0953
  172SAPS   C1119489   1.151   6.192   6.770 -0.2700  0.4133  0.7343
  172SAPS  H11A19490   1.110   6.255   6.687  0.4843  1.4923  1.1480
  172SAPS  H11B19491   1.087   6.102   6.778  2.4771 -2.1855 -2.8459
  172SAPS     P19492   1.336   6.008   6.743  0.5379 -0.0914 -0.0655
  172SAPS   O1319493   1.468   6.007   6.687  0.8028  0.3387 -0.1091
  172SAPS   O1419494   1.319   5.938   6.875 -0.4068 -0.6802  0.5971
  172SAPS   O1219495   1.282   6.158   6.746 -0.3809  0.3262  0.7559
  172SAPS   O1119496   1.245   5.933   6.642  0.1333 -0.3185 -0.2312
  172SAPS    C119497   1.189   5.987   6.520 -0.1270 -0.1907  0.0081
  172SAPS    HA19498   1.080   5.973   6.502 -0.1427  2.1292 -2.2657
  172SAPS    HB19499   1.206   6.097   6.510 -0.2961 -0.3090 -1.8976
  172SAPS    C219500   1.252   5.920   6.401 -0.2840 -0.4177 -0.1324
  172SAPS    HS19501   1.198   5.955   6.311  0.9760  0.4259 -0.5799
  172SAPS   O2119502   1.250   5.776   6.419  0.8442 -0.6170 -0.2042
  172SAPS   C2119503   1.138   5.716   6.364 -0.6327 -0.5867  0.4950
  172SAPS   O2219504   1.045   5.775   6.309 -0.3703  0.1947  0.2943
  172SAPS   C2219505   1.167   5.567   6.366 -0.9320 -0.3826 -0.2771
  172SAPS   H2R19506   1.268   5.546   6.325 -0.5830  2.5023 -1.1828
  172SAPS   H2S19507   1.173   5.540   6.474 -1.4668  1.6075  0.2971
  172SAPS    C319508   1.405   5.958   6.390 -0.3585  0.4284  0.3203
  172SAPS    HX19509   1.461   5.898   6.466  1.5393  3.2694  1.3371
  172SAPS    HY19510   1.419   6.066   6.412 -1.1261  0.3208  1.4233
  172SAPS   O3119511   1.448   5.921   6.251  0.2629 -0.2592  0.5763
  172SAPS   C3119512   1.510   5.818   6.226 -0.3307  0.4077  0.2834
  172SAPS   O3219513   1.547   5.726   6.295 -0.7798 -0.3954 -0.2109
  172SAPS   C3219514   1.536   5.807   6.070 -0.6877  0.3223  0.1808
  172SAPS   H2X19515   1.555   5.700   6.045  0.0270  1.1070 -3.0433
  172SAPS   H2Y19516   1.628   5.865   6.049 -0.3547 -0.8386 -1.8719
  172SAPS   C2319517   1.056   5.487   6.310  0.6008 -0.4027 -1.2719
  172SAPS   H3R19518   1.065   5.499   6.200  0.1404 -1.3656 -1.4266
  172SAPS   H3S19519   0.967   5.529   6.361  1.7364 -2.0693  2.5033
  172SAPS   C2419520   1.055   5.338   6.346  0.0316 -0.4386 -0.4697
  172SAPS   H4R19521   1.092   5.315   6.449  2.8296  1.3748 -0.9520
  172SAPS   H4S19522   1.138   5.304   6.280 -0.7608 -1.4372 -0.9781
  172SAPS   C2519523   0.933   5.258   6.317 -0.6484  0.9734  0.9566
  172SAPS   H5R19524   0.840   5.313   6.298 -2.2964 -2.0606 -0.3784
  172SAPS   C2619525   0.934   5.124   6.290 -0.3051  0.0307 -0.1277
  172SAPS   H6R19526   0.836   5.080   6.267  0.7477 -1.8089 -1.3769
  172SAPS   C2719527   1.059   5.034   6.270 -0.2119 -0.3753 -0.9047
  172SAPS   H7R19528   1.135   5.060   6.346  0.1210 -0.8716 -1.0556
  172SAPS   H7S19529   1.101   5.065   6.172 -1.6884  0.7155 -1.2245
  172SAPS   C2819530   1.043   4.885   6.254 -0.1478 -0.0597  0.5195
  172SAPS   H8R19531   1.086   4.821   6.333  0.5991  1.8925  1.7533
  172SAPS   C2919532   0.995   4.830   6.141  0.0253  0.6482  0.8978
  172SAPS   H9R19533   0.975   4.722   6.134  1.7220  0.3123  0.9180
  172SAPS  C21019534   0.946   4.912   6.024  0.6040 -0.4583 -0.1305
  172SAPS  H10R19535   1.010   4.899   5.934 -0.2891  1.1586 -1.0545
  172SAPS  H10S19536   0.950   5.021   6.046 -0.1595 -0.3110 -0.7045
  172SAPS  C21119537   0.800   4.880   6.005  0.3195  0.3892  0.0435
  172SAPS  H11R19538   0.773   4.773   6.011 -1.2337  0.7540 -0.2403
  172SAPS  C21219539   0.700   4.957   5.974  0.2815 -0.9023 -0.9372
  172SAPS  H12R19540   0.610   4.908   5.935  0.8345 -0.3918 -2.9697
  172SAPS  C21319541   0.700   5.107   5.958 -0.3205  0.3934 -0.0782
  172SAPS  H13R19542   0.780   5.151   6.022  0.4923  1.2267 -1.5935
  172SAPS  H13S19543   0.606   5.159   5.985  0.5556  3.2144 -1.9643
  172SAPS  C21419544   0.728   5.154   5.818 -0.2881 -0.0672  0.0973
  172SAPS  H14R19545   0.835   5.178   5.804 -0.3054  0.1200  0.2938
  172SAPS  C21519546   0.641   5.164   5.712 -0.1493 -0.6133 -0.8939
  172SAPS  H15R19547   0.676   5.197   5.613 -1.8764  0.4187 -1.2199
  172SAPS  C21619548   0.495   5.136   5.725 -0.1249 -0.4348  0.6979
  172SAPS  H16R19549   0.474   5.075   5.815  0.3953 -2.7186 -0.6239
  172SAPS  H16S19550   0.468   5.069   5.640  1.3116 -0.5223  0.2806
  172SAPS  C21719551   0.408   5.260   5.699  0.0256  0.6540  0.6064
  172SAPS  H17R19552   0.449   5.306   5.606  1.3324 -0.3993  0.6407
  172SAPS  H17S19553   0.426   5.338   5.776 -2.1052  0.7094  1.1111
  172SAPS  C21819554   0.263   5.230   5.696 -0.1284  1.6571 -0.0527
  172SAPS  H18R19555   0.220   5.332   5.683  0.7913  2.4341  2.4184
  172SAPS  H18S19556   0.209   5.193   5.786 -0.4698 -0.5992 -1.1149
  172SAPS  C21919557   0.216   5.144   5.571  0.3107  0.3360 -0.6914
  172SAPS  H19R19558   0.106   5.130   5.579  0.3492  0.3414 -0.0984
  172SAPS  H19S19559   0.256   5.041   5.586 -3.1013 -1.2461 -1.5217
  172SAPS  C22019560   0.251   5.201   5.437 -0.4769  0.3316 -0.2503
  172SAPS  H20R19561   0.241   5.119   5.363  0.4387  1.5075 -1.7484
  172SAPS  H20S19562   0.354   5.242   5.442 -0.5113  0.3585  3.5156
  172SAPS  H20T19563   0.184   5.288   5.417  0.7211  1.5736  0.8994
  172SAPS   C3319564   1.417   5.859   5.992  0.0566  0.0036 -0.0190
  172SAPS   H3X19565   1.447   5.860   5.886  0.2813  1.8011  0.0240
  172SAPS   H3Y19566   1.404   5.966   6.018 -1.5589 -0.1165 -0.2178
  172SAPS   C3419567   1.286   5.775   6.003  0.3374  0.2486  0.1488
  172SAPS   H4X19568   1.214   5.848   5.960  0.7680  0.2007 -0.6993
  172SAPS   H4Y19569   1.263   5.751   6.109  2.1290 -0.0898  0.4934
  172SAPS   C3519570   1.313   5.646   5.922 -0.4507 -0.6347  0.1992
  172SAPS   H5X19571   1.378   5.577   5.981 -0.3031  0.2061  1.0346
  172SAPS   H5Y19572   1.360   5.665   5.823  0.0449  0.1685  0.5799
  172SAPS   C3619573   1.185   5.566   5.902  0.4392 -0.0068 -0.3572
  172SAPS   H6X19574   1.106   5.623   5.850  1.7786  0.7947 -1.5899
  172SAPS   H6Y19575   1.136   5.551   6.001  1.6156  1.9965  0.5861
  172SAPS   C3719576   1.199   5.424   5.841  0.3187  0.4091 -0.1408
  172SAPS   H7X19577   1.275   5.366   5.897 -0.3496  0.0071  0.3691
  172SAPS   H7Y19578   1.246   5.429   5.741  1.7617  0.7123  0.5303
  172SAPS   C3819579   1.078   5.336   5.830  0.1085  0.2158  0.3645
  172SAPS   H8X19580   0.998   5.386   5.771 -1.9357 -1.4560  1.5927
  172SAPS   H8Y19581   1.044   5.314   5.933 -1.3040  0.5387 -0.0058
  172SAPS   C3919582   1.118   5.219   5.744  0.5924  0.8116 -0.6055
  172SAPS   H9X19583   1.052   5.133   5.764 -0.0819  1.1074 -1.5042
  172SAPS   H9Y19584   1.217   5.177   5.772  0.0266 -1.4676 -1.8138
  172SAPS  C31019585   1.101   5.246   5.600  0.0300  0.2390  0.6108
  172SAPS  H10X19586   1.182   5.314   5.567 -1.6816  0.8180 -2.9043
  172SAPS  H10Y19587   1.004   5.291   5.568  0.0085 -1.6468 -2.3140
  172SAPS  C31119588   1.119   5.111   5.527  0.7307  0.6649 -0.3268
  172SAPS  H11X19589   1.029   5.047   5.538  1.5123 -0.7689 -1.8438
  172SAPS  H11Y19590   1.202   5.047   5.564  0.2282 -0.0643 -0.4258
  172SAPS  C31219591   1.135   5.123   5.381  0.2042  0.2622  0.5193
  172SAPS  H12X19592   1.230   5.179   5.368  0.6709 -0.6210  0.0764
  172SAPS  H12Y19593   1.056   5.189   5.340 -0.3249 -1.8187 -2.0390
  172SAPS  C31319594   1.143   4.996   5.301  0.1037  0.2392  0.3265
  172SAPS  H13X19595   1.073   4.918   5.337  0.1284  0.4607  0.8691
  172SAPS  H13Y19596   1.250   4.968   5.310  0.2891  0.6351 -0.5312
  172SAPS  C31419597   1.109   5.022   5.151 -0.1075  0.1275 -0.1045
  172SAPS  H14X19598   1.178   5.102   5.116  0.6257 -0.3514  0.2112
  172SAPS  H14Y19599   1.008   5.063   5.135  0.4794  0.7469 -2.6943
  172SAPS  C31519600   1.135   4.902   5.061 -0.1329  0.0183 -0.4506
  172SAPS  H15X19601   1.079   4.816   5.103  0.6582  0.5180  1.7623
  172SAPS  H15Y19602   1.244   4.877   5.056 -0.1849 -0.5604  0.8967
  172SAPS  C31619603   1.094   4.910   4.910 -0.0894 -0.7153 -0.3631
  172SAPS  H16X19604   0.989   4.942   4.895  0.0809  0.5252  0.8600
  172SAPS  H16Y19605   1.162   4.982   4.859 -0.4488  1.2265  1.7102
  172SAPS  C31719606   1.107   4.780   4.830  0.2689 -0.6500 -0.1916
  172SAPS  H17X19607   1.073   4.803   4.727  0.9101  1.9322  0.1271
  172SAPS  H17Y19608   1.047   4.698   4.877 -0.9346 -0.2045 -0.9134
  172SAPS  C31819609   1.250   4.737   4.807  0.2516  0.5269 -0.0212
  172SAPS  H18X19610   1.257   4.655   4.732 -2.7406 -0.4456  0.6462
  172SAPS  H18Y19611   1.299   4.701   4.900 -1.3843  0.1295  0.7126
  172SAPS  H18Z19612   1.307   4.813   4.749  0.4844  0.9851  0.7882
  173SAPS     N19613   3.353   5.321   1.681 -0.7186 -0.5397  0.7004
  173SAPS   HN119614   3.334   5.234   1.734 -1.5895  0.5862  2.3397
  173SAPS   HN219615   3.343   5.312   1.578  1.6248 -0.3073  0.3908
  173SAPS   HN319616   3.441   5.367   1.713 -1.5115 -0.0209  2.2030
  173SAPS   C1219617   3.256   5.424   1.725  0.0470  0.2782 -0.2446
  173SAPS  H12A19618   3.275   5.517   1.672 -1.2740  0.6997  0.0003
  173SAPS   C1319619   3.114   5.380   1.689 -0.1252 -0.5346  0.5367
  173SAPS  O13A19620   3.094   5.279   1.611 -0.5559  0.2697 -0.3141
  173SAPS  O13B19621   3.015   5.457   1.717 -0.0045  0.1408 -0.1091
  173SAPS   C1119622   3.263   5.451   1.884  0.2230  0.0593 -0.1650
  173SAPS  H11A19623   3.240   5.355   1.936  0.6700 -0.9016 -1.6971
  173SAPS  H11B19624   3.179   5.515   1.920  1.2057  2.1358 -1.3867
  173SAPS     P19625   3.513   5.425   1.977 -0.2879  0.2004  0.1974
  173SAPS   O1319626   3.562   5.338   1.869  0.4505 -0.1187 -0.0126
  173SAPS   O1419627   3.608   5.516   2.046 -0.3163 -0.3479  0.4381
  173SAPS   O1219628   3.391   5.505   1.926 -0.2843 -0.3192  0.0020
  173SAPS   O1119629   3.443   5.348   2.091 -0.6159  0.0316  0.0917
  173SAPS    C119630   3.421   5.418   2.215  0.3523 -0.8789  0.2189
  173SAPS    HA19631   3.451   5.525   2.210 -0.4442 -0.6905 -2.7033
  173SAPS    HB19632   3.310   5.420   2.229  0.1443  2.1653 -0.9236
  173SAPS    C219633   3.492   5.357   2.331 -0.1686 -0.2439  0.2764
  173SAPS    HS19634   3.595   5.393   2.312 -0.4679  0.2549 -0.4700
  173SAPS   O2119635   3.484   5.216   2.325 -0.1774  0.0988 -0.6664
  173SAPS   C2119636   3.588   5.159   2.372 -0.1925  0.3533  0.4980
  173SAPS   O2219637   3.699   5.207   2.391 -0.2785 -0.2324 -0.9119
  173SAPS   C2219638   3.547   5.011   2.411 -0.2517 -0.2581 -0.0534
  173SAPS   H2R19639   3.444   5.022   2.453  0.4536  1.6033  1.3597
  173SAPS   H2S19640   3.542   4.960   2.313 -1.5782 -1.9104  0.8196
  173SAPS    C319641   3.447   5.425   2.467  0.6286  0.7452  0.8001
  173SAPS    HX19642   3.339   5.405   2.483  0.5605 -1.1688 -1.4983
  173SAPS    HY19643   3.461   5.535   2.466  2.0842  0.6110  2.1945
  173SAPS   O3119644   3.511   5.361   2.581 -0.1426  0.0784  0.1956
  173SAPS   C3119645   3.622   5.422   2.615  0.2183  0.2623  0.2832
  173SAPS   O3219646   3.673   5.523   2.565  0.4918 -0.0174 -0.3284
  173SAPS   C3219647   3.660   5.353   2.749 -0.9249 -0.2188  0.6875
  173SAPS   H2X19648   3.675   5.244   2.732 -0.8685 -0.1576  0.3355
  173SAPS   H2Y19649   3.580   5.363   2.826 -0.4608 -1.0290  1.2872
  173SAPS   C2319650   3.657   4.944   2.495  0.0425 -0.0797  0.2380
  173SAPS   H3R19651   3.668   4.994   2.594  0.6757  2.1877 -0.9206
  173SAPS   H3S19652   3.753   4.941   2.439  1.3525 -0.7131  2.3944
  173SAPS   C2419653   3.626   4.791   2.530 -0.0549 -0.6802  0.7260
  173SAPS   H4R19654   3.720   4.759   2.580  0.1425 -0.5911  0.4189
  173SAPS   H4S19655   3.620   4.740   2.431  2.2832  0.1777  0.0536
  173SAPS   C2519656   3.491   4.769   2.598 -0.3249  0.1286  0.2258
  173SAPS   H5R19657   3.399   4.775   2.538 -1.6271  1.6233  2.2473
  173SAPS   C2619658   3.478   4.742   2.726  0.3824  0.3595 -0.3540
  173SAPS   H6R19659   3.375   4.727   2.762  0.9019 -1.5728  0.5110
  173SAPS   C2719660   3.579   4.713   2.835  0.0930  0.1459 -0.4760
  173SAPS   H7R19661   3.670   4.771   2.808  0.7924 -0.5331  0.3879
  173SAPS   H7S19662   3.590   4.603   2.835 -1.7059 -0.0626 -0.7916
  173SAPS   C2819663   3.538   4.759   2.972  0.6702  1.1595 -0.3178
  173SAPS   H8R19664   3.539   4.866   2.997 -3.6660  1.1096  0.9678
  173SAPS   C2919665   3.475   4.682   3.058 -0.0375  0.0636 -0.0618
  173SAPS   H9R19666   3.448   4.735   3.150 -0.6270  2.3308 -1.4487
  173SAPS  C21019667   3.457   4.527   3.066 -0.4370  0.3968  0.3506
  173SAPS  H10R19668   3.487   4.475   2.973  0.5301  0.1642  0.7800
  173SAPS  H10S19669   3.349   4.512   3.085 -0.6273 -0.5265 -1.3388
  173SAPS  C21119670   3.524   4.479   3.190  0.1901  0.2480 -0.0457
  173SAPS  H11R19671   3.475   4.510   3.283 -0.4274 -3.5568  1.0388
  173SAPS  C21219672   3.632   4.405   3.195 -0.6411 -0.3912  0.0363
  173SAPS  H12R19673   3.672   4.378   3.294  1.5421 -2.2285 -1.2457
  173SAPS  C21319674   3.715   4.356   3.082 -0.1808  0.1826 -0.0801
  173SAPS  H13R19675   3.641   4.323   3.006 -0.2673 -0.9519  0.4816
  173SAPS  H13S19676   3.784   4.278   3.120 -0.2294  1.4697  2.9315
  173SAPS  C21419677   3.809   4.464   3.020  0.1142 -0.5207 -0.4984
  173SAPS  H14R19678   3.786   4.564   3.058  0.4498 -0.5953 -0.0944
  173SAPS  C21519679   3.907   4.439   2.933  0.1680 -0.4337 -0.7247
  173SAPS  H15R19680   3.971   4.524   2.904 -0.0744 -0.3907 -1.1376
  173SAPS  C21619681   3.953   4.300   2.890  0.4972 -0.4595  0.6514
  173SAPS  H16R19682   3.876   4.234   2.846 -0.0853 -0.2792  1.3813
  173SAPS  H16S19683   3.980   4.237   2.977 -0.3341 -0.6398  0.7838
  173SAPS  C21719684   4.065   4.310   2.792 -0.4594  0.5842  0.3230
  173SAPS  H17R19685   4.161   4.352   2.827  0.3556 -0.4032 -0.6365
  173SAPS  H17S19686   4.032   4.366   2.701 -3.0212  0.1905  0.9267
  173SAPS  C21819687   4.085   4.161   2.743  0.2260 -0.1871 -0.0683
  173SAPS  H18R19688   3.996   4.132   2.684  0.3394  1.1440 -0.9352
  173SAPS  H18S19689   4.084   4.101   2.836 -0.4591 -1.6599 -0.9935
  173SAPS  C21919690   4.204   4.137   2.657 -0.2008 -0.0638  0.0560
  173SAPS  H19R19691   4.207   4.036   2.611  2.0136 -0.8294  1.6841
  173SAPS  H19S19692   4.300   4.151   2.710  1.2111  0.6251 -2.5431
  173SAPS  C22019693   4.197   4.234   2.537  0.4228  0.0720 -0.5212
  173SAPS  H20R19694   4.100   4.220   2.486  0.2690 -0.7953 -0.0102
  173SAPS  H20S19695   4.277   4.211   2.463 -0.5700 -1.0136 -1.3072
  173SAPS  H20T19696   4.203   4.341   2.565 -1.6905  0.1793 -0.3456
  173SAPS   C3319697   3.790   5.405   2.802  0.0217  0.4503 -0.8184
  173SAPS   H3X19698   3.778   5.502   2.854 -0.2080  0.4236 -0.8209
  173SAPS   H3Y19699   3.857   5.418   2.714 -0.9597  1.4049 -1.4414
  173SAPS   C3419700   3.865   5.315   2.904 -0.2489  0.3464 -0.1395
  173SAPS   H4X19701   3.882   5.220   2.848  0.7891  0.1906  0.4114
  173SAPS   H4Y19702   3.796   5.293   2.988  0.7102 -1.1686  0.2829
  173SAPS   C3519703   3.980   5.388   2.965  0.4797 -0.7329 -0.2748
  173SAPS   H5X19704   3.967   5.498   2.974 -0.3856 -0.8336 -0.1538
  173SAPS   H5Y19705   4.069   5.375   2.900  0.7148 -1.4644  0.1780
  173SAPS   C3619706   4.024   5.313   3.091  0.3322 -0.2139  0.4162
  173SAPS   H6X19707   4.044   5.207   3.069  1.3138  0.0994 -0.2479
  173SAPS   H6Y19708   3.940   5.315   3.164  0.1973 -1.1709  0.3000
  173SAPS   C3719709   4.159   5.366   3.162  0.6515 -0.3806  0.4117
  173SAPS   H7X19710   4.228   5.355   3.075  0.1887 -1.6034  0.1795
  173SAPS   H7Y19711   4.184   5.286   3.235 -1.4654  0.1559  1.8105
  173SAPS   C3819712   4.136   5.505   3.220  0.3711  0.7122 -0.1564
  173SAPS   H8X19713   4.060   5.562   3.163  0.5805  0.7181 -0.4324
  173SAPS   H8Y19714   4.228   5.568   3.215  0.3181  0.9595  1.4704
  173SAPS   C3919715   4.107   5.505   3.372  0.6212 -0.4472 -0.2151
  173SAPS   H9X19716   4.024   5.432   3.380  0.3663 -0.0146  1.4130
  173SAPS   H9Y19717   4.071   5.603   3.409  0.8183 -0.6942  0.6342
  173SAPS  C31019718   4.231   5.473   3.453 -0.5927  0.3997  0.1636
  173SAPS  H10X19719   4.302   5.556   3.433 -1.1193  0.6269 -0.8719
  173SAPS  H10Y19720   4.277   5.380   3.412 -0.2577  1.4788 -2.0787
  173SAPS  C31119721   4.215   5.458   3.604 -0.2577 -0.5334 -0.5901
  173SAPS  H11X19722   4.131   5.388   3.622 -0.6795 -0.0539 -0.6970
  173SAPS  H11Y19723   4.191   5.554   3.654  1.8905  0.2996 -1.0588
  173SAPS  C31219724   4.343   5.406   3.672  0.3100  0.1231  0.7361
  173SAPS  H12X19725   4.430   5.474   3.664  0.4426 -0.1009  0.2130
  173SAPS  H12Y19726   4.371   5.315   3.614 -4.7334 -0.4366 -1.3573
  173SAPS  C31319727   4.305   5.352   3.817 -0.4835 -0.0101  0.2390
  173SAPS  H13X19728   4.214   5.288   3.807 -0.5039  0.2306 -1.3556
  173SAPS  H13Y19729   4.281   5.439   3.881  1.7308 -0.9953  2.5827
  173SAPS  C31419730   4.415   5.263   3.876 -0.1079  0.1114 -0.3378
  173SAPS  H14X19731   4.520   5.288   3.847 -0.5179  0.3824 -1.6445
  173SAPS  H14Y19732   4.394   5.163   3.833  3.0680 -0.5142 -0.7193
  173SAPS  C31519733   4.411   5.260   4.030 -0.6857  0.3758  0.2601
  173SAPS  H15X19734   4.309   5.225   4.060 -0.4440 -1.4272 -0.8981
  173SAPS  H15Y19735   4.440   5.363   4.060  0.5563  0.5905 -1.5363
  173SAPS  C31619736   4.511   5.161   4.082  0.5915 -0.0409  0.1726
  173SAPS  H16X19737   4.527   5.176   4.191  0.6277 -1.6216  0.4080
  173SAPS  H16Y19738   4.610   5.161   4.033  0.5416 -2.0074 -0.0175
  173SAPS  C31719739   4.457   5.023   4.070 -0.0241  0.0615 -0.1939
  173SAPS  H17X19740   4.541   4.951   4.056  0.1333  0.3547 -0.7923
  173SAPS  H17Y19741   4.401   5.014   3.974 -0.3566  1.0720 -0.1048
  173SAPS  C31819742   4.379   4.980   4.189  0.3626  0.2469  0.0621
  173SAPS  H18X19743   4.433   4.991   4.285  1.1122 -0.6879 -0.2407
  173SAPS  H18Y19744   4.352   4.872   4.188 -0.5019  0.4565  0.0609
  173SAPS  H18Z19745   4.288   5.042   4.204  1.3516  1.1655  2.8568
  174SAPS     N19746   0.550   3.196   1.788  0.5628 -0.4404 -0.4713
  174SAPS   HN119747   0.534   3.218   1.688  2.4668  0.7796 -0.5664
  174SAPS   HN219748   0.559   3.283   1.844  2.2160 -1.3166  0.7247
  174SAPS   HN319749   0.641   3.146   1.797  0.1416 -0.9309  1.9352
  174SAPS   C1219750   0.445   3.110   1.844 -0.6511  0.3185  1.0555
  174SAPS  H12A19751   0.357   3.167   1.820 -0.6451  0.2752  0.9335
  174SAPS   C1319752   0.426   2.970   1.767 -1.1795 -0.1541 -0.6910
  174SAPS  O13A19753   0.487   2.965   1.655  0.3422 -0.1516 -0.8900
  174SAPS  O13B19754   0.336   2.894   1.802 -0.2920 -0.1901 -0.1383
  174SAPS   C1119755   0.468   3.089   1.991 -0.4333  0.7477  0.3911
  174SAPS  H11A19756   0.554   3.021   2.006 -0.1154  0.3108 -2.7607
  174SAPS  H11B19757   0.378   3.038   2.032 -0.5969 -0.5726 -1.5005
  174SAPS     P19758   0.387   3.287   2.147  0.0606 -0.0527  0.1953
  174SAPS   O1319759   0.447   3.370   2.257  0.2468 -0.0903  0.4119
  174SAPS   O1419760   0.300   3.347   2.047 -0.2124  0.0998 -0.4261
  174SAPS   O1219761   0.495   3.208   2.070  0.1035 -0.5292  0.4582
  174SAPS   O1119762   0.294   3.176   2.211 -0.1633 -0.5781  0.1593
  174SAPS    C119763   0.339   3.073   2.303 -0.6022 -0.1522 -0.3518
  174SAPS    HA19764   0.281   2.982   2.278  0.1045 -0.6899 -0.0564
  174SAPS    HB19765   0.447   3.051   2.297 -0.6557 -0.4129 -0.3559
  174SAPS    C219766   0.319   3.096   2.460 -0.0665  0.0002 -0.3138
  174SAPS    HS19767   0.339   3.002   2.516 -2.0880 -0.8735 -0.9683
  174SAPS   O2119768   0.187   3.138   2.493 -1.0551 -0.5638  0.4123
  174SAPS   C2119769   0.100   3.034   2.480  0.4635 -0.0085  0.3936
  174SAPS   O2219770   0.127   2.924   2.435 -0.0831  0.2423  0.3760
  174SAPS   C2219771  -0.031   3.085   2.542  0.5924 -0.3024 -0.3364
  174SAPS   H2R19772  -0.052   3.185   2.496  0.9590  1.1423  2.4332
  174SAPS   H2S19773  -0.114   3.013   2.526  0.4728 -0.6876  1.7550
  174SAPS    C319774   0.414   3.204   2.514  0.8119  0.2130 -0.2832
  174SAPS    HX19775   0.382   3.304   2.477  3.2376  0.1930 -2.7708
  174SAPS    HY19776   0.508   3.199   2.454  0.6729 -1.2515 -0.4014
  174SAPS   O3119777   0.456   3.185   2.649 -0.0170 -0.4406  0.5706
  174SAPS   C3119778   0.516   3.290   2.703 -0.6392  0.5160 -0.0024
  174SAPS   O3219779   0.552   3.388   2.643  0.6277 -0.6498  0.4960
  174SAPS   C3219780   0.546   3.259   2.844 -0.4941  0.6538  0.2597
  174SAPS   H2X19781   0.644   3.301   2.874  0.0445 -0.0045 -0.5399
  174SAPS   H2Y19782   0.550   3.148   2.845 -0.8328  0.6333 -0.3775
  174SAPS   C2319783  -0.025   3.115   2.692 -0.1460 -0.4581  0.4233
  174SAPS   H3R19784   0.053   3.188   2.723 -1.5794  0.6960  1.4790
  174SAPS   H3S19785   0.002   3.021   2.744  2.2861 -0.8898 -1.4324
  174SAPS   C2419786  -0.168   3.171   2.731 -0.4513 -0.5926 -0.4461
  174SAPS   H4R19787  -0.240   3.096   2.691 -0.4215 -0.8167 -0.0877
  174SAPS   H4S19788  -0.191   3.264   2.676 -0.2863 -0.6081 -0.5409
  174SAPS   C2519789  -0.183   3.202   2.879  0.4373  0.2183 -0.0722
  174SAPS   H5R19790  -0.165   3.309   2.899 -2.4028  0.8180 -0.3295
  174SAPS   C2619791  -0.213   3.109   2.974  0.1689  0.4962 -0.0525
  174SAPS   H6R19792  -0.236   3.136   3.078  0.5815  2.1284 -0.3589
  174SAPS   C2719793  -0.241   2.964   2.934 -0.1787  0.6853  0.4939
  174SAPS   H7R19794  -0.166   2.902   2.987 -0.0165  1.7865  1.5994
  174SAPS   H7S19795  -0.225   2.943   2.827 -3.6992 -1.0638  0.1742
  174SAPS   C2819796  -0.385   2.928   2.970 -0.2001  0.7302 -1.0865
  174SAPS   H8R19797  -0.465   2.984   2.919  0.7193  1.5190 -1.6928
  174SAPS   C2919798  -0.424   2.826   3.051  0.2465 -0.5061 -0.3566
  174SAPS   H9R19799  -0.529   2.806   3.076  0.7642 -1.9505  0.8403
  174SAPS  C21019800  -0.319   2.725   3.101  1.0811 -0.3254 -0.2848
  174SAPS  H10R19801  -0.251   2.759   3.182  0.4303 -1.0366  0.5871
  174SAPS  H10S19802  -0.243   2.705   3.023 -0.1547  2.4258 -2.3512
  174SAPS  C21119803  -0.394   2.595   3.137 -0.5573 -0.0317 -0.1893
  174SAPS  H11R19804  -0.391   2.513   3.064  0.0146  0.1383 -0.3647
  174SAPS  C21219805  -0.458   2.565   3.257 -0.0880 -1.0050  0.6716
  174SAPS  H12R19806  -0.507   2.468   3.274  0.3759 -1.1474  1.2570
  174SAPS  C21319807  -0.450   2.658   3.376  0.4072 -0.4931 -0.2068
  174SAPS  H13R19808  -0.427   2.763   3.346  0.1925 -0.5573 -0.6026
  174SAPS  H13S19809  -0.369   2.624   3.444 -2.0451 -1.8422  2.2509
  174SAPS  C21419810  -0.591   2.670   3.443  0.0792  0.0995 -0.4019
  174SAPS  H14R19811  -0.669   2.704   3.374  0.1632  0.0849 -0.5041
  174SAPS  C21519812  -0.616   2.656   3.574 -0.4660  0.1701 -0.2792
  174SAPS  H15R19813  -0.722   2.643   3.602 -0.3791 -0.2228 -0.1341
  174SAPS  C21619814  -0.521   2.600   3.678 -0.6862 -0.1030 -0.0143
  174SAPS  H16R19815  -0.426   2.658   3.675  0.1762 -1.4157  0.6591
  174SAPS  H16S19816  -0.498   2.493   3.660 -1.3010 -0.1272 -0.6772
  174SAPS  C21719817  -0.583   2.609   3.816  0.4534  0.1792 -0.0326
  174SAPS  H17R19818  -0.671   2.545   3.839  1.4877 -1.1336  0.4115
  174SAPS  H17S19819  -0.617   2.714   3.817 -3.3537 -0.8771 -2.1361
  174SAPS  C21819820  -0.474   2.595   3.915 -0.4170  0.3140  0.6694
  174SAPS  H18R19821  -0.403   2.682   3.917 -1.4263  1.1520  1.1393
  174SAPS  H18S19822  -0.414   2.504   3.896 -1.7199 -0.6579  1.1491
  174SAPS  C21919823  -0.524   2.569   4.060  0.0939 -0.2018 -0.4388
  174SAPS  H19R19824  -0.575   2.471   4.067  2.3474 -1.4738 -1.0242
  174SAPS  H19S19825  -0.590   2.652   4.094 -4.1931 -3.9367  1.4192
  174SAPS  C22019826  -0.396   2.554   4.143 -0.2066  0.5659 -0.5802
  174SAPS  H20R19827  -0.330   2.643   4.131  0.9616 -0.0729  0.8102
  174SAPS  H20S19828  -0.340   2.461   4.122 -1.6992 -0.7331  0.8752
  174SAPS  H20T19829  -0.426   2.553   4.250 -1.1552  3.1056 -0.7365
  174SAPS   C3319830   0.437   3.320   2.942  0.2568  1.1087  0.3062
  174SAPS   H3X19831   0.336   3.290   2.909  0.4991 -1.2081  1.4923
  174SAPS   H3Y19832   0.449   3.430   2.932  0.2872  1.0109 -0.8682
  174SAPS   C3419833   0.451   3.263   3.077 -0.0572  0.8445 -0.6279
  174SAPS   H4X19834   0.442   3.153   3.092 -1.1753  1.1190  0.9096
  174SAPS   H4Y19835   0.365   3.305   3.133  0.4866  2.1435 -0.7231
  174SAPS   C3519836   0.568   3.316   3.158  0.8246 -0.2500 -0.8009
  174SAPS   H5X19837   0.561   3.426   3.156 -1.2297 -0.2594  1.0632
  174SAPS   H5Y19838   0.660   3.280   3.108  0.1450 -2.5636 -0.5260
  174SAPS   C3619839   0.562   3.255   3.305 -0.3128 -0.4428 -0.3425
  174SAPS   H6X19840   0.583   3.146   3.297  0.5735 -0.3097 -0.0049
  174SAPS   H6Y19841   0.455   3.269   3.332 -0.4072 -2.8552  0.8020
  174SAPS   C3719842   0.669   3.334   3.389 -0.1167 -0.3734 -0.2322
  174SAPS   H7X19843   0.646   3.443   3.386 -1.6392 -0.6611  0.0464
  174SAPS   H7Y19844   0.768   3.306   3.348  0.3158 -0.6958  1.0121
  174SAPS   C3819845   0.668   3.303   3.544 -0.3761 -0.0998  0.7070
  174SAPS   H8X19846   0.732   3.381   3.592  0.8040 -1.2483  1.0468
  174SAPS   H8Y19847   0.688   3.197   3.568 -0.0829 -0.4163 -0.8707
  174SAPS   C3919848   0.526   3.327   3.609  0.1725  1.0161 -0.4889
  174SAPS   H9X19849   0.455   3.248   3.576 -0.8390  2.3073 -1.5619
  174SAPS   H9Y19850   0.491   3.420   3.560  0.6611  1.3950 -0.1276
  174SAPS  C31019851   0.525   3.336   3.760  0.4123  0.2665  0.1801
  174SAPS  H10X19852   0.424   3.375   3.782 -0.5290 -1.1077 -1.5372
  174SAPS  H10Y19853   0.600   3.412   3.794  0.8429 -0.3513  0.6407
  174SAPS  C31119854   0.549   3.203   3.834 -0.8045  0.1550 -0.2682
  174SAPS  H11X19855   0.651   3.165   3.812 -0.5917 -0.1580  1.1480
  174SAPS  H11Y19856   0.480   3.126   3.795 -0.6680 -0.3316  0.4477
  174SAPS  C31219857   0.542   3.219   3.986 -0.0226  0.3285  0.1753
  174SAPS  H12X19858   0.535   3.114   4.021 -1.9196  0.1923 -0.4729
  174SAPS  H12Y19859   0.441   3.264   3.997 -1.6135 -2.0056 -3.0802
  174SAPS  C31319860   0.650   3.302   4.057 -0.3025  0.0026 -0.2747
  174SAPS  H13X19861   0.662   3.395   3.998  2.8557 -1.8114 -2.8710
  174SAPS  H13Y19862   0.749   3.251   4.059  0.1083  0.7337 -1.3636
  174SAPS  C31419863   0.623   3.328   4.206  0.9849  0.3136 -0.4062
  174SAPS  H14X19864   0.630   3.231   4.260 -0.1968  0.1006 -0.5960
  174SAPS  H14Y19865   0.517   3.350   4.230  1.2324  0.9519  0.1155
  174SAPS  C31519866   0.715   3.431   4.275 -0.3497  0.6886  0.7955
  174SAPS  H15X19867   0.715   3.532   4.227  1.6593 -0.0097 -0.8078
  174SAPS  H15Y19868   0.822   3.405   4.264 -0.5840  0.2526 -0.6891
  174SAPS  C31619869   0.681   3.462   4.414  0.0219  0.1522 -0.6638
  174SAPS  H16X19870   0.589   3.525   4.415  0.1948  0.6001 -3.7384
  174SAPS  H16Y19871   0.751   3.528   4.469 -0.6156  0.3742 -0.1028
  174SAPS  C31719872   0.659   3.337   4.505  0.0447  0.5193 -0.5247
  174SAPS  H17X19873   0.737   3.262   4.482  0.4495  0.8293 -0.1725
  174SAPS  H17Y19874   0.559   3.295   4.481 -0.3464  0.0593  1.6949
  174SAPS  C31819875   0.661   3.369   4.651  0.0502 -0.2236  0.2478
  174SAPS  H18X19876   0.656   3.275   4.710 -0.8530  0.1051  0.7112
  174SAPS  H18Y19877   0.564   3.417   4.678 -1.1201 -1.8171 -0.9235
  174SAPS  H18Z19878   0.751   3.427   4.680 -0.4860 -0.3242  2.2599
  175SAPS     N19879   3.595   1.567   2.026 -0.7263  0.4651 -0.1574
  175SAPS   HN119880   3.611   1.647   2.090 -1.7231  0.2469  0.3787
  175SAPS   HN219881   3.500   1.528   2.043 -0.6442 -0.3243 -1.4085
  175SAPS   HN319882   3.678   1.505   2.040 -0.0616  1.4404  0.3758
  175SAPS   C1219883   3.618   1.602   1.885 -0.3826  0.6231 -0.0795
  175SAPS  H12A19884   3.725   1.616   1.871 -0.0624 -0.2104  1.3164
  175SAPS   C1319885   3.588   1.487   1.784  0.2472 -0.0322  0.4487
  175SAPS  O13A19886   3.552   1.375   1.819 -0.1284  0.4931  0.0825
  175SAPS  O13B19887   3.596   1.518   1.664 -0.0794 -0.1269  0.8299
  175SAPS   C1119888   3.532   1.725   1.843  0.4651 -0.0006  0.6495
  175SAPS  H11A19889   3.428   1.705   1.878  0.3802 -0.8168 -0.0530
  175SAPS  H11B19890   3.536   1.733   1.733 -0.3845 -0.0748  0.6038
  175SAPS     P19891   3.515   1.949   1.996 -0.6414 -0.0418 -0.1696
  175SAPS   O1319892   3.621   2.040   2.041 -0.4210  0.0135 -0.4252
  175SAPS   O1419893   3.402   2.004   1.914 -0.3638 -0.0421 -0.4863
  175SAPS   O1219894   3.593   1.846   1.913  0.8399 -0.2701 -1.2782
  175SAPS   O1119895   3.461   1.863   2.117 -0.3198  0.1628 -0.0129
  175SAPS    C119896   3.335   1.888   2.183 -0.0731 -0.2535  0.1793
  175SAPS    HA19897   3.257   1.897   2.105  2.3096  1.9043 -2.1417
  175SAPS    HB19898   3.310   1.800   2.245  2.6084 -1.4602 -0.3243
  175SAPS    C219899   3.335   2.012   2.263  0.1535 -0.1841  0.2099
  175SAPS    HS19900   3.355   2.103   2.202 -0.5556 -0.4157 -0.3822
  175SAPS   O2119901   3.427   1.993   2.373 -0.0937 -0.3080  0.4398
  175SAPS   C2119902   3.515   2.083   2.393 -0.2356 -1.5723  0.3164
  175SAPS   O2219903   3.539   2.181   2.329 -0.0293 -0.3297 -0.5569
  175SAPS   C2219904   3.581   2.058   2.532  0.1735  0.0412  0.3670
  175SAPS   H2R19905   3.500   2.055   2.609 -0.2809  0.5148 -0.0851
  175SAPS   H2S19906   3.617   1.953   2.526 -1.6964 -0.8704  3.0223
  175SAPS    C319907   3.198   2.035   2.316  0.1264 -0.6754  0.0997
  175SAPS    HX19908   3.160   1.942   2.364 -0.9814 -0.2864 -0.0045
  175SAPS    HY19909   3.127   2.048   2.231  1.1358 -0.5597 -0.7496
  175SAPS   O3119910   3.197   2.131   2.422  0.4745 -0.3481 -0.0018
  175SAPS   C3119911   3.163   2.254   2.377  0.0823  0.4744  0.1807
  175SAPS   O3219912   3.116   2.270   2.269  0.1057 -0.3940  0.1853
  175SAPS   C3219913   3.178   2.353   2.486 -0.5869  0.1796 -0.1890
  175SAPS   H2X19914   3.097   2.345   2.561 -1.9712  2.0000 -1.4064
  175SAPS   H2Y19915   3.173   2.451   2.434 -2.4921 -0.0633 -0.5326
  175SAPS   C2319916   3.691   2.161   2.571 -0.9296  0.1374  0.6460
  175SAPS   H3R19917   3.640   2.259   2.573  0.8981  1.1510  3.1063
  175SAPS   H3S19918   3.771   2.171   2.494 -0.7655 -2.6723  0.3544
  175SAPS   C2419919   3.764   2.118   2.699  0.0681  0.6785 -0.0983
  175SAPS   H4R19920   3.839   2.039   2.675 -0.2144  0.4674 -0.3046
  175SAPS   H4S19921   3.684   2.072   2.760  0.8993 -0.9631 -0.1843
  175SAPS   C2519922   3.824   2.231   2.760 -0.6557 -0.2434  0.0770
  175SAPS   H5R19923   3.843   2.312   2.688 -0.0735  0.6274  1.1686
  175SAPS   C2619924   3.840   2.264   2.888  0.2341  0.0093  0.3611
  175SAPS   H6R19925   3.894   2.356   2.913  0.7458  0.0566 -0.8719
  175SAPS   C2719926   3.803   2.175   3.007 -0.6650  0.7732 -0.2399
  175SAPS   H7R19927   3.702   2.134   2.985  0.0207 -1.1032 -0.0591
  175SAPS   H7S19928   3.797   2.235   3.100  0.8367  1.8695 -0.8055
  175SAPS   C2819929   3.899   2.056   3.032 -0.4047 -0.3434  0.2349
  175SAPS   H8R19930   3.976   2.042   2.955 -0.0686 -0.8100  0.6577
  175SAPS   C2919931   3.892   1.982   3.144 -0.1206  0.2733  0.3786
  175SAPS   H9R19932   3.965   1.899   3.145  0.6148  0.8809  2.5894
  175SAPS  C21019933   3.795   1.987   3.254  0.4413 -0.1438 -0.0640
  175SAPS  H10R19934   3.747   1.888   3.270 -2.1022  1.0615  0.3228
  175SAPS  H10S19935   3.714   2.061   3.236  3.7264  3.7375 -0.4392
  175SAPS  C21119936   3.872   2.038   3.377  0.6697  0.5811  0.1875
  175SAPS  H11R19937   3.920   2.135   3.358  2.8692 -0.2368  1.2415
  175SAPS  C21219938   3.885   1.981   3.500  0.0852 -0.0059  0.5642
  175SAPS  H12R19939   3.956   2.026   3.571 -0.1564  0.8084  0.3053
  175SAPS  C21319940   3.820   1.848   3.541  0.3386 -0.2027  0.4560
  175SAPS  H13R19941   3.770   1.780   3.469  1.5651 -1.1587  0.4707
  175SAPS  H13S19942   3.741   1.873   3.615 -0.7491  0.1463 -0.7740
  175SAPS  C21419943   3.937   1.769   3.594  0.2804  0.3368 -0.0238
  175SAPS  H14R19944   3.991   1.725   3.509 -1.1014  0.3445 -0.9531
  175SAPS  C21519945   3.954   1.730   3.721  0.0576 -0.5157  0.5336
  175SAPS  H15R19946   4.037   1.660   3.739  1.2177  0.8076  0.4940
  175SAPS  C21619947   3.876   1.774   3.839 -0.1445  0.5876 -0.4041
  175SAPS  H16R19948   3.781   1.715   3.845  0.0882  0.3059  0.6051
  175SAPS  H16S19949   3.842   1.877   3.815  1.0163  0.6790 -1.7753
  175SAPS  C21719950   3.958   1.783   3.969  0.4847 -0.4862 -1.0019
  175SAPS  H17R19951   3.901   1.857   4.028  2.4547 -0.1704  0.6091
  175SAPS  H17S19952   4.062   1.817   3.947  0.8403 -1.7990 -1.4259
  175SAPS  C21819953   3.961   1.659   4.045 -0.3428  0.1656 -0.1434
  175SAPS  H18R19954   3.986   1.576   3.975  1.6257  0.3010  0.3251
  175SAPS  H18S19955   3.862   1.628   4.086  0.4457 -0.4467  1.3813
  175SAPS  C21919956   4.061   1.655   4.167 -0.6663  0.7661  0.7706
  175SAPS  H19R19957   4.162   1.691   4.136 -1.3821  0.2603 -2.4718
  175SAPS  H19S19958   4.080   1.549   4.194 -1.1357  1.2733  3.3638
  175SAPS  C22019959   3.995   1.727   4.282 -0.0341  0.0478  0.0773
  175SAPS  H20R19960   4.054   1.712   4.375  0.5026 -1.0604 -0.4106
  175SAPS  H20S19961   3.896   1.678   4.296 -0.7905  0.7104 -2.4477
  175SAPS  H20T19962   3.991   1.835   4.259  0.5839 -0.0286 -0.4403
  175SAPS   C3319963   3.316   2.340   2.554 -0.2839  0.1569  0.2267
  175SAPS   H3X19964   3.395   2.348   2.476 -0.1131  2.4285  0.5817
  175SAPS   H3Y19965   3.328   2.238   2.596  1.4471  0.2241 -0.0477
  175SAPS   C3419966   3.343   2.449   2.654  0.2530  0.2863 -0.7526
  175SAPS   H4X19967   3.275   2.437   2.741 -0.3728 -1.4019 -1.4410
  175SAPS   H4Y19968   3.311   2.550   2.620 -1.0408 -0.2775 -1.2954
  175SAPS   C3519969   3.490   2.460   2.684  0.2036  0.0645 -0.5985
  175SAPS   H5X19970   3.541   2.480   2.587 -0.0697  0.0703 -0.7406
  175SAPS   H5Y19971   3.530   2.366   2.727  0.4681 -0.4864 -1.9951
  175SAPS   C3619972   3.519   2.578   2.777  0.0171 -0.0874 -0.0025
  175SAPS   H6X19973   3.455   2.667   2.757 -2.5630 -1.3040  2.2253
  175SAPS   H6Y19974   3.626   2.607   2.777 -0.0345  0.1621  1.2119
  175SAPS   C3719975   3.495   2.551   2.928  0.5664  0.0595 -0.9219
  175SAPS   H7X19976   3.578   2.482   2.954  0.5981  0.8122  1.2129
  175SAPS   H7Y19977   3.397   2.500   2.933  0.7630 -0.2349  0.1606
  175SAPS   C3819978   3.474   2.679   3.008  0.2856  0.4581 -0.1127
  175SAPS   H8X19979   3.368   2.713   3.001  0.5286  1.1914 -0.2147
  175SAPS   H8Y19980   3.527   2.762   2.957 -2.1384 -0.4299 -4.5611
  175SAPS   C3919981   3.503   2.650   3.155  0.1097  0.0897 -0.1470
  175SAPS   H9X19982   3.608   2.615   3.160  0.0759 -0.1924 -1.1633
  175SAPS   H9Y19983   3.444   2.563   3.190 -0.6853  1.4617  2.1610
  175SAPS  C31019984   3.481   2.764   3.249  0.2450  0.2449  0.2902
  175SAPS  H10X19985   3.373   2.788   3.255  0.5498  1.6757  0.4852
  175SAPS  H10Y19986   3.535   2.852   3.207 -0.5127  0.4483 -0.2754
  175SAPS  C31119987   3.530   2.738   3.391 -0.2488  0.9033  0.0948
  175SAPS  H11X19988   3.529   2.831   3.452  1.3885 -0.5752  2.5532
  175SAPS  H11Y19989   3.633   2.696   3.392 -1.0307 -1.2130 -1.1693
  175SAPS  C31219990   3.436   2.631   3.449  0.0556 -0.4967  0.3968
  175SAPS  H12X19991   3.381   2.555   3.389  1.2270 -0.9405 -0.1498
  175SAPS  H12Y19992   3.354   2.687   3.498  0.3100  0.5191 -0.3053
  175SAPS  C31319993   3.504   2.561   3.570 -0.2912  0.3197  0.0205
  175SAPS  H13X19994   3.597   2.501   3.557  0.7358  1.7735  0.5018
  175SAPS  H13Y19995   3.434   2.486   3.612  2.3439 -2.6421 -0.4888
  175SAPS  C31419996   3.551   2.646   3.691 -0.0649 -0.0581  0.7619
  175SAPS  H14X19997   3.551   2.575   3.777 -0.0222 -0.3532  0.5219
  175SAPS  H14Y19998   3.490   2.736   3.716  1.0229  1.4748 -1.7271
  175SAPS  C31519999   3.702   2.684   3.689  0.2620  0.5364  0.5317
  175SAPS  H15X20000   3.722   2.767   3.617  0.2814 -0.7747 -1.0281
  175SAPS  H15Y20001   3.749   2.592   3.648 -0.4660  0.2444  0.3271
  175SAPS  C31620002   3.767   2.723   3.827  0.2068 -0.1333 -0.0627
  175SAPS  H16X20003   3.766   2.636   3.895 -0.9637  1.7097  2.4551
  175SAPS  H16Y20004   3.705   2.804   3.872 -1.6186 -1.7297  0.4661
  175SAPS  C31720005   3.910   2.772   3.793 -0.5066 -0.1059 -0.1307
  175SAPS  H17X20006   3.902   2.869   3.740  0.9872 -0.1491 -0.4892
  175SAPS  H17Y20007   3.959   2.701   3.724 -0.5815 -1.3657  1.0690
  175SAPS  C31820008   3.997   2.795   3.915 -0.1177 -0.6870 -0.1076
  175SAPS  H18X20009   4.012   2.700   3.972 -1.0207 -0.1114  1.1296
  175SAPS  H18Y20010   3.936   2.873   3.965 -1.0898  0.5054 -2.9965
  175SAPS  H18Z20011   4.098   2.840   3.904 -0.5212  0.3918  0.4591
  176SAPS     N20012   2.847   1.054   1.645  0.6943 -0.8233 -0.0475
  176SAPS   HN120013   2.947   1.082   1.634  0.3857 -0.5198 -3.0697
  176SAPS   HN220014   2.795   1.120   1.583  1.2135  0.0752  0.4427
  176SAPS   HN320015   2.825   1.067   1.746  1.0044  1.9787 -0.2472
  176SAPS   C1220016   2.840   0.923   1.591  0.6002 -0.3732  0.4693
  176SAPS  H12A20017   2.744   0.878   1.611  0.8397 -1.4943 -0.7329
  176SAPS   C1320018   2.849   0.910   1.434  0.2707 -0.3745 -0.0595
  176SAPS  O13A20019   2.836   1.019   1.372  0.3024  0.1697  0.0334
  176SAPS  O13B20020   2.822   0.797   1.388  0.0132  0.6615  0.0065
  176SAPS   C1120021   2.961   0.845   1.653 -0.6524  0.5375  0.0558
  176SAPS  H11A20022   3.060   0.856   1.603  0.1877 -1.3995  1.1875
  176SAPS  H11B20023   2.938   0.739   1.631 -0.4524  0.4350  0.3307
  176SAPS     P20024   3.074   0.810   1.888  0.2563 -0.4431 -0.3653
  176SAPS   O1320025   3.045   0.681   1.948 -0.4544  0.7479  0.2441
  176SAPS   O1420026   3.208   0.830   1.822 -0.0174  0.0322  0.2520
  176SAPS   O1220027   2.953   0.859   1.796 -0.0391 -0.1409 -0.0872
  176SAPS   O1120028   3.068   0.923   2.000 -0.6835 -0.0835 -0.4701
  176SAPS    C120029   2.952   0.946   2.078  0.2756 -0.4351  0.5180
  176SAPS    HA20030   2.908   1.046   2.058 -2.0345 -1.9554 -3.1765
  176SAPS    HB20031   2.867   0.881   2.047  0.1315 -0.2595  0.5476
  176SAPS    C220032   2.981   0.928   2.235 -0.6360  0.6805 -0.2146
  176SAPS    HS20033   3.061   1.004   2.248 -0.4836  0.2306  1.6713
  176SAPS   O2120034   3.023   0.791   2.253 -0.0390  0.0240  0.3720
  176SAPS   C2120035   3.091   0.768   2.363 -0.2389 -0.1681 -0.3863
  176SAPS   O2220036   3.112   0.850   2.449  0.1108  0.0944 -0.2214
  176SAPS   C2220037   3.132   0.619   2.361  0.1353  0.1934  0.1358
  176SAPS   H2R20038   3.045   0.551   2.354  0.5760 -0.3516 -0.0921
  176SAPS   H2S20039   3.194   0.617   2.269  0.8466  1.4996  0.5573
  176SAPS    C320040   2.860   0.958   2.328  0.6666 -0.2893  1.2006
  176SAPS    HX20041   2.790   0.873   2.318  2.6407 -2.1008  2.1122
  176SAPS    HY20042   2.806   1.045   2.283  0.6706 -1.0748 -0.3942
  176SAPS   O3120043   2.883   0.992   2.466  0.4287  0.6850 -0.2579
  176SAPS   C3120044   2.825   0.909   2.551 -0.5384 -0.8229 -0.3235
  176SAPS   O3220045   2.772   0.803   2.526 -0.0223  0.2787 -1.1656
  176SAPS   C3220046   2.832   0.987   2.686  0.4742  0.1670  0.0632
  176SAPS   H2X20047   2.820   1.093   2.655 -0.2122  0.1807  0.3628
  176SAPS   H2Y20048   2.929   0.972   2.739  2.6529  0.5420 -3.4603
  176SAPS   C2320049   3.214   0.571   2.487  0.3909  0.1519  0.1841
  176SAPS   H3R20050   3.284   0.656   2.501 -0.0561  0.0905  3.4966
  176SAPS   H3S20051   3.274   0.483   2.454  1.8985  0.8816  0.9012
  176SAPS   C2420052   3.111   0.550   2.595  0.1590  0.4988 -0.0893
  176SAPS   H4R20053   3.060   0.455   2.568 -1.9756  1.3596  0.6167
  176SAPS   H4S20054   3.035   0.632   2.600 -1.5804 -1.0390 -0.3712
  176SAPS   C2520055   3.187   0.538   2.722  0.5228 -0.4025 -0.5162
  176SAPS   H5R20056   3.260   0.455   2.732  1.2465  0.4314  2.0594
  176SAPS   C2620057   3.178   0.627   2.827  0.4906  0.3009  0.9644
  176SAPS   H6R20058   3.241   0.617   2.917  1.5341 -2.6815  0.0242
  176SAPS   C2720059   3.104   0.755   2.849  0.8652 -0.2965  0.5346
  176SAPS   H7R20060   3.082   0.799   2.750  0.3173 -1.0055  0.3332
  176SAPS   H7S20061   3.161   0.834   2.903  1.0023 -0.0660  0.0551
  176SAPS   C2820062   2.966   0.710   2.909 -0.5821 -0.8085  0.4414
  176SAPS   H8R20063   2.894   0.678   2.832 -0.9448 -0.4424  0.6257
  176SAPS   C2920064   2.925   0.746   3.035  0.7678  0.2631 -0.6176
  176SAPS   H9R20065   2.816   0.734   3.047  0.5016  1.5291 -1.5337
  176SAPS  C21020066   2.998   0.814   3.148  0.8591  0.8267 -0.0919
  176SAPS  H10R20067   3.042   0.908   3.107 -0.6705  2.0719  1.0012
  176SAPS  H10S20068   3.084   0.746   3.164  1.0586  1.2754  0.7576
  176SAPS  C21120069   2.919   0.845   3.270  0.5709 -0.2315  0.2833
  176SAPS  H11R20070   2.828   0.899   3.241  1.7485  0.6572 -2.0518
  176SAPS  C21220071   2.948   0.799   3.398 -0.6025 -0.2391  0.0567
  176SAPS  H12R20072   2.886   0.832   3.482  0.6786 -0.4700  1.1213
  176SAPS  C21320073   3.071   0.729   3.437  0.2616 -0.0468 -0.0012
  176SAPS  H13R20074   3.122   0.674   3.354 -0.1508  0.7624 -0.8119
  176SAPS  H13S20075   3.040   0.647   3.505  0.1527 -0.5864 -0.6802
  176SAPS  C21420076   3.152   0.830   3.510  0.3511  0.1136 -0.6347
  176SAPS  H14R20077   3.208   0.900   3.447  1.8015 -0.6437 -0.2502
  176SAPS  C21520078   3.186   0.824   3.639 -0.2048  0.6489 -0.0090
  176SAPS  H15R20079   3.240   0.911   3.680  0.9684 -0.2123  0.2986
  176SAPS  C21620080   3.150   0.712   3.741 -0.7907  0.0873 -0.1845
  176SAPS  H16R20081   3.243   0.680   3.793 -1.6592 -1.5234  0.4636
  176SAPS  H16S20082   3.111   0.619   3.696 -1.4348  0.3055 -0.0817
  176SAPS  C21720083   3.038   0.768   3.836 -0.4387  0.1716  0.0230
  176SAPS  H17R20084   2.940   0.757   3.785 -0.2336 -1.6658 -0.0614
  176SAPS  H17S20085   3.060   0.874   3.862 -0.6244  0.0391  0.7439
  176SAPS  C21820086   3.032   0.682   3.964  0.1809  0.6691  0.6502
  176SAPS  H18R20087   2.967   0.734   4.037  1.2780  1.5041  1.0628
  176SAPS  H18S20088   3.134   0.692   4.008 -1.0067  1.8420  3.3522
  176SAPS  C21920089   2.979   0.542   3.950  0.2007  0.6749  0.6077
  176SAPS  H19R20090   3.053   0.480   3.896  0.9844  1.9290  0.2139
  176SAPS  H19S20091   2.881   0.536   3.897  0.0858 -0.5366  0.9064
  176SAPS  C22020092   2.955   0.471   4.081  0.4160 -0.2623 -0.1098
  176SAPS  H20R20093   3.044   0.452   4.144 -0.3554 -1.5616  0.6461
  176SAPS  H20S20094   2.907   0.374   4.057  0.6096 -0.5652  0.6972
  176SAPS  H20T20095   2.878   0.533   4.133  1.1321 -0.0668  0.7477
  176SAPS   C3320096   2.716   0.951   2.779  0.1985  0.3089 -0.6655
  176SAPS   H3X20097   2.727   1.002   2.877 -0.1355 -1.6508  0.4449
  176SAPS   H3Y20098   2.708   0.842   2.798  0.5636  0.4303  0.2316
  176SAPS   C3420099   2.577   0.987   2.719  0.1992 -0.5320  0.4304
  176SAPS   H4X20100   2.544   0.951   2.619 -1.7789 -0.4624  1.0214
  176SAPS   H4Y20101   2.578   1.098   2.712 -0.9041 -0.5461 -0.3357
  176SAPS   C3520102   2.474   0.936   2.818  0.1740 -0.1382 -0.4646
  176SAPS   H5X20103   2.480   0.826   2.827 -1.3246 -0.1274  1.2088
  176SAPS   H5Y20104   2.376   0.966   2.774  1.0329  1.6716 -1.2392
  176SAPS   C3620105   2.488   1.000   2.954 -0.7179  0.1657  0.5557
  176SAPS   H6X20106   2.512   1.107   2.936 -1.1279  0.0299 -0.8916
  176SAPS   H6Y20107   2.574   0.955   3.006  0.8285 -0.0282 -1.9952
  176SAPS   C3720108   2.371   0.984   3.047  0.1157 -0.1949 -0.1807
  176SAPS   H7X20109   2.283   0.978   2.979  0.0006  2.0690 -0.3218
  176SAPS   H7Y20110   2.352   1.078   3.103 -3.2509 -0.2099 -1.0498
  176SAPS   C3820111   2.401   0.871   3.142  0.0933 -0.0448 -0.4235
  176SAPS   H8X20112   2.499   0.893   3.191 -0.4313  1.0505  0.1819
  176SAPS   H8Y20113   2.406   0.771   3.093 -0.9949 -1.7442  2.6302
  176SAPS   C3920114   2.299   0.859   3.253  0.1959 -0.8711  0.4094
  176SAPS   H9X20115   2.320   0.776   3.325  1.0706 -0.8302  0.2126
  176SAPS   H9Y20116   2.203   0.840   3.200  0.3449 -0.4301 -0.0221
  176SAPS  C31020117   2.284   0.988   3.334  0.5342 -0.3785  0.3409
  176SAPS  H10X20118   2.236   1.062   3.267 -0.4122 -0.6905  0.6510
  176SAPS  H10Y20119   2.382   1.016   3.377  0.4926 -0.7133  0.6586
  176SAPS  C31120120   2.175   0.981   3.448 -0.0655  0.4288  0.0129
  176SAPS  H11X20121   2.200   0.908   3.528 -3.7162  1.1861  2.0596
  176SAPS  H11Y20122   2.078   0.956   3.399 -0.4229  0.6897  0.5873
  176SAPS  C31220123   2.156   1.120   3.518  0.2474 -0.3439 -0.0736
  176SAPS  H12X20124   2.064   1.112   3.578  0.1749 -0.6634 -0.2246
  176SAPS  H12Y20125   2.143   1.201   3.443 -2.2563 -1.0949 -0.5455
  176SAPS  C31320126   2.271   1.160   3.617  0.2595 -0.1944  0.2286
  176SAPS  H13X20127   2.348   1.205   3.551  0.4674  0.2338  0.7579
  176SAPS  H13Y20128   2.309   1.066   3.661  0.6898  0.4628  1.2853
  176SAPS  C31420129   2.222   1.252   3.724  0.0150  0.0462 -0.4136
  176SAPS  H14X20130   2.123   1.222   3.763  0.3054  0.3567  0.5961
  176SAPS  H14Y20131   2.209   1.357   3.689  0.6845 -0.0096 -0.8682
  176SAPS  C31520132   2.315   1.252   3.842 -0.5975 -0.0180  0.1930
  176SAPS  H15X20133   2.267   1.333   3.902 -1.2941 -1.1948  1.2840
  176SAPS  H15Y20134   2.419   1.272   3.810 -0.3415 -3.2062 -1.4244
  176SAPS  C31620135   2.309   1.124   3.930  0.3868 -0.3760  0.3981
  176SAPS  H16X20136   2.356   1.036   3.880  0.3135 -0.2328  0.0752
  176SAPS  H16Y20137   2.200   1.103   3.937 -0.0330  1.2124 -0.8810
  176SAPS  C31720138   2.347   1.135   4.069 -0.7588  0.0078 -0.2253
  176SAPS  H17X20139   2.284   1.208   4.123 -2.3311 -1.0229 -0.6030
  176SAPS  H17Y20140   2.451   1.174   4.065 -1.0489  0.7123 -1.4978
  176SAPS  C31820141   2.353   1.004   4.152 -0.1351 -0.0523 -0.6508
  176SAPS  H18X20142   2.260   0.943   4.145 -0.3834 -0.0300  1.7834
  176SAPS  H18Y20143   2.363   1.026   4.260  0.0408  2.3090 -1.0941
  176SAPS  H18Z20144   2.443   0.943   4.127 -0.0203 -0.7344  1.2593
  177SAPS     N20145   4.658   2.974   1.897 -0.2448  0.4692 -0.0271
  177SAPS   HN120146   4.622   2.958   1.801 -1.9172  0.0888  0.6333
  177SAPS   HN220147   4.759   2.999   1.892 -0.2043  0.9698  2.1920
  177SAPS   HN320148   4.644   2.887   1.953 -0.1875  0.8676  0.6271
  177SAPS   C1220149   4.594   3.091   1.963 -0.4306  0.3189 -0.0187
  177SAPS  H12A20150   4.633   3.173   1.904 -0.6303 -0.6610 -1.5467
  177SAPS   C1320151   4.442   3.102   1.945  0.3064  0.3420 -0.9494
  177SAPS  O13A20152   4.380   3.013   1.886  0.9989 -0.4313 -0.5828
  177SAPS  O13B20153   4.382   3.202   1.994 -0.1164 -0.3097 -0.7615
  177SAPS   C1120154   4.645   3.103   2.106 -0.3189  0.0355 -0.2479
  177SAPS  H11A20155   4.612   3.006   2.148 -0.0163  1.0631  2.5705
  177SAPS  H11B20156   4.580   3.179   2.155 -0.9663 -1.0167  0.5739
  177SAPS     P20157   4.858   3.166   2.243  0.1989 -0.3536  0.2621
  177SAPS   O1320158   4.944   3.053   2.278 -0.2314 -0.4818 -0.1071
  177SAPS   O1420159   4.922   3.302   2.245 -0.0718  0.5912  0.0557
  177SAPS   O1220160   4.780   3.127   2.111 -0.2383  0.0869  0.9562
  177SAPS   O1120161   4.733   3.160   2.342 -0.7791 -0.1401  0.1329
  177SAPS    C120162   4.688   3.279   2.400 -0.0379  0.1617 -1.2089
  177SAPS    HA20163   4.697   3.370   2.336 -0.8285  0.7365 -0.5277
  177SAPS    HB20164   4.577   3.272   2.409 -0.0510  1.2396 -0.2391
  177SAPS    C220165   4.744   3.302   2.539 -0.0123 -0.2879 -0.4907
  177SAPS    HS20166   4.852   3.314   2.516  0.1285 -0.8154 -0.1258
  177SAPS   O2120167   4.704   3.191   2.624 -0.1281  0.4006 -0.2277
  177SAPS   C2120168   4.803   3.136   2.691 -0.7934 -0.5371  0.2418
  177SAPS   O2220169   4.922   3.176   2.682 -0.0887 -0.4084  0.0380
  177SAPS   C2220170   4.741   3.030   2.785 -0.1764  0.6814  0.6550
  177SAPS   H2R20171   4.676   2.976   2.713  2.4661 -1.5976 -0.2078
  177SAPS   H2S20172   4.827   2.972   2.824  0.5743  0.8977 -0.6183
  177SAPS    C320173   4.702   3.434   2.609 -0.6578  0.4938  0.3653
  177SAPS    HX20174   4.591   3.437   2.598 -0.4953 -1.4167 -3.1489
  177SAPS    HY20175   4.747   3.515   2.548 -0.5097 -1.2661 -1.9690
  177SAPS   O3120176   4.745   3.450   2.744  0.4443  0.3488 -0.0437
  177SAPS   C3120177   4.876   3.482   2.758  0.7201  0.3577 -0.2286
  177SAPS   O3220178   4.951   3.486   2.666 -0.1119  0.1772 -0.0781
  177SAPS   C3220179   4.911   3.512   2.901  1.0582 -0.7068  0.1922
  177SAPS   H2X20180   4.820   3.486   2.960  0.6847 -1.6291 -0.7456
  177SAPS   H2Y20181   4.931   3.620   2.915  1.1287 -0.8854  1.6873
  177SAPS   C2320182   4.662   3.101   2.897  0.6308  0.2143 -0.0034
  177SAPS   H3R20183   4.572   3.143   2.848  1.6466 -1.2175 -3.4007
  177SAPS   H3S20184   4.721   3.187   2.935 -2.2561  1.6385  1.6145
  177SAPS   C2420185   4.626   2.999   3.014 -0.0780 -0.6800  0.0188
  177SAPS   H4R20186   4.618   3.057   3.108  0.3851  0.8540 -0.8632
  177SAPS   H4S20187   4.713   2.930   3.020  0.2951 -0.6545 -3.2418
  177SAPS   C2520188   4.511   2.909   2.986 -1.0372 -0.4369  0.4679
  177SAPS   H5R20189   4.475   2.912   2.882 -3.6008 -0.4059  1.2886
  177SAPS   C2620190   4.436   2.852   3.083  0.2547  0.2026  0.5980
  177SAPS   H6R20191   4.369   2.770   3.053  1.0468 -0.0424 -0.5430
  177SAPS   C2720192   4.439   2.862   3.236  0.3115 -0.5738 -0.3512
  177SAPS   H7R20193   4.339   2.886   3.278  1.5218  1.8798  1.3600
  177SAPS   H7S20194   4.519   2.934   3.263  0.0291 -0.9295  1.5641
  177SAPS   C2820195   4.469   2.729   3.297 -0.5583 -0.6435 -0.0653
  177SAPS   H8R20196   4.504   2.654   3.224 -1.6050 -0.6080 -0.6268
  177SAPS   C2920197   4.485   2.720   3.431  0.4170  0.2968  0.1033
  177SAPS   H9R20198   4.519   2.625   3.477 -1.2588 -0.6005 -0.4403
  177SAPS  C21020199   4.441   2.823   3.528 -0.7633 -0.2373  0.0617
  177SAPS  H10R20200   4.347   2.790   3.577  0.0524 -2.4031  0.2844
  177SAPS  H10S20201   4.407   2.913   3.474  0.3416 -0.1180 -0.4565
  177SAPS  C21120202   4.559   2.865   3.615  0.1929 -0.1146  0.2985
  177SAPS  H11R20203   4.631   2.939   3.577 -0.7395  0.9641  0.5779
  177SAPS  C21220204   4.590   2.816   3.733 -0.2990  0.0417 -0.9725
  177SAPS  H12R20205   4.675   2.856   3.790 -1.8494  1.8783  0.1919
  177SAPS  C21320206   4.510   2.713   3.804 -0.5124 -0.0720 -0.5132
  177SAPS  H13R20207   4.576   2.624   3.801  0.6108  0.7382 -0.7050
  177SAPS  H13S20208   4.416   2.684   3.752 -0.6933 -3.0809  1.2870
  177SAPS  C21420209   4.493   2.745   3.952  0.6562  0.1754 -0.4396
  177SAPS  H14R20210   4.543   2.835   3.991  0.3899  0.7707 -1.4713
  177SAPS  C21520211   4.449   2.659   4.050  0.8195 -0.0411  0.7027
  177SAPS  H15R20212   4.450   2.696   4.153  2.0500  0.2020  0.6199
  177SAPS  C21620213   4.393   2.526   4.031 -0.2628  0.8317  0.3892
  177SAPS  H16R20214   4.463   2.455   4.081  0.7984  2.3844  1.2016
  177SAPS  H16S20215   4.364   2.504   3.926 -1.1149  1.4787  0.4765
  177SAPS  C21720216   4.260   2.533   4.108  0.5712 -0.4380  0.6148
  177SAPS  H17R20217   4.200   2.602   4.044  2.1893  0.6006  0.1671
  177SAPS  H17S20218   4.276   2.566   4.213 -1.5990  1.1643  0.5042
  177SAPS  C21820219   4.184   2.402   4.102  0.3431  0.5598  0.1504
  177SAPS  H18R20220   4.171   2.374   3.995 -1.2257 -2.4662  1.0174
  177SAPS  H18S20221   4.079   2.415   4.138  0.5324  3.2324 -0.1054
  177SAPS  C21920222   4.254   2.281   4.168 -0.1101  0.1681  0.3571
  177SAPS  H19R20223   4.290   2.305   4.270 -1.8513  0.5255  0.9214
  177SAPS  H19S20224   4.345   2.248   4.113 -0.4991  0.9209 -0.7561
  177SAPS  C22020225   4.159   2.156   4.187  0.8133 -0.0985  0.5706
  177SAPS  H20R20226   4.073   2.166   4.257  0.0906 -0.5464 -0.2389
  177SAPS  H20S20227   4.219   2.077   4.238  0.6761  0.3896  1.5009
  177SAPS  H20T20228   4.114   2.120   4.092  1.2407  0.0750  0.2971
  177SAPS   C3320229   5.021   3.411   2.939 -0.3029 -0.0601 -1.4237
  177SAPS   H3X20230   5.118   3.433   2.889 -1.1116  2.9299 -1.8631
  177SAPS   H3Y20231   4.993   3.309   2.906 -1.0017  0.0262 -1.1184
  177SAPS   C3420232   5.059   3.408   3.090 -0.3446 -0.5193  0.2804
  177SAPS   H4X20233   5.114   3.504   3.104  1.7357 -1.1863 -2.4889
  177SAPS   H4Y20234   5.129   3.324   3.113  0.5828  0.8680  3.1150
  177SAPS   C3520235   4.944   3.409   3.189  0.0147 -0.2434 -0.2945
  177SAPS   H5X20236   4.858   3.357   3.141 -1.5201 -0.2639  2.3035
  177SAPS   H5Y20237   4.909   3.513   3.209 -2.5768 -1.3111  1.1440
  177SAPS   C3620238   4.976   3.338   3.322  0.1974 -0.0088 -0.8132
  177SAPS   H6X20239   5.030   3.249   3.285 -1.4977 -0.0864 -3.3803
  177SAPS   H6Y20240   4.885   3.301   3.374  0.2711 -0.7600 -1.2122
  177SAPS   C3720241   5.059   3.417   3.426  0.2078  0.6151  0.0375
  177SAPS   H7X20242   4.992   3.499   3.460 -1.1741 -0.5185  0.1642
  177SAPS   H7Y20243   5.155   3.447   3.380  0.6768  0.4889  0.9023
  177SAPS   C3820244   5.091   3.326   3.548 -0.2693 -0.2670  0.0360
  177SAPS   H8X20245   5.158   3.240   3.527  1.1535  0.7217  0.2912
  177SAPS   H8Y20246   4.990   3.292   3.578 -0.7389 -1.2026 -2.3921
  177SAPS   C3920247   5.166   3.410   3.666  0.1437 -0.5594  0.3567
  177SAPS   H9X20248   5.124   3.513   3.665  3.1534  0.7800 -0.7898
  177SAPS   H9Y20249   5.273   3.422   3.638  1.2916 -3.1622  3.1084
  177SAPS  C31020250   5.134   3.343   3.802  0.2320  0.2987  0.2739
  177SAPS  H10X20251   5.197   3.252   3.789  0.0363 -0.0953  1.8958
  177SAPS  H10Y20252   5.028   3.313   3.811  0.3411 -0.2901 -0.3472
  177SAPS  C31120253   5.175   3.443   3.914 -0.0545  0.2248  0.7541
  177SAPS  H11X20254   5.086   3.506   3.935 -1.5515 -0.3386 -3.0209
  177SAPS  H11Y20255   5.253   3.498   3.859 -0.0827 -1.5626 -1.2136
  177SAPS  C31220256   5.230   3.371   4.033  0.8177  0.5505  0.2067
  177SAPS  H12X20257   5.255   3.458   4.098  0.4310  1.7668 -1.2304
  177SAPS  H12Y20258   5.324   3.317   4.007 -0.3272 -1.2096 -0.4313
  177SAPS  C31320259   5.124   3.275   4.102  0.3111 -0.5597  0.9978
  177SAPS  H13X20260   5.078   3.213   4.022 -0.4024 -1.0110  1.7454
  177SAPS  H13Y20261   5.045   3.337   4.150  0.9216 -0.5714  2.0441
  177SAPS  C31420262   5.198   3.181   4.199  0.6198 -0.2869 -0.1696
  177SAPS  H14X20263   5.128   3.161   4.283  2.9843 -1.6871  1.5791
  177SAPS  H14Y20264   5.289   3.228   4.242  0.2739  0.5926 -0.3809
  177SAPS  C31520265   5.237   3.052   4.138  0.3164 -0.1646  0.4655
  177SAPS  H15X20266   5.244   3.068   4.028 -1.4873 -2.3153 -0.0316
  177SAPS  H15Y20267   5.152   2.982   4.148 -1.1188  1.7634  3.0350
  177SAPS  C31620268   5.356   2.972   4.198  0.1668 -0.5734 -0.1286
  177SAPS  H16X20269   5.345   2.946   4.305  0.6899  1.6191  0.5208
  177SAPS  H16Y20270   5.442   3.042   4.191 -1.5890  1.6682 -0.6876
  177SAPS  C31720271   5.379   2.846   4.119  0.0341  0.0619  0.0176
  177SAPS  H17X20272   5.279   2.810   4.088  1.0004 -0.0805 -3.2749
  177SAPS  H17Y20273   5.431   2.775   4.188 -0.6982  1.6935  2.3556
  177SAPS  C31820274   5.457   2.856   3.986 -0.1098 -0.0965  0.1548
  177SAPS  H18X20275   5.399   2.906   3.906  0.7376  1.4176  0.4500
  177SAPS  H18Y20276   5.482   2.759   3.937  0.1051  0.9058 -1.8310
  177SAPS  H18Z20277   5.554   2.906   4.004  1.1891 -1.6630 -1.9963
  178SAPS     N20278   2.861   5.511   1.505  0.0028 -0.2758  0.7258
  178SAPS   HN120279   2.927   5.521   1.584  1.3480  1.0497 -0.4926
  178SAPS   HN220280   2.828   5.412   1.507 -0.7502 -0.0226  1.0706
  178SAPS   HN320281   2.906   5.528   1.412 -0.7271 -3.1789 -0.2827
  178SAPS   C1220282   2.738   5.601   1.518  0.1220 -1.0421 -0.3686
  178SAPS  H12A20283   2.731   5.681   1.446 -0.5849 -1.2894 -0.5856
  178SAPS   C1320284   2.606   5.520   1.510 -0.4911  0.5523 -0.1032
  178SAPS  O13A20285   2.608   5.402   1.461 -0.3742 -0.0771 -0.1357
  178SAPS  O13B20286   2.500   5.573   1.558 -0.3782 -0.4394 -0.6291
  178SAPS   C1120287   2.756   5.665   1.667  0.1588  0.2734 -0.2703
  178SAPS  H11A20288   2.766   5.592   1.751  1.4442  3.6739  2.8151
  178SAPS  H11B20289   2.664   5.726   1.679 -0.8542 -0.7793 -2.1371
  178SAPS     P20290   2.865   5.893   1.747  0.0536 -0.0220 -0.1186
  178SAPS   O1320291   3.007   5.943   1.764  0.9296 -0.4240  0.3014
  178SAPS   O1420292   2.761   5.979   1.677  0.8307  0.1217 -0.7792
  178SAPS   O1220293   2.872   5.752   1.674  0.1448  0.1036  0.1158
  178SAPS   O1120294   2.808   5.850   1.885 -0.3812  0.3252 -0.6235
  178SAPS    C120295   2.876   5.747   1.956  0.3073 -0.1500  0.3206
  178SAPS    HA20296   2.817   5.652   1.959 -0.8126  0.4397 -1.4838
  178SAPS    HB20297   2.975   5.714   1.920 -0.6565 -3.1784  0.1563
  178SAPS    C220298   2.906   5.779   2.108  0.5781  0.2799  0.3037
  178SAPS    HS20299   2.810   5.790   2.163  1.1543 -2.0445  1.9175
  178SAPS   O2120300   2.985   5.896   2.123 -0.0516 -0.6046 -0.0762
  178SAPS   C2120301   2.916   6.009   2.134  0.0021 -0.0725 -0.1509
  178SAPS   O2220302   2.796   6.020   2.121  0.3854 -0.3806  0.1276
  178SAPS   C2220303   3.011   6.129   2.148 -1.0379 -0.1348  0.0999
  178SAPS   H2R20304   3.114   6.097   2.119 -0.8606  0.6706 -0.1970
  178SAPS   H2S20305   2.981   6.207   2.075  1.4458  2.7424  1.9183
  178SAPS    C320306   2.985   5.663   2.176 -0.8103 -0.0232  0.7458
  178SAPS    HX20307   3.086   5.650   2.131 -1.6707 -0.4400 -1.1716
  178SAPS    HY20308   2.928   5.571   2.149  0.5738 -0.2071 -1.8577
  178SAPS   O3120309   2.998   5.683   2.318  0.0534  0.6819 -0.1017
  178SAPS   C3120310   3.116   5.699   2.368 -0.2004 -0.7743 -0.2301
  178SAPS   O3220311   3.223   5.687   2.315 -0.7783  0.2558  0.2466
  178SAPS   C3220312   3.096   5.734   2.519  0.0539 -0.7951 -0.0905
  178SAPS   H2X20313   3.012   5.676   2.563 -0.8205  1.7348  1.7985
  178SAPS   H2Y20314   3.055   5.837   2.527  2.6291  0.4575 -1.5594
  178SAPS   C2320315   3.005   6.186   2.289  0.2627  0.2306  0.3561
  178SAPS   H3R20316   3.030   6.107   2.364  0.5549  0.0518  0.0775
  178SAPS   H3S20317   2.897   6.210   2.300  0.1965  0.3240 -0.4237
  178SAPS   C2420318   3.091   6.310   2.306 -0.1509  0.8685 -0.5541
  178SAPS   H4R20319   3.056   6.380   2.385  1.3974 -0.3719  1.3236
  178SAPS   H4S20320   3.088   6.381   2.220 -3.0239  1.6693  0.0765
  178SAPS   C2520321   3.232   6.271   2.330 -0.6799 -0.0678  0.4134
  178SAPS   H5R20322   3.290   6.230   2.245 -0.5963 -2.4409  1.5376
  178SAPS   C2620323   3.293   6.251   2.448 -0.1986  1.0114  0.1037
  178SAPS   H6R20324   3.395   6.210   2.444 -0.4109  0.3535  1.1455
  178SAPS   C2720325   3.238   6.300   2.572  0.0819  0.4527 -0.3260
  178SAPS   H7R20326   3.127   6.298   2.571  0.0285 -3.1628  0.1317
  178SAPS   H7S20327   3.273   6.406   2.574  0.5883  0.2875  0.2525
  178SAPS   C2820328   3.266   6.201   2.679  0.4205  0.0556 -1.0620
  178SAPS   H8R20329   3.248   6.096   2.649 -2.3819 -0.0507  0.5910
  178SAPS   C2920330   3.293   6.226   2.810  0.0671  0.4685  0.0831
  178SAPS   H9R20331   3.321   6.143   2.875  0.2937 -0.5545 -1.2772
  178SAPS  C21020332   3.291   6.360   2.884  0.5883 -0.8599 -0.0071
  178SAPS  H10R20333   3.355   6.431   2.827 -1.1182  1.9710  1.3644
  178SAPS  H10S20334   3.349   6.353   2.978 -0.5237 -2.4997  0.6063
  178SAPS  C21120335   3.150   6.418   2.906  1.1131  0.0133 -1.3627
  178SAPS  H11R20336   3.065   6.392   2.841 -1.5777  2.3509  0.9403
  178SAPS  C21220337   3.116   6.506   3.008  0.4931 -0.0581  0.0271
  178SAPS  H12R20338   3.012   6.537   3.021  0.3594  1.1811 -3.1193
  178SAPS  C21320339   3.209   6.571   3.110  0.0846  0.5341  0.3949
  178SAPS  H13R20340   3.222   6.681   3.098  0.1586  0.5165  0.3189
  178SAPS  H13S20341   3.307   6.519   3.112  0.2535  0.8508  1.5336
  178SAPS  C21420342   3.150   6.549   3.250 -0.2132  0.0667 -0.0366
  178SAPS  H14R20343   3.084   6.628   3.290 -0.8848 -0.3713 -0.2557
  178SAPS  C21520344   3.164   6.438   3.337 -0.0629 -1.2163  0.0892
  178SAPS  H15R20345   3.088   6.437   3.416 -0.9311  1.2558 -0.6233
  178SAPS  C21620346   3.243   6.312   3.306  0.2166  0.6576 -0.5640
  178SAPS  H16R20347   3.279   6.298   3.202  1.4614  0.7899 -0.1749
  178SAPS  H16S20348   3.175   6.226   3.320  2.1132 -1.3772 -2.9164
  178SAPS  C21720349   3.357   6.280   3.404 -0.3796 -0.5390  1.0698
  178SAPS  H17R20350   3.437   6.356   3.413 -0.9968  0.0258  1.9386
  178SAPS  H17S20351   3.399   6.182   3.371 -2.9088 -1.4435  0.2857
  178SAPS  C21820352   3.316   6.267   3.548 -0.4220 -0.2091 -0.1160
  178SAPS  H18R20353   3.221   6.209   3.550 -1.1559  0.9067 -0.8418
  178SAPS  H18S20354   3.292   6.359   3.607  0.0201 -1.9361  2.9421
  178SAPS  C21920355   3.421   6.192   3.634  0.1726  0.2066  0.6954
  178SAPS  H19R20356   3.511   6.258   3.635 -0.6558  1.5568 -2.1722
  178SAPS  H19S20357   3.448   6.093   3.592 -3.0017 -0.9258  1.0893
  178SAPS  C22020358   3.369   6.171   3.784 -0.8462 -0.1778  0.1573
  178SAPS  H20R20359   3.304   6.082   3.786  0.2921 -1.0448 -0.0821
  178SAPS  H20S20360   3.316   6.265   3.811  1.2561  1.1209  0.0542
  178SAPS  H20T20361   3.451   6.145   3.854 -1.3123 -1.3311  0.2884
  178SAPS   C3320362   3.226   5.711   2.612  0.2571 -0.5996 -0.5598
  178SAPS   H3X20363   3.315   5.762   2.570  1.8339  0.4410  3.5768
  178SAPS   H3Y20364   3.241   5.601   2.605 -2.0912 -0.9441 -1.2671
  178SAPS   C3420365   3.198   5.735   2.761 -0.1028 -0.3835  0.3147
  178SAPS   H4X20366   3.094   5.701   2.784  0.1836 -0.5558  1.3851
  178SAPS   H4Y20367   3.191   5.844   2.779 -0.6872 -0.4829  0.7199
  178SAPS   C3520368   3.293   5.664   2.857 -0.3404  0.2970  0.3891
  178SAPS   H5X20369   3.291   5.555   2.833  0.2124 -0.2532  2.6470
  178SAPS   H5Y20370   3.235   5.675   2.951 -2.0994 -0.8466 -0.5086
  178SAPS   C3620371   3.429   5.734   2.859  0.3264 -0.7683 -0.3822
  178SAPS   H6X20372   3.425   5.840   2.891 -1.3099 -0.1246 -2.4763
  178SAPS   H6Y20373   3.447   5.748   2.750 -3.2852  2.3120 -0.7716
  178SAPS   C3720374   3.546   5.660   2.915 -0.4056  0.5651 -0.4471
  178SAPS   H7X20375   3.631   5.724   2.884  0.4757 -1.1618 -1.7445
  178SAPS   H7Y20376   3.564   5.561   2.868  0.6898  0.7392 -0.4003
  178SAPS   C3820377   3.532   5.637   3.071  0.5870 -0.3041 -0.0555
  178SAPS   H8X20378   3.448   5.567   3.089 -0.0005  0.1580 -0.9196
  178SAPS   H8Y20379   3.508   5.737   3.115  1.4939  0.1472 -0.5548
  178SAPS   C3920380   3.651   5.562   3.135  0.0092 -0.6128 -0.4966
  178SAPS   H9X20381   3.728   5.639   3.154 -1.9780  1.1716  0.7497
  178SAPS   H9Y20382   3.699   5.484   3.072  4.7974  1.3640  0.2936
  178SAPS  C31020383   3.615   5.508   3.269  0.1504 -0.6210 -0.3788
  178SAPS  H10X20384   3.574   5.405   3.256  0.6055 -0.8813  0.1952
  178SAPS  H10Y20385   3.543   5.565   3.332 -1.4241 -3.8074  0.9472
  178SAPS  C31120386   3.732   5.488   3.362  0.0690  0.1283 -0.9539
  178SAPS  H11X20387   3.792   5.581   3.360 -1.7322  1.3664 -0.0621
  178SAPS  H11Y20388   3.804   5.412   3.323  2.3970  1.1471  1.0714
  178SAPS  C31220389   3.704   5.459   3.506  0.2102  0.1322  0.8902
  178SAPS  H12X20390   3.617   5.391   3.518  0.1196  0.1451  0.3122
  178SAPS  H12Y20391   3.681   5.553   3.562 -1.0144  0.2931  0.1520
  178SAPS  C31320392   3.820   5.396   3.578  0.1427 -0.1279 -0.8179
  178SAPS  H13X20393   3.908   5.463   3.573 -0.2092  0.7700  2.6312
  178SAPS  H13Y20394   3.841   5.299   3.527  5.4507  0.5969 -0.6320
  178SAPS  C31420395   3.790   5.385   3.734 -0.6787  0.1630 -0.3631
  178SAPS  H14X20396   3.695   5.327   3.742  0.2032 -1.2653  0.0715
  178SAPS  H14Y20397   3.782   5.489   3.773 -1.3732 -0.0452  0.0769
  178SAPS  C31520398   3.908   5.311   3.807  0.7047  0.1213  1.0871
  178SAPS  H15X20399   4.008   5.357   3.797  0.4436  0.4375 -0.2309
  178SAPS  H15Y20400   3.924   5.206   3.774  0.6426 -0.1747  1.9469
  178SAPS  C31620401   3.872   5.304   3.961  0.0516 -0.0626  0.0355
  178SAPS  H16X20402   3.772   5.256   3.969 -0.1997  0.5854  1.0029
  178SAPS  H16Y20403   3.865   5.405   4.008  1.0857  0.0588 -0.0671
  178SAPS  C31720404   3.975   5.226   4.037  0.3722 -0.1151 -0.1380
  178SAPS  H17X20405   4.071   5.256   3.989 -0.4294  1.4317 -0.8359
  178SAPS  H17Y20406   3.952   5.119   4.014  3.1131 -1.0979  1.2471
  178SAPS  C31820407   3.972   5.234   4.191  0.6966  0.0534 -0.5274
  178SAPS  H18X20408   4.002   5.338   4.217 -1.1333  0.9361 -1.7450
  178SAPS  H18Y20409   4.026   5.152   4.243  1.0185 -0.3962 -1.5509
  178SAPS  H18Z20410   3.873   5.215   4.239  1.7955 -2.1011  1.0670
  179SAPS     N20411   5.542   1.577   1.974 -0.3228 -0.4311 -0.1732
  179SAPS   HN120412   5.484   1.631   2.042 -1.0564  0.4058 -1.4289
  179SAPS   HN220413   5.544   1.631   1.886  0.9597 -0.4626 -0.1792
  179SAPS   HN320414   5.491   1.488   1.956 -0.3559 -0.2891 -0.8046
  179SAPS   C1220415   5.671   1.551   2.043 -0.0025  0.1962 -1.0512
  179SAPS  H12A20416   5.714   1.465   1.994 -0.3009 -0.5825  0.0130
  179SAPS   C1320417   5.778   1.660   2.023  0.7310  1.3140  0.0984
  179SAPS  O13A20418   5.744   1.769   1.979  0.7197 -0.1588 -0.1070
  179SAPS  O13B20419   5.874   1.647   2.104 -0.5717  0.1796 -0.1321
  179SAPS   C1120420   5.642   1.536   2.199 -0.4540  0.0210 -0.5949
  179SAPS  H11A20421   5.643   1.640   2.240  0.6325  1.2338 -3.4352
  179SAPS  H11B20422   5.727   1.481   2.245  0.6447  0.7677 -1.6813
  179SAPS     P20423   5.498   1.347   2.312  0.1426  0.2324  0.5239
  179SAPS   O1320424   5.355   1.317   2.336  0.1771 -0.1835 -0.7393
  179SAPS   O1420425   5.589   1.238   2.263  0.4064  0.0724  0.0996
  179SAPS   O1220426   5.517   1.468   2.210  0.7705 -0.0457  0.4904
  179SAPS   O1120427   5.567   1.411   2.441 -1.2007 -0.0300  0.8937
  179SAPS    C120428   5.501   1.417   2.564 -0.3636  0.2268 -0.8803
  179SAPS    HA20429   5.454   1.517   2.561 -2.4326 -0.5095  2.2367
  179SAPS    HB20430   5.426   1.337   2.580 -1.1230  0.3741 -3.2727
  179SAPS    C220431   5.604   1.415   2.683  0.4794 -0.9897  0.6672
  179SAPS    HS20432   5.675   1.499   2.668  0.4256 -1.1510 -0.5905
  179SAPS   O2120433   5.667   1.286   2.680 -0.1232 -0.0142  0.0611
  179SAPS   C2120434   5.798   1.289   2.730  0.9331 -0.6849  0.5607
  179SAPS   O2220435   5.861   1.387   2.765  0.2625 -0.0608  0.5209
  179SAPS   C2220436   5.861   1.152   2.739 -0.3192 -0.5787  0.4013
  179SAPS   H2R20437   5.858   1.109   2.637  0.0717  0.5456 -0.0994
  179SAPS   H2S20438   5.970   1.168   2.755 -0.2027 -0.1556 -0.7326
  179SAPS    C320439   5.528   1.434   2.808  0.1460  0.4948  0.2767
  179SAPS    HX20440   5.482   1.336   2.834  1.4545 -0.3699 -0.5179
  179SAPS    HY20441   5.462   1.523   2.798  1.9674  1.7411 -1.3978
  179SAPS   O3120442   5.624   1.461   2.914 -0.2303 -0.0188 -0.3834
  179SAPS   C3120443   5.557   1.486   3.031  0.0216 -0.6410  0.3797
  179SAPS   O3220444   5.442   1.501   3.047  0.5309  0.2155  0.5801
  179SAPS   C3220445   5.668   1.516   3.130 -0.1633  1.1906  0.2527
  179SAPS   H2X20446   5.706   1.616   3.099  2.5179 -0.0448 -0.7404
  179SAPS   H2Y20447   5.748   1.441   3.114  0.1977  1.3556  1.1741
  179SAPS   C2320448   5.811   1.056   2.846 -0.1269 -0.0682 -0.4007
  179SAPS   H3R20449   5.884   0.972   2.837  0.9831  0.8821 -0.4955
  179SAPS   H3S20450   5.712   1.017   2.813 -0.5435  0.8293 -0.2321
  179SAPS   C2420451   5.812   1.097   2.990  0.7576  0.1348 -0.0838
  179SAPS   H4R20452   5.756   1.193   2.997  0.5346 -0.0719  1.2246
  179SAPS   H4S20453   5.917   1.119   3.018  0.4280 -0.8542  2.1342
  179SAPS   C2520454   5.764   1.000   3.089 -0.0634 -0.6195  0.8291
  179SAPS   H5R20455   5.814   0.905   3.067  1.3645  0.0319  1.1418
  179SAPS   C2620456   5.655   1.009   3.173 -0.6778 -0.5992  0.2974
  179SAPS   H6R20457   5.624   0.934   3.247  1.1855 -0.5511  1.2045
  179SAPS   C2720458   5.560   1.129   3.169  0.2882 -0.8610 -0.2361
  179SAPS   H7R20459   5.552   1.162   3.063 -3.3009 -0.2354  0.0869
  179SAPS   H7S20460   5.597   1.218   3.223 -2.1244  0.1598 -0.1071
  179SAPS   C2820461   5.417   1.099   3.220  0.8626  0.3561  0.2470
  179SAPS   H8R20462   5.338   1.074   3.147  1.6785 -2.1117  0.1351
  179SAPS   C2920463   5.383   1.083   3.346 -0.3190  0.1569 -0.3067
  179SAPS   H9R20464   5.277   1.070   3.372 -0.0450 -0.0106  0.7338
  179SAPS  C21020465   5.466   1.088   3.474  0.0285  0.3450 -0.1644
  179SAPS  H10R20466   5.569   1.107   3.439  1.3313 -2.2596  1.8855
  179SAPS  H10S20467   5.471   0.988   3.523  0.5866 -1.3810 -3.4847
  179SAPS  C21120468   5.412   1.187   3.574  0.3591 -0.0403  0.3433
  179SAPS  H11R20469   5.416   1.292   3.540  0.3138 -0.5494 -1.3121
  179SAPS  C21220470   5.362   1.159   3.692 -0.6804  1.2470 -0.6558
  179SAPS  H12R20471   5.315   1.243   3.745 -0.6036  3.2182 -3.4642
  179SAPS  C21320472   5.369   1.028   3.771  0.5567  0.4541  0.3337
  179SAPS  H13R20473   5.391   1.057   3.875  1.4530  1.7223 -0.1891
  179SAPS  H13S20474   5.449   0.958   3.740  0.0755 -0.2263  0.5998
  179SAPS  C21420475   5.235   0.951   3.756  0.2980 -0.2366 -0.5520
  179SAPS  H14R20476   5.169   0.967   3.669 -1.0757 -0.3862  0.4173
  179SAPS  C21520477   5.184   0.874   3.855 -0.3509 -0.2733 -0.5467
  179SAPS  H15R20478   5.091   0.818   3.839  1.2285 -2.4132 -3.0292
  179SAPS  C21620479   5.236   0.856   3.998  0.8007  0.4007  0.3248
  179SAPS  H16R20480   5.334   0.908   4.006  1.4234 -0.8120  0.7112
  179SAPS  H16S20481   5.263   0.756   4.037 -1.3976  0.9092  3.4892
  179SAPS  C21720482   5.130   0.927   4.084  0.9641  0.3427 -0.3115
  179SAPS  H17R20483   5.097   1.024   4.040  3.1183 -0.0477 -3.0227
  179SAPS  H17S20484   5.182   0.968   4.174  2.5948 -0.5555 -0.8036
  179SAPS  C21820485   5.006   0.840   4.134 -0.5133 -0.3638 -0.0922
  179SAPS  H18R20486   5.035   0.775   4.219 -1.0722  1.5580  1.6673
  179SAPS  H18S20487   4.970   0.775   4.052  1.1375 -0.9077 -0.4090
  179SAPS  C21920488   4.896   0.934   4.177  0.4984 -0.4059 -0.6933
  179SAPS  H19R20489   4.848   0.991   4.095 -0.2898  0.8091  0.5644
  179SAPS  H19S20490   4.942   1.013   4.241  0.7949 -0.8929 -0.2987
  179SAPS  C22020491   4.783   0.862   4.252 -0.1534 -0.4433  0.0464
  179SAPS  H20R20492   4.702   0.931   4.285 -1.6690 -0.6975 -2.8265
  179SAPS  H20S20493   4.829   0.807   4.337 -0.3932 -1.2090 -0.3148
  179SAPS  H20T20494   4.728   0.786   4.193 -0.0528 -1.9573  1.8218
  179SAPS   C3320495   5.620   1.519   3.283  0.2906 -0.1236 -0.0768
  179SAPS   H3X20496   5.571   1.424   3.313  0.6821  0.0477  1.1915
  179SAPS   H3Y20497   5.542   1.599   3.280 -1.0098 -1.2799  1.0134
  179SAPS   C3420498   5.737   1.530   3.376  0.1421 -0.1550  0.0881
  179SAPS   H4X20499   5.705   1.572   3.474 -1.8546  1.1022 -1.0488
  179SAPS   H4Y20500   5.812   1.604   3.340 -0.6819  0.9631  0.6180
  179SAPS   C3520501   5.811   1.394   3.399 -0.0316  0.1671 -1.0580
  179SAPS   H5X20502   5.859   1.384   3.300 -0.0548 -1.5670 -0.9270
  179SAPS   H5Y20503   5.733   1.316   3.415 -1.8809  2.3055  1.3770
  179SAPS   C3620504   5.900   1.389   3.523  0.1363  0.6510  0.0952
  179SAPS   H6X20505   5.960   1.482   3.530 -0.8682  1.2250  4.8561
  179SAPS   H6Y20506   5.968   1.304   3.505 -0.4981 -0.3391  2.0364
  179SAPS   C3720507   5.810   1.368   3.646 -0.4341 -0.0263  0.5795
  179SAPS   H7X20508   5.746   1.278   3.634 -0.9921  0.5568 -1.0491
  179SAPS   H7Y20509   5.743   1.455   3.661  1.1724  1.0276  1.8825
  179SAPS   C3820510   5.890   1.364   3.774 -0.2337  0.7786 -0.7769
  179SAPS   H8X20511   5.913   1.471   3.794  1.4120  0.8502 -2.6556
  179SAPS   H8Y20512   5.985   1.306   3.766 -0.4557  0.0986  1.0116
  179SAPS   C3920513   5.818   1.295   3.896  0.3302 -0.1994  0.8339
  179SAPS   H9X20514   5.881   1.282   3.987 -0.5562  0.7140  1.5934
  179SAPS   H9Y20515   5.795   1.195   3.853 -2.4023 -0.1614  1.9798
  179SAPS  C31020516   5.684   1.361   3.945 -0.1965 -0.7677  0.2558
  179SAPS  H10X20517   5.615   1.384   3.861  0.7770  1.2154 -0.0730
  179SAPS  H10Y20518   5.703   1.463   3.985 -2.3688 -0.3743  0.4460
  179SAPS  C31120519   5.625   1.279   4.048  0.0123  0.9275  0.6855
  179SAPS  H11X20520   5.697   1.245   4.126 -0.8958  1.0546  1.6002
  179SAPS  H11Y20521   5.597   1.185   3.996 -0.4667  1.8903 -0.8509
  179SAPS  C31220522   5.496   1.332   4.108 -0.3240  0.1667 -0.4726
  179SAPS  H12X20523   5.462   1.243   4.164  0.4766 -0.4894 -0.9963
  179SAPS  H12Y20524   5.423   1.357   4.028  0.8755  0.2314 -1.5862
  179SAPS  C31320525   5.509   1.451   4.204  0.2261  0.8118 -0.2137
  179SAPS  H13X20526   5.561   1.528   4.143  2.6434  0.6322  1.4844
  179SAPS  H13Y20527   5.571   1.411   4.287 -1.3624 -0.3446  0.4578
  179SAPS  C31420528   5.376   1.486   4.265  0.0698 -0.9711 -0.2774
  179SAPS  H14X20529   5.303   1.403   4.273 -1.0372  0.1105  1.9870
  179SAPS  H14Y20530   5.334   1.559   4.193 -0.1567 -0.1693  0.6335
  179SAPS  C31520531   5.379   1.546   4.413 -0.0446 -0.0396 -0.0159
  179SAPS  H15X20532   5.437   1.641   4.416  1.6372 -0.7832 -3.3206
  179SAPS  H15Y20533   5.421   1.474   4.486  0.5005  0.2434 -0.0446
  179SAPS  C31620534   5.234   1.571   4.475  0.4446  0.2983  0.1602
  179SAPS  H16X20535   5.242   1.620   4.575  0.6638  0.7498 -0.0744
  179SAPS  H16Y20536   5.198   1.469   4.498  0.0306  0.7449  1.6399
  179SAPS  C31720537   5.121   1.643   4.393  0.3448  0.2869  0.3747
  179SAPS  H17X20538   5.141   1.611   4.289  2.6616  0.4543  0.7240
  179SAPS  H17Y20539   5.144   1.751   4.402 -1.9355  0.9120 -0.3792
  179SAPS  C31820540   4.974   1.629   4.442 -0.0451 -0.5561  0.3493
  179SAPS  H18X20541   4.972   1.661   4.549  1.1238 -4.1640  1.5986
  179SAPS  H18Y20542   4.949   1.521   4.433  0.6183 -0.5595 -2.5395
  179SAPS  H18Z20543   4.904   1.686   4.377  1.3274 -2.1843 -2.7833
  180SAPS     N20544   5.677   0.855   1.958  0.3581 -0.0021 -0.0400
  180SAPS   HN120545   5.608   0.788   1.919  1.2620 -1.6819  1.1457
  180SAPS   HN220546   5.675   0.856   2.062  1.2437 -0.8301 -0.0076
  180SAPS   HN320547   5.658   0.953   1.929  0.0465  0.0289  0.2613
  180SAPS   C1220548   5.820   0.824   1.925  0.0014  0.4845 -0.7663
  180SAPS  H12A20549   5.826   0.722   1.891  0.3623  0.1413  0.2970
  180SAPS   C1320550   5.886   0.902   1.806  0.3884 -1.0559 -0.1794
  180SAPS  O13A20551   5.835   1.001   1.757  0.5861 -0.0425 -0.8012
  180SAPS  O13B20552   5.993   0.858   1.760  0.3110  0.1824 -0.0475
  180SAPS   C1120553   5.909   0.846   2.049  0.3636 -0.1336 -0.4737
  180SAPS  H11A20554   5.891   0.953   2.074  0.9768 -0.0246 -0.4923
  180SAPS  H11B20555   6.018   0.844   2.027  0.6146  1.5812  0.4373
  180SAPS     P20556   5.947   0.618   2.175  0.0705 -0.3481 -0.1118
  180SAPS   O1320557   6.049   0.600   2.073 -0.2534 -0.9679 -0.2988
  180SAPS   O1420558   5.990   0.612   2.312  0.3948  0.4611 -0.4340
  180SAPS   O1220559   5.870   0.755   2.148 -0.0799  0.0316 -0.4177
  180SAPS   O1120560   5.834   0.506   2.149  0.4806 -0.4584 -0.3640
  180SAPS    C120561   5.695   0.520   2.155  0.3273 -0.2479 -1.0168
  180SAPS    HA20562   5.654   0.622   2.138  1.3910  0.7721  1.9100
  180SAPS    HB20563   5.654   0.464   2.068 -0.5312 -2.4380  0.7207
  180SAPS    C220564   5.643   0.441   2.280  0.4752 -0.4187  0.0914
  180SAPS    HS20565   5.532   0.435   2.278  0.5312 -2.3560  0.8922
  180SAPS   O2120566   5.699   0.490   2.407 -0.6904  0.7387 -0.4203
  180SAPS   C2120567   5.644   0.604   2.440  0.6311 -0.9126  0.0842
  180SAPS   O2220568   5.554   0.660   2.378 -0.1344 -0.0331 -0.0414
  180SAPS   C2220569   5.711   0.659   2.574 -0.0730  0.2870 -0.2228
  180SAPS   H2R20570   5.810   0.701   2.544 -1.3765  2.7950 -1.2580
  180SAPS   H2S20571   5.640   0.742   2.594 -3.8171 -2.2288 -1.9358
  180SAPS    C320572   5.672   0.285   2.264 -0.1938 -0.7577 -0.0748
  180SAPS    HX20573   5.782   0.283   2.282 -0.2250 -0.7334  0.1239
  180SAPS    HY20574   5.645   0.252   2.162 -1.5739  1.4370 -0.4911
  180SAPS   O3120575   5.596   0.210   2.360 -0.9817 -0.2368  0.0982
  180SAPS   C3120576   5.665   0.178   2.472 -0.6254 -0.4780 -0.2854
  180SAPS   O3220577   5.784   0.200   2.488  0.1552  0.3571 -0.6847
  180SAPS   C3220578   5.577   0.101   2.575  0.6079 -0.0873 -0.7539
  180SAPS   H2X20579   5.611  -0.003   2.594 -0.3133 -0.2002  0.3255
  180SAPS   H2Y20580   5.482   0.082   2.522  1.2617 -1.6695 -1.4225
  180SAPS   C2320581   5.711   0.550   2.673 -0.5255 -0.5592 -0.6302
  180SAPS   H3R20582   5.744   0.456   2.625 -1.3648 -0.9116 -0.5264
  180SAPS   H3S20583   5.610   0.527   2.713 -0.4349  0.1598  0.0510
  180SAPS   C2420584   5.788   0.590   2.807 -0.2438  0.3098  0.2470
  180SAPS   H4R20585   5.711   0.642   2.867 -0.2648  0.3525  0.1824
  180SAPS   H4S20586   5.876   0.658   2.796  0.1976 -0.1724  0.7338
  180SAPS   C2520587   5.836   0.469   2.881  0.5841 -0.1798  0.6846
  180SAPS   H5R20588   5.912   0.410   2.829 -1.7145 -1.2066 -1.7461
  180SAPS   C2620589   5.795   0.438   3.007 -0.1667  0.3822  1.2088
  180SAPS   H6R20590   5.858   0.364   3.059 -0.0261  0.1876  0.7640
  180SAPS   C2720591   5.684   0.499   3.093  0.3635  0.6961  0.6297
  180SAPS   H7R20592   5.639   0.419   3.155 -0.4286  1.5636  1.1940
  180SAPS   H7S20593   5.602   0.542   3.032  1.3886  2.6185  0.5151
  180SAPS   C2820594   5.734   0.612   3.173 -0.2595 -0.2170 -0.2164
  180SAPS   H8R20595   5.732   0.708   3.119 -0.2008 -0.5693 -0.8548
  180SAPS   C2920596   5.754   0.613   3.307  0.3772  0.4236  0.1986
  180SAPS   H9R20597   5.797   0.701   3.355 -0.6057  1.3319 -0.5507
  180SAPS  C21020598   5.731   0.498   3.401 -0.2013  0.1821  0.7046
  180SAPS  H10R20599   5.654   0.428   3.362  0.6718 -1.3094  1.5598
  180SAPS  H10S20600   5.691   0.527   3.501  1.6298 -0.1248  1.5679
  180SAPS  C21120601   5.870   0.429   3.417 -0.0810  0.9846  0.1419
  180SAPS  H11R20602   5.911   0.382   3.326  1.1241  2.9736 -0.4063
  180SAPS  C21220603   5.942   0.422   3.533  0.6615  0.0924  0.6594
  180SAPS  H12R20604   6.030   0.356   3.542  0.5027 -0.6903 -2.2787
  180SAPS  C21320605   5.898   0.475   3.664 -0.7585  1.4472 -0.2707
  180SAPS  H13R20606   5.790   0.503   3.666 -1.5358 -1.2611  1.2743
  180SAPS  H13S20607   5.942   0.577   3.669  0.5295  1.0057 -1.7996
  180SAPS  C21420608   5.937   0.386   3.782 -0.6654  0.0305  0.3062
  180SAPS  H14R20609   5.882   0.292   3.775  0.5804 -0.6578 -0.5499
  180SAPS  C21520610   6.016   0.424   3.889 -0.2659 -0.4351  0.5699
  180SAPS  H15R20611   6.027   0.348   3.968  0.6222  0.4805  1.3514
  180SAPS  C21620612   6.082   0.556   3.916  0.1266 -0.0244  0.2776
  180SAPS  H16R20613   6.024   0.637   3.866 -1.4561 -0.7404  0.8898
  180SAPS  H16S20614   6.185   0.549   3.874  0.3911 -0.1457  0.9267
  180SAPS  C21720615   6.091   0.608   4.064  0.0164  0.3716 -0.1997
  180SAPS  H17R20616   5.986   0.595   4.098  0.7267 -0.1632  1.9714
  180SAPS  H17S20617   6.133   0.711   4.062 -0.1314  0.4439  0.1961
  180SAPS  C21820618   6.181   0.527   4.165  0.3424 -0.2196  0.0047
  180SAPS  H18R20619   6.276   0.511   4.111  0.2354  4.7920 -2.2178
  180SAPS  H18S20620   6.131   0.430   4.183  0.4501 -0.4159 -0.7626
  180SAPS  C21920621   6.197   0.610   4.297 -1.0276  0.6595  0.2982
  180SAPS  H19R20622   6.098   0.626   4.343 -2.1688 -1.2414 -1.3048
  180SAPS  H19S20623   6.254   0.702   4.276  1.4928 -1.0296 -0.8345
  180SAPS  C22020624   6.281   0.535   4.408 -0.4360 -0.1037  0.3792
  180SAPS  H20R20625   6.213   0.459   4.451 -1.0372  1.8737  3.1810
  180SAPS  H20S20626   6.369   0.478   4.371 -1.3192 -1.2075 -0.0778
  180SAPS  H20T20627   6.300   0.609   4.489 -1.5496  1.1667 -0.4635
  180SAPS   C3320628   5.569   0.177   2.711  0.0945 -0.3522 -0.0656
  180SAPS   H3X20629   5.515   0.274   2.698  1.4639  0.2269 -1.9008
  180SAPS   H3Y20630   5.669   0.209   2.746  0.8043  1.4555 -3.2677
  180SAPS   C3420631   5.492   0.100   2.826 -0.0521 -0.0278 -0.4129
  180SAPS   H4X20632   5.534  -0.003   2.825 -0.1338 -0.0781  0.4667
  180SAPS   H4Y20633   5.389   0.094   2.785 -0.4372  0.9573  0.3719
  180SAPS   C3520634   5.524   0.163   2.965 -0.7296  1.0373  0.1294
  180SAPS   H5X20635   5.490   0.269   2.967 -0.2734  1.2617 -1.7089
  180SAPS   H5Y20636   5.634   0.172   2.980  0.0597 -3.1391 -1.7734
  180SAPS   C3620637   5.469   0.085   3.082  0.4914  0.1139  0.1224
  180SAPS   H6X20638   5.489  -0.024   3.091 -0.6365 -0.1004  0.0805
  180SAPS   H6Y20639   5.362   0.081   3.054  0.9330 -0.9125 -1.5883
  180SAPS   C3720640   5.507   0.168   3.206 -0.1582  0.2247 -0.6016
  180SAPS   H7X20641   5.447   0.261   3.212 -0.0218  0.2183  1.2960
  180SAPS   H7Y20642   5.616   0.189   3.213 -0.1050  0.0837 -0.9852
  180SAPS   C3820643   5.458   0.108   3.335  0.4772  0.2026  0.1331
  180SAPS   H8X20644   5.433   0.002   3.313  0.4339  0.2156  0.1202
  180SAPS   H8Y20645   5.355   0.148   3.350 -1.1831 -3.2547 -0.9169
  180SAPS   C3920646   5.554   0.133   3.451 -0.6903  0.1649 -1.2947
  180SAPS   H9X20647   5.566   0.243   3.463  0.2654 -0.0711  0.0557
  180SAPS   H9Y20648   5.656   0.091   3.439  0.4509  1.7439  1.8507
  180SAPS  C31020649   5.510   0.069   3.586  0.2016 -0.1179  0.0573
  180SAPS  H10X20650   5.500  -0.042   3.579  0.0868 -0.1420  0.5426
  180SAPS  H10Y20651   5.409   0.111   3.602  0.6867  2.0962 -2.2039
  180SAPS  C31120652   5.617   0.091   3.701  0.6168  0.1359  0.4676
  180SAPS  H11X20653   5.649   0.196   3.717  0.3386  0.3904 -0.5412
  180SAPS  H11Y20654   5.710   0.042   3.667 -0.8096 -1.9377 -0.6874
  180SAPS  C31220655   5.561   0.030   3.833 -0.4219 -0.3760 -0.5750
  180SAPS  H12X20656   5.528  -0.073   3.810  0.4819 -0.0607 -3.7657
  180SAPS  H12Y20657   5.464   0.080   3.854 -0.1029 -0.4383  1.1426
  180SAPS  C31320658   5.676   0.031   3.941  0.0994  0.6518 -0.2027
  180SAPS  H13X20659   5.713   0.136   3.951 -2.5663  1.6829 -0.3090
  180SAPS  H13Y20660   5.751  -0.041   3.902  0.7697  1.9120 -1.3388
  180SAPS  C31420661   5.632  -0.023   4.080  0.1356 -0.7199  0.5206
  180SAPS  H14X20662   5.606  -0.131   4.081  0.1981 -0.7397 -0.0422
  180SAPS  H14Y20663   5.543   0.037   4.110  0.7019 -1.1614  3.3310
  180SAPS  C31520664   5.742  -0.007   4.188  0.8422 -0.1434  0.2149
  180SAPS  H15X20665   5.762   0.102   4.197 -0.0977  0.0535  0.1138
  180SAPS  H15Y20666   5.839  -0.042   4.149  0.5157  1.5004 -2.3527
  180SAPS  C31620667   5.690  -0.075   4.314 -0.0746 -0.6676 -0.0430
  180SAPS  H16X20668   5.699  -0.181   4.280  1.2372 -0.4827 -0.3204
  180SAPS  H16Y20669   5.586  -0.039   4.329 -0.4968 -1.3645 -1.1392
  180SAPS  C31720670   5.781  -0.059   4.434  0.5142 -0.4511 -0.6724
  180SAPS  H17X20671   5.756  -0.137   4.509 -2.1793  1.9015  1.0653
  180SAPS  H17Y20672   5.770   0.039   4.485  0.7281 -1.2571  0.9888
  180SAPS  C31820673   5.931  -0.085   4.412  0.3005 -0.5558 -0.3006
  180SAPS  H18X20674   5.951  -0.170   4.343  0.6802 -1.0962  0.4584
  180SAPS  H18Y20675   5.985  -0.106   4.507 -0.3086  1.4099  0.5159
  180SAPS  H18Z20676   5.976   0.011   4.378 -2.0945  0.3381 -1.1418
  181POPC     N20677   4.104   0.807   6.800 -0.6474  0.2651 -0.6843
  181POPC   C1220678   4.144   0.821   6.662  0.5159 -0.5466  0.6705
  181POPC  H12A20679   4.059   0.850   6.602  0.2949 -0.2284  1.1327
  181POPC  H12B20680   4.174   0.727   6.618  1.4477  0.3196 -0.6340
  181POPC   C1320681   4.041   0.933   6.848 -0.3487  1.0220 -0.0006
  181POPC  H13A20682   4.028   0.920   6.954 -0.2737 -1.5286 -0.2330
  181POPC  H13B20683   4.105   1.017   6.826 -0.4266  0.9381 -0.5698
  181POPC  H13C20684   3.953   0.954   6.789  0.2161 -0.4974 -1.4663
  181POPC   C1420685   4.004   0.695   6.789 -0.2637 -0.5975  0.3090
  181POPC  H14A20686   4.044   0.608   6.739 -0.0007  0.8980 -2.2532
  181POPC  H14B20687   3.988   0.651   6.886 -1.0607  1.3984  1.1356
  181POPC  H14C20688   3.913   0.733   6.744  0.6159  3.8309  1.7605
  181POPC   C1520689   4.202   0.775   6.903  0.1931 -0.1914  0.1545
  181POPC  H15A20690   4.250   0.681   6.880  0.8790 -0.4472  2.4327
  181POPC  H15B20691   4.161   0.766   7.002 -0.3101 -0.6953 -0.0939
  181POPC  H15C20692   4.278   0.851   6.904 -0.2177  0.2975 -1.6418
  181POPC   C1120693   4.255   0.926   6.627  0.1527 -0.1078  0.6061
  181POPC  H11A20694   4.283   0.903   6.522 -0.0543 -0.6545  0.6688
  181POPC  H11B20695   4.345   0.897   6.685 -0.0073  1.7580  1.8780
  181POPC     P20696   4.121   1.138   6.571  0.2433  0.0173  0.1866
  181POPC   O1320697   4.040   1.219   6.664 -1.2824 -0.2077  0.4259
  181POPC   O1420698   4.053   1.046   6.479 -0.6047  0.0852 -0.4997
  181POPC   O1220699   4.223   1.060   6.655  0.2913  0.1028 -0.3116
  181POPC   O1120700   4.210   1.244   6.494 -0.2083 -0.0855 -0.1677
  181POPC    C120701   4.173   1.278   6.356  0.5859  0.4335  0.1384
  181POPC    HA20702   4.153   1.387   6.361  0.3921  0.4184 -0.2832
  181POPC    HB20703   4.078   1.235   6.317  0.3357 -1.2649  2.3931
  181POPC    C220704   4.305   1.262   6.266  0.4497  0.4137 -0.4210
  181POPC    HS20705   4.363   1.354   6.285  1.2896  0.0644 -1.1621
  181POPC   O2120706   4.263   1.246   6.130  0.4010 -0.0833  0.4451
  181POPC   C2120707   4.226   1.362   6.074 -0.5361  0.2686  0.3797
  181POPC   O2220708   4.230   1.472   6.133 -0.1573  0.1456 -0.0522
  181POPC   C2220709   4.201   1.330   5.928  0.3805 -0.8341 -0.5792
  181POPC   H2R20710   4.158   1.228   5.922 -0.3294 -0.8914  3.0512
  181POPC   H2S20711   4.303   1.340   5.887  0.3740  0.2280 -0.3811
  181POPC    C320712   4.393   1.140   6.300 -0.3461 -0.5508 -0.2771
  181POPC    HX20713   4.332   1.047   6.302 -1.9361  0.4671 -0.0404
  181POPC    HY20714   4.423   1.137   6.407 -3.2386  0.0038  0.6437
  181POPC   O3120715   4.502   1.119   6.213  0.3747  0.0650 -0.1213
  181POPC   C3120716   4.612   1.183   6.253 -0.2463 -0.0081  0.4824
  181POPC   O3220717   4.628   1.256   6.350 -0.2126  0.3281  0.2078
  181POPC   C3220718   4.727   1.150   6.151 -0.1155  0.1441 -0.2091
  181POPC   H2X20719   4.701   1.043   6.130  0.0722 -0.7308  3.4365
  181POPC   H2Y20720   4.831   1.169   6.182 -0.1416  1.2115 -0.7506
  181POPC   C2320721   4.114   1.435   5.864  0.2394  0.0936  0.2141
  181POPC   H3R20722   4.146   1.539   5.885  1.6311 -0.3428  0.3758
  181POPC   H3S20723   4.009   1.431   5.901 -0.0253  0.6117 -0.4701
  181POPC   C2420724   4.118   1.416   5.710  0.4867  0.0627  0.3328
  181POPC   H4R20725   4.099   1.310   5.680 -2.4766  0.5911  0.1025
  181POPC   H4S20726   4.211   1.460   5.667 -0.6128  1.7466 -0.4455
  181POPC   C2520727   4.010   1.495   5.635  0.2332 -0.3640 -0.3674
  181POPC   H5R20728   4.004   1.602   5.664  1.2707  0.3106 -2.4761
  181POPC   H5S20729   3.919   1.435   5.658  0.6010 -0.4225  0.9881
  181POPC   C2620730   4.029   1.487   5.486  0.2462  0.1736  0.7487
  181POPC   H6R20731   4.030   1.381   5.454  2.5249  0.5413 -0.6074
  181POPC   H6S20732   4.126   1.527   5.450  0.8488 -2.4870 -0.8452
  181POPC   C2720733   3.906   1.553   5.422  0.2262 -0.0087  0.4201
  181POPC   H7R20734   3.899   1.654   5.468  0.9228  0.2797 -0.0793
  181POPC   H7S20735   3.818   1.490   5.448 -0.0732  0.0352 -0.4363
  181POPC   C2820736   3.905   1.552   5.263 -0.4876 -0.6744  0.0131
  181POPC   H8R20737   3.809   1.594   5.223  0.9558  2.3322 -0.6089
  181POPC   H8S20738   3.904   1.446   5.229  0.0532 -0.4403 -0.7668
  181POPC   C2920739   4.030   1.619   5.201  0.2945  1.3126 -0.5258
  181POPC   H9120740   4.105   1.667   5.266  0.3790  0.6229 -0.1092
  181POPC  C21020741   4.051   1.614   5.069 -0.6743  0.0851  0.1430
  181POPC  H10120742   4.144   1.659   5.030 -0.4509 -1.3025 -0.9957
  181POPC  C21120743   3.958   1.572   4.954 -0.4931  0.4720 -0.2017
  181POPC  H11R20744   3.939   1.463   4.951  0.5043  0.2902  0.0281
  181POPC  H11S20745   4.011   1.600   4.861 -1.4089  2.2522 -0.2378
  181POPC  C21220746   3.824   1.638   4.937 -0.6099  0.6346  0.2537
  181POPC  H12R20747   3.801   1.721   5.008 -0.7133  1.9268 -1.2477
  181POPC  H12S20748   3.744   1.562   4.951  0.9659 -0.8481  1.7904
  181POPC  C21320749   3.808   1.692   4.795  0.0227 -0.2865  0.5005
  181POPC  H13R20750   3.809   1.608   4.722  1.4188 -0.4262  0.6533
  181POPC  H13S20751   3.895   1.754   4.765 -0.3697 -0.0785 -0.2438
  181POPC  C21420752   3.676   1.777   4.796 -0.1408  0.0167  0.8026
  181POPC  H14R20753   3.689   1.861   4.868  0.4442 -1.7016  2.8192
  181POPC  H14S20754   3.589   1.718   4.830 -0.9348  1.2552  0.9992
  181POPC  C21520755   3.652   1.841   4.657  0.2680  0.5690  0.1086
  181POPC  H15R20756   3.568   1.913   4.667 -1.6042 -0.9588 -2.9739
  181POPC  H15S20757   3.632   1.768   4.576 -0.0477  1.2227 -0.4092
  181POPC  C21620758   3.769   1.935   4.619  0.5976  0.0246  0.3353
  181POPC  H16R20759   3.861   1.879   4.592  0.6044  0.1125  0.1710
  181POPC  H16S20760   3.792   1.993   4.711  1.8191  1.0509 -0.5804
  181POPC  C21720761   3.743   2.036   4.498  0.5469 -0.0410  0.9147
  181POPC  H17R20762   3.674   2.111   4.544  0.8826  1.0789 -0.3394
  181POPC  H17S20763   3.678   1.984   4.425  0.6086  1.5394 -0.3269
  181POPC  C21820764   3.865   2.092   4.428 -0.3614 -0.2875  0.0848
  181POPC  H18R20765   3.926   2.025   4.364 -0.0545  0.1265 -0.0641
  181POPC  H18S20766   3.920   2.143   4.509 -1.8631 -0.7265  1.4240
  181POPC  H18T20767   3.837   2.175   4.359 -0.6032  0.9286  1.5909
  181POPC   C3320768   4.689   1.239   6.025  0.5938  0.4717 -0.1154
  181POPC   H3X20769   4.584   1.219   5.992  0.5320 -0.8670  0.7913
  181POPC   H3Y20770   4.753   1.205   5.941  1.2846  1.5401 -0.0385
  181POPC   C3420771   4.710   1.389   6.041 -0.7684  0.1870 -0.1700
  181POPC   H4X20772   4.814   1.402   6.079 -0.6219  1.9450 -1.0562
  181POPC   H4Y20773   4.639   1.432   6.116 -0.7622 -0.0623 -0.0223
  181POPC   C3520774   4.683   1.465   5.913  0.6717  0.2874 -0.6819
  181POPC   H5X20775   4.588   1.431   5.867 -1.1458 -1.4751  3.8371
  181POPC   H5Y20776   4.768   1.451   5.842  0.4142  1.1775 -1.1792
  181POPC   C3620777   4.660   1.611   5.940 -0.0800 -0.2122 -0.2244
  181POPC   H6X20778   4.746   1.661   5.890  1.3872 -1.0692  1.3312
  181POPC   H6Y20779   4.667   1.630   6.049 -2.4123  0.4087 -0.1388
  181POPC   C3720780   4.516   1.661   5.896 -0.1023 -0.6045 -0.7367
  181POPC   H7X20781   4.513   1.763   5.939  0.7586 -1.1721  0.7592
  181POPC   H7Y20782   4.439   1.600   5.950 -0.7239 -1.0596 -2.0966
  181POPC   C3820783   4.490   1.674   5.745 -0.1960 -0.4792  0.5674
  181POPC   H8X20784   4.471   1.577   5.695 -1.5948 -0.1435  0.3886
  181POPC   H8Y20785   4.575   1.725   5.696 -0.1111  2.1072  3.1112
  181POPC   C3920786   4.369   1.769   5.717  0.0342  0.5782  0.7427
  181POPC   H9X20787   4.400   1.875   5.729  1.9101  0.4078 -1.8739
  181POPC   H9Y20788   4.303   1.737   5.801 -0.6179 -0.5753 -0.1820
  181POPC  C31020789   4.314   1.758   5.578 -0.4040 -0.3304 -0.4475
  181POPC  H10X20790   4.210   1.794   5.564 -0.7041 -1.3665 -0.9934
  181POPC  H10Y20791   4.306   1.648   5.567 -0.5071 -0.6876  2.3983
  181POPC  C31120792   4.415   1.819   5.474 -0.2875 -0.2663  0.8024
  181POPC  H11X20793   4.519   1.785   5.492  0.3272  1.4976  0.8302
  181POPC  H11Y20794   4.426   1.930   5.478  1.1408 -0.2432 -1.9915
  181POPC  C31220795   4.372   1.781   5.331 -0.2578 -0.2192  0.1016
  181POPC  H12X20796   4.262   1.787   5.316 -0.0417  0.3349 -1.5082
  181POPC  H12Y20797   4.379   1.670   5.324 -1.0644 -0.2977  0.4116
  181POPC  C31320798   4.451   1.846   5.221 -0.2648  0.4832  0.1925
  181POPC  H13X20799   4.458   1.772   5.139 -2.5063 -0.1515  0.5066
  181POPC  H13Y20800   4.555   1.855   5.260 -0.1818 -0.9771  0.3810
  181POPC  C31420801   4.393   1.977   5.160  0.1865  1.0184  0.0461
  181POPC  H14X20802   4.419   2.055   5.234  1.7797  0.0437  0.5581
  181POPC  H14Y20803   4.285   1.964   5.138  0.1667  2.4604 -0.8061
  181POPC  C31520804   4.472   2.013   5.033 -0.3153 -0.2977 -0.2326
  181POPC  H15X20805   4.469   1.938   4.951 -0.0288  0.2366 -0.7446
  181POPC  H15Y20806   4.572   2.035   5.076 -0.6834  0.5384  0.2229
  181POPC  C31620807   4.422   2.151   4.984  0.1484  0.2366 -0.2742
  181POPC  H16X20808   4.494   2.192   4.910  2.5328 -2.3391  0.4159
  181POPC  H16Y20809   4.418   2.220   5.071  0.1598 -0.1618  0.0432
  181POPC  H16Z20810   4.319   2.136   4.946  0.5609  0.9029 -1.7164
  182POPC     N20811   1.753   0.448   7.026 -0.0899  0.2049 -0.7334
  182POPC   C1220812   1.613   0.448   6.974  0.0941 -0.0452 -0.5653
  182POPC  H12A20813   1.565   0.481   7.065  2.1308 -1.6537  1.1960
  182POPC  H12B20814   1.573   0.349   6.962 -0.4231 -0.2904  2.5079
  182POPC   C1320815   1.750   0.362   7.148 -0.5846  1.0371  0.2475
  182POPC  H13A20816   1.693   0.410   7.226 -1.5253  1.0856 -0.4550
  182POPC  H13B20817   1.699   0.267   7.148 -0.0300  0.7091 -0.9688
  182POPC  H13C20818   1.851   0.335   7.175 -0.2180  0.9846 -1.0805
  182POPC   C1420819   1.841   0.371   6.930  0.3894  0.3282 -0.1093
  182POPC  H14A20820   1.947   0.374   6.954  0.2345  1.5597  0.5019
  182POPC  H14B20821   1.805   0.270   6.923 -2.9522  1.4965 -2.4883
  182POPC  H14C20822   1.826   0.407   6.829  1.0282  0.7480 -0.0651
  182POPC   C1520823   1.809   0.580   7.053 -0.3096  0.2819 -0.0538
  182POPC  H15A20824   1.811   0.643   6.965  2.2537  2.2871  1.2807
  182POPC  H15B20825   1.909   0.573   7.092 -0.4742 -2.2127  0.0737
  182POPC  H15C20826   1.753   0.633   7.130  0.1565  1.0144 -0.2103
  182POPC   C1120827   1.561   0.545   6.869 -0.3514  0.5264  0.4070
  182POPC  H11A20828   1.571   0.649   6.909 -0.0824  0.5395  0.3049
  182POPC  H11B20829   1.453   0.524   6.855  0.0890 -1.6139 -0.0401
  182POPC     P20830   1.617   0.413   6.651  0.5812  0.1788  0.1267
  182POPC   O1320831   1.476   0.421   6.602 -0.1728  0.0367  0.2445
  182POPC   O1420832   1.657   0.284   6.711  0.2698 -0.0212 -0.4996
  182POPC   O1220833   1.644   0.539   6.747  0.4977 -0.4172 -0.1642
  182POPC   O1120834   1.712   0.449   6.526 -0.6809  1.0782 -0.3407
  182POPC    C120835   1.772   0.349   6.448  0.1236  0.4189  0.9194
  182POPC    HA20836   1.695   0.279   6.409  0.9687 -2.0791  3.4163
  182POPC    HB20837   1.843   0.294   6.512  2.5123 -0.3143 -2.1530
  182POPC    C220838   1.853   0.415   6.331 -0.1853  0.1996 -0.2619
  182POPC    HS20839   1.932   0.480   6.374 -0.2887 -0.9842  1.8769
  182POPC   O2120840   1.763   0.484   6.245  0.2999  0.4067  0.1128
  182POPC   C2120841   1.818   0.600   6.197  0.8247  0.4936  0.3323
  182POPC   O2220842   1.929   0.639   6.219 -0.1220  0.1335  0.1077
  182POPC   C2220843   1.710   0.666   6.107 -0.0070  0.2638  0.6231
  182POPC   H2R20844   1.623   0.680   6.175 -2.1490 -2.1075 -1.4486
  182POPC   H2S20845   1.664   0.589   6.042  1.4255  1.1499 -1.5637
  182POPC    C320846   1.922   0.301   6.256  0.8440 -0.2189 -0.1889
  182POPC    HX20847   1.838   0.261   6.195 -1.3758  3.1842  0.3572
  182POPC    HY20848   1.952   0.216   6.321 -0.6936  0.4528  1.4651
  182POPC   O3120849   2.026   0.350   6.171 -0.5060  0.1214  0.2568
  182POPC   C3120850   2.049   0.287   6.057  0.4023  0.3729 -0.0885
  182POPC   O3220851   1.983   0.187   6.022 -0.3693  0.2562 -0.5687
  182POPC   C3220852   2.161   0.355   5.968  0.0861 -0.2592 -0.5696
  182POPC   H2X20853   2.250   0.362   6.033 -0.0194 -1.6389 -0.2506
  182POPC   H2Y20854   2.132   0.461   5.947 -3.0663 -1.3876 -2.6234
  182POPC   C2320855   1.767   0.793   6.047 -0.5245 -0.3044  0.0496
  182POPC   H3R20856   1.816   0.859   6.122  0.4735 -0.5263 -0.3940
  182POPC   H3S20857   1.686   0.848   5.993 -0.9243  0.4073  1.3064
  182POPC   C2420858   1.870   0.760   5.937 -0.6041  0.0729 -0.2480
  182POPC   H4R20859   1.967   0.724   5.977  0.5473  4.0539  0.9972
  182POPC   H4S20860   1.892   0.858   5.890  1.1421 -0.7668 -1.2627
  182POPC   C2520861   1.820   0.661   5.830  0.1689 -0.6609 -0.0094
  182POPC   H5R20862   1.720   0.690   5.791  0.8455  0.5495 -0.9058
  182POPC   H5S20863   1.810   0.558   5.871 -0.3784 -0.4489  0.3882
  182POPC   C2620864   1.918   0.677   5.713 -0.5001  0.1169 -0.5541
  182POPC   H6R20865   2.010   0.645   5.767 -0.6193  1.8605  0.7811
  182POPC   H6S20866   1.940   0.779   5.675  0.5075 -0.2091 -0.8672
  182POPC   C2720867   1.885   0.589   5.592 -0.0785  0.3134  0.1767
  182POPC   H7R20868   1.854   0.488   5.625  0.0815  0.1126 -0.2824
  182POPC   H7S20869   1.983   0.583   5.539  1.1258 -1.7829  2.4127
  182POPC   C2820870   1.767   0.653   5.517  0.2432  0.4394  0.8413
  182POPC   H8R20871   1.788   0.757   5.484  0.7608 -0.4198 -1.8041
  182POPC   H8S20872   1.683   0.661   5.589  0.1231 -0.8290  0.8543
  182POPC   C2920873   1.725   0.575   5.396 -0.1031 -0.3170  0.6906
  182POPC   H9120874   1.670   0.482   5.419 -0.6428 -1.0717 -2.9981
  182POPC  C21020875   1.753   0.604   5.264 -0.5664 -0.8839 -0.2337
  182POPC  H10120876   1.727   0.540   5.178 -0.2710  0.1024 -1.0812
  182POPC  C21120877   1.841   0.720   5.225  0.6135 -0.3327 -0.8117
  182POPC  H11R20878   1.934   0.715   5.285 -0.7326  0.7726  1.5038
  182POPC  H11S20879   1.785   0.815   5.241  0.7187 -0.3202 -0.5176
  182POPC  C21220880   1.883   0.708   5.076 -0.4053 -0.4186  0.9815
  182POPC  H12R20881   1.954   0.622   5.073  0.6931  0.2094  4.2260
  182POPC  H12S20882   1.937   0.799   5.042 -1.2968 -1.4520 -3.9959
  182POPC  C21320883   1.771   0.702   4.966  0.5745 -0.3668  0.3191
  182POPC  H13R20884   1.686   0.753   5.015  0.4535  0.7118 -0.9622
  182POPC  H13S20885   1.730   0.599   4.959  1.1744 -0.7111  1.4592
  182POPC  C21420886   1.796   0.764   4.829  1.0668  0.7000 -0.4747
  182POPC  H14R20887   1.895   0.732   4.790  1.2725  2.2726 -1.3344
  182POPC  H14S20888   1.796   0.875   4.837  0.6487  0.7307 -0.8123
  182POPC  C21520889   1.694   0.721   4.720 -0.1272 -0.0207  0.1675
  182POPC  H15R20890   1.589   0.732   4.752 -0.0999  0.3002  0.1563
  182POPC  H15S20891   1.711   0.615   4.693 -1.9594 -0.6552  1.3415
  182POPC  C21620892   1.707   0.790   4.582 -0.4571 -0.7938  0.3451
  182POPC  H16R20893   1.809   0.769   4.543 -0.7597 -0.3697 -0.7205
  182POPC  H16S20894   1.685   0.898   4.588 -3.2145 -1.2215 -0.3930
  182POPC  C21720895   1.621   0.721   4.477 -0.1293 -0.6334  0.2193
  182POPC  H17R20896   1.514   0.725   4.506 -0.5441 -1.3550 -1.1355
  182POPC  H17S20897   1.649   0.614   4.466 -0.2715 -0.5486 -1.1724
  182POPC  C21820898   1.635   0.776   4.335  0.4741  0.2017 -0.0995
  182POPC  H18R20899   1.621   0.886   4.347  2.1322  0.3648  0.6263
  182POPC  H18S20900   1.558   0.733   4.268 -1.2626 -0.4584  2.1854
  182POPC  H18T20901   1.726   0.747   4.279 -0.4584 -1.9711 -0.6097
  182POPC   C3320902   2.210   0.289   5.842  0.0590 -0.1546  0.3934
  182POPC   H3X20903   2.241   0.185   5.865 -2.1587 -1.1104 -0.6615
  182POPC   H3Y20904   2.300   0.348   5.811 -0.8641  0.9306 -0.3141
  182POPC   C3420905   2.120   0.289   5.720  0.2312 -0.0537 -0.7944
  182POPC   H4X20906   2.108   0.397   5.695  0.2080 -0.0466 -0.7531
  182POPC   H4Y20907   2.018   0.249   5.743  0.7127 -1.3127 -0.7747
  182POPC   C3520908   2.164   0.215   5.589  0.3731  0.0573 -0.3975
  182POPC   H5X20909   2.175   0.106   5.604  1.3860  0.2988  0.7905
  182POPC   H5Y20910   2.261   0.267   5.574 -0.5391  1.4938 -1.5450
  182POPC   C3620911   2.063   0.247   5.484 -0.2004 -0.2375 -0.2130
  182POPC   H6X20912   2.025   0.351   5.497  0.8124 -0.0711  1.7034
  182POPC   H6Y20913   1.973   0.185   5.506  0.4145 -0.6265  1.3122
  182POPC   C3720914   2.127   0.238   5.346  0.2568 -0.5806  0.7714
  182POPC   H7X20915   2.173   0.139   5.328 -1.5342 -1.3159  0.0443
  182POPC   H7Y20916   2.208   0.314   5.354 -1.5925  1.6121 -0.1951
  182POPC   C3820917   2.032   0.287   5.235  0.2386 -0.5050  0.2566
  182POPC   H8X20918   2.003   0.390   5.264 -1.7465 -0.6625 -1.0267
  182POPC   H8Y20919   1.941   0.224   5.244 -1.7353  1.9137 -1.4795
  182POPC   C3920920   2.094   0.291   5.094  0.8894  0.3279 -0.2774
  182POPC   H9X20921   2.112   0.183   5.073 -0.0933 -0.1322  1.0802
  182POPC   H9Y20922   2.188   0.349   5.097  1.3726 -0.3677 -1.2937
  182POPC  C31020923   1.993   0.336   4.992  0.2150  0.2568  0.0813
  182POPC  H10X20924   1.973   0.444   5.004  0.0841  0.2723 -0.2368
  182POPC  H10Y20925   1.895   0.283   4.994  1.2856 -1.8168  2.3509
  182POPC  C31120926   2.027   0.312   4.847 -0.1598 -0.1145 -0.6045
  182POPC  H11X20927   1.933   0.328   4.790 -1.9418  3.6927  2.8712
  182POPC  H11Y20928   2.042   0.203   4.828  3.2795 -0.5024  2.9438
  182POPC  C31220929   2.142   0.395   4.806  0.0086  0.6055  0.1098
  182POPC  H12X20930   2.240   0.358   4.844  1.2026  2.4706 -0.9792
  182POPC  H12Y20931   2.130   0.499   4.846 -0.3943  0.2443  0.9604
  182POPC  C31320932   2.155   0.403   4.650  0.0262  1.1273 -0.5063
  182POPC  H13X20933   2.105   0.315   4.605 -2.9189  2.9467 -1.1358
  182POPC  H13Y20934   2.264   0.404   4.629  0.1408  2.5577 -0.0144
  182POPC  C31420935   2.086   0.529   4.587 -0.1860  0.2207 -0.5411
  182POPC  H14X20936   2.100   0.620   4.650 -0.1973  0.2588 -0.5938
  182POPC  H14Y20937   1.977   0.510   4.586 -0.4574  1.5628 -2.3564
  182POPC  C31520938   2.134   0.547   4.448  0.2406  0.3133  0.6105
  182POPC  H15X20939   2.245   0.544   4.445  0.3774 -3.2820 -4.0760
  182POPC  H15Y20940   2.093   0.645   4.415 -2.4304 -0.6709  0.7832
  182POPC  C31620941   2.087   0.424   4.354  0.6779 -0.2845  0.1967
  182POPC  H16X20942   2.132   0.327   4.383  0.8561 -0.7548 -1.5699
  182POPC  H16Y20943   2.099   0.431   4.244  1.2934  1.6289  0.3463
  182POPC  H16Z20944   1.979   0.408   4.375  0.0625  0.9045 -1.8342
  183POPC     N20945   3.250   4.832   6.548 -0.3317  0.3991  0.3744
  183POPC   C1220946   3.388   4.888   6.508 -0.4341 -1.1288  0.6191
  183POPC  H12A20947   3.451   4.803   6.529 -0.5807 -1.5372 -0.5604
  183POPC  H12B20948   3.424   4.969   6.571  2.0923 -2.2568  0.7676
  183POPC   C1320949   3.145   4.926   6.505 -0.2593 -0.4153  0.7498
  183POPC  H13A20950   3.044   4.886   6.505 -0.0669 -0.9421 -0.4921
  183POPC  H13B20951   3.155   5.018   6.561  3.2676 -0.7151  0.8298
  183POPC  H13C20952   3.158   4.957   6.403  1.1448  0.7238  1.2441
  183POPC   C1420953   3.247   4.698   6.486 -0.3614  0.6656  0.0944
  183POPC  H14A20954   3.283   4.707   6.384 -2.3338 -1.2381 -0.8573
  183POPC  H14B20955   3.314   4.627   6.532  0.1012  0.8990 -0.2114
  183POPC  H14C20956   3.154   4.643   6.495  0.4011 -1.0863 -1.9055
  183POPC   C1520957   3.240   4.821   6.691  0.3373 -0.0941  0.6524
  183POPC  H15A20958   3.160   4.761   6.732 -2.4012  1.3469 -2.1408
  183POPC  H15B20959   3.255   4.916   6.741  0.1454  1.3117 -1.7898
  183POPC  H15C20960   3.322   4.757   6.719  0.9194 -0.8957 -2.4796
  183POPC   C1120961   3.417   4.923   6.355  0.3647  0.0192 -0.4797
  183POPC  H11A20962   3.345   5.000   6.318  0.8089  0.6854  0.0132
  183POPC  H11B20963   3.396   4.832   6.295 -0.6743 -1.1271  1.5005
  183POPC     P20964   3.611   5.104   6.326  0.0868 -0.3748  0.2884
  183POPC   O1320965   3.757   5.084   6.354  0.2366 -0.4188 -0.0757
  183POPC   O1420966   3.544   5.200   6.407 -0.6138  0.2714  0.2585
  183POPC   O1220967   3.552   4.962   6.347 -0.5364  0.1836  0.4894
  183POPC   O1120968   3.589   5.138   6.169 -0.0196 -0.3523  0.0758
  183POPC    C120969   3.593   5.035   6.065 -0.4691  0.7908  0.1576
  183POPC    HA20970   3.552   5.073   5.969 -0.3235  1.1964  0.2522
  183POPC    HB20971   3.541   4.942   6.097  0.6299 -0.8057 -2.3136
  183POPC    C220972   3.737   4.994   6.028  0.1984 -0.5134 -0.1319
  183POPC    HS20973   3.791   4.969   6.122 -0.0056 -0.0910  0.1016
  183POPC   O2120974   3.789   5.107   5.962 -0.2709  0.1984 -0.3090
  183POPC   C2120975   3.921   5.129   5.967  0.4040  0.0441 -0.0732
  183POPC   O2220976   4.001   5.078   6.042  0.8124 -0.0793 -0.7410
  183POPC   C2220977   3.953   5.236   5.862  0.0626 -0.1352  0.7034
  183POPC   H2R20978   3.947   5.334   5.914  1.5667  1.0240 -1.1833
  183POPC   H2S20979   3.878   5.224   5.781  0.7355  0.4221 -0.0194
  183POPC    C320980   3.738   4.870   5.938 -1.2202  0.3309 -0.7484
  183POPC    HX20981   3.701   4.782   5.994  1.8610 -0.4723  0.2230
  183POPC    HY20982   3.845   4.850   5.918 -0.7629  1.7098  0.1733
  183POPC   O3120983   3.661   4.882   5.820  0.8838  0.3754 -0.0093
  183POPC   C3120984   3.726   4.918   5.710 -0.0582  1.0566  0.0282
  183POPC   O3220985   3.848   4.925   5.697 -0.2793  0.0582  0.0940
  183POPC   C3220986   3.618   4.945   5.606 -0.5457 -0.0958 -0.4117
  183POPC   H2X20987   3.550   5.027   5.638 -1.4850 -1.0800  0.2111
  183POPC   H2Y20988   3.550   4.858   5.616 -2.6324  1.6203  1.4887
  183POPC   C2320989   4.094   5.216   5.791 -0.4567 -0.6370  0.1148
  183POPC   H3R20990   4.114   5.109   5.771 -0.0353 -0.6742  0.7098
  183POPC   H3S20991   4.175   5.264   5.849  0.4502  1.2424 -2.4985
  183POPC   C2420992   4.092   5.295   5.662 -0.2757 -0.4125 -0.7524
  183POPC   H4R20993   4.068   5.399   5.690  0.5805  0.1361 -1.9534
  183POPC   H4S20994   4.007   5.267   5.596 -1.4323 -0.2492  0.6329
  183POPC   C2520995   4.229   5.284   5.585 -0.0760 -0.6632  0.8228
  183POPC   H5R20996   4.240   5.177   5.559 -2.0328 -0.4063 -1.4160
  183POPC   H5S20997   4.312   5.305   5.656  1.8074  1.1843 -1.7451
  183POPC   C2620998   4.256   5.390   5.478  0.1016  0.0815  0.3166
  183POPC   H6R20999   4.229   5.486   5.526 -0.4687 -0.9286  2.1159
  183POPC   H6S21000   4.191   5.381   5.389 -1.8426  0.8192  1.5805
  183POPC   C2721001   4.403   5.377   5.437  0.8811  0.3477 -0.0621
  183POPC   H7R21002   4.401   5.267   5.419 -3.3763 -0.1172  2.0528
  183POPC   H7S21003   4.471   5.395   5.522  0.6705  1.0296 -0.0329
  183POPC   C2821004   4.450   5.457   5.318  0.3354 -0.3586  0.1868
  183POPC   H8R21005   4.375   5.437   5.239 -1.7377  1.5337  1.5522
  183POPC   H8S21006   4.547   5.413   5.289 -0.0130 -1.7512  1.0171
  183POPC   C2921007   4.457   5.608   5.316 -0.1553 -0.1500  0.2993
  183POPC   H9121008   4.393   5.656   5.391  0.1509  1.5011 -0.4689
  183POPC  C21021009   4.534   5.692   5.244  0.2779 -0.0986  0.2305
  183POPC  H10121010   4.515   5.800   5.249 -0.2435 -0.2495  2.6207
  183POPC  C21121011   4.633   5.655   5.135  0.1601  0.4133  0.7077
  183POPC  H11R21012   4.643   5.544   5.134 -1.4165  0.2323 -0.6537
  183POPC  H11S21013   4.725   5.701   5.174 -0.3334  1.9974  0.0727
  183POPC  C21221014   4.589   5.703   5.000  0.4746  0.0485  0.9280
  183POPC  H12R21015   4.579   5.814   5.008  0.1661  0.0194  0.9888
  183POPC  H12S21016   4.488   5.660   4.980  0.8306 -0.4182  0.1254
  183POPC  C21321017   4.682   5.651   4.889 -0.1391 -0.2687 -0.8116
  183POPC  H13R21018   4.716   5.547   4.908  0.0727 -0.3939 -1.7970
  183POPC  H13S21019   4.773   5.715   4.879 -0.2318 -0.2224 -1.3790
  183POPC  C21421020   4.628   5.640   4.745 -0.0601  0.6120  0.1427
  183POPC  H14R21021   4.717   5.640   4.679  1.3345  0.4518  1.9397
  183POPC  H14S21022   4.571   5.734   4.728  2.3746  2.3939  1.0923
  183POPC  C21521023   4.552   5.513   4.719 -0.7252  0.9029 -0.0354
  183POPC  H15R21024   4.451   5.512   4.765  0.2292  0.8951  2.1792
  183POPC  H15S21025   4.598   5.428   4.775 -0.4823  0.6029 -0.6683
  183POPC  C21621026   4.535   5.473   4.576  0.3818  0.6714  0.0767
  183POPC  H16R21027   4.629   5.470   4.518 -0.1227 -0.6511 -0.7043
  183POPC  H16S21028   4.461   5.545   4.534  0.1039  0.2920 -0.0833
  183POPC  C21721029   4.469   5.331   4.559 -0.5752  0.3632 -1.0459
  183POPC  H17R21030   4.404   5.321   4.649 -1.8801 -0.9488 -2.1039
  183POPC  H17S21031   4.547   5.253   4.571 -1.2582 -0.4038 -1.5363
  183POPC  C21821032   4.394   5.298   4.437  0.8026 -0.5303 -0.4986
  183POPC  H18R21033   4.360   5.193   4.424  1.6744 -1.0892  1.4312
  183POPC  H18S21034   4.474   5.306   4.360  1.3995  0.5482  0.2107
  183POPC  H18T21035   4.307   5.362   4.410 -0.3788 -1.6016  0.6310
  183POPC   C3321036   3.671   4.969   5.467 -0.3759 -0.2425 -0.4077
  183POPC   H3X21037   3.740   4.887   5.440 -1.1639 -0.7950 -0.7922
  183POPC   H3Y21038   3.722   5.068   5.461 -0.0952 -0.0789  2.6736
  183POPC   C3421039   3.563   4.961   5.360 -0.7351 -0.5199 -0.1361
  183POPC   H4X21040   3.491   5.042   5.383 -1.3953 -0.1545 -3.0775
  183POPC   H4Y21041   3.513   4.863   5.379 -1.1020 -0.0265  1.5899
  183POPC   C3521042   3.618   4.980   5.213  0.3601 -0.6487 -0.3547
  183POPC   H5X21043   3.707   4.915   5.200 -0.0265 -1.2641  0.0068
  183POPC   H5Y21044   3.654   5.085   5.205  1.7359 -0.9100  1.5507
  183POPC   C3621045   3.514   4.943   5.111  0.0803 -0.6246  0.1454
  183POPC   H6X21046   3.413   4.985   5.129 -1.0561 -1.0355 -4.2752
  183POPC   H6Y21047   3.513   4.832   5.108  0.7464 -0.7184  2.0282
  183POPC   C3721048   3.555   4.996   4.968 -0.4477 -0.7468  0.5401
  183POPC   H7X21049   3.651   4.954   4.931 -1.3438 -0.3845 -2.4912
  183POPC   H7Y21050   3.551   5.107   4.970 -2.3104 -0.7832  1.1299
  183POPC   C3821051   3.448   4.959   4.866  0.3145  0.2126  0.1783
  183POPC   H8X21052   3.346   4.972   4.908  0.9348 -0.6507  2.0364
  183POPC   H8Y21053   3.458   4.850   4.850 -0.8682 -0.0768  1.2640
  183POPC   C3921054   3.464   5.025   4.727  0.4960  0.7171 -0.0877
  183POPC   H9X21055   3.566   5.000   4.691  0.7284 -0.1970  1.1249
  183POPC   H9Y21056   3.451   5.134   4.739 -2.7135  0.4246 -0.0795
  183POPC  C31021057   3.352   4.972   4.634 -0.1337 -0.2260 -0.8519
  183POPC  H10X21058   3.256   4.969   4.688  0.8778 -0.5266  1.0150
  183POPC  H10Y21059   3.371   4.864   4.613 -0.2400 -0.2307 -0.9269
  183POPC  C31121060   3.345   5.058   4.512 -0.0282  0.4383 -0.1873
  183POPC  H11X21061   3.445   5.068   4.465  0.9787  3.6824  2.3492
  183POPC  H11Y21062   3.322   5.164   4.536 -0.5644  0.7617 -1.9846
  183POPC  C31221063   3.241   4.999   4.414  0.4439  0.4074  0.8888
  183POPC  H12X21064   3.142   5.021   4.461  0.2917  0.4733  0.5415
  183POPC  H12Y21065   3.251   4.888   4.420  0.5374  0.4747  2.4006
  183POPC  C31321066   3.234   5.054   4.276  0.4121 -0.0474  0.0592
  183POPC  H13X21067   3.215   5.161   4.299  0.3370  0.1714 -0.9772
  183POPC  H13Y21068   3.142   5.015   4.228  1.3689 -1.6483 -0.5377
  183POPC  C31421069   3.361   5.051   4.195 -0.1765 -0.4940 -0.4022
  183POPC  H14X21070   3.369   4.955   4.140  1.9496  0.0624 -1.1791
  183POPC  H14Y21071   3.456   5.048   4.254  0.0846 -1.8561 -0.8572
  183POPC  C31521072   3.367   5.171   4.103  0.2514 -0.2529  0.0293
  183POPC  H15X21073   3.469   5.162   4.060 -0.2228 -2.0663 -0.8079
  183POPC  H15Y21074   3.363   5.267   4.159  3.0723 -0.7427  1.2157
  183POPC  C31621075   3.258   5.158   4.000 -0.0238 -0.0856  0.3161
  183POPC  H16X21076   3.270   5.236   3.922 -0.6924  0.8112  1.0791
  183POPC  H16Y21077   3.156   5.168   4.043 -0.5108  1.7804 -1.1241
  183POPC  H16Z21078   3.272   5.061   3.949  2.1677  0.7292 -0.7752
  184POPC     N21079   3.817   5.511   6.412  0.1501 -0.6314 -0.2774
  184POPC   C1221080   3.855   5.640   6.338 -0.0012  0.8153  0.0516
  184POPC  H12A21081   3.879   5.627   6.234  1.9994 -2.0840  0.7391
  184POPC  H12B21082   3.947   5.679   6.379  0.0783 -0.5758  1.3111
  184POPC   C1321083   3.929   5.411   6.397  0.1888 -0.6584  0.2554
  184POPC  H13A21084   3.938   5.361   6.302  1.0203 -1.9226  0.9726
  184POPC  H13B21085   4.030   5.443   6.419  0.3883 -1.5077  0.6197
  184POPC  H13C21086   3.910   5.336   6.473  0.7878  0.7726  1.8831
  184POPC   C1421087   3.795   5.551   6.556 -0.5515  0.5743 -0.2826
  184POPC  H14A21088   3.890   5.585   6.596  0.5689  1.0961 -3.0996
  184POPC  H14B21089   3.715   5.623   6.562 -2.1782 -1.2333  1.1645
  184POPC  H14C21090   3.751   5.469   6.611 -2.3217  1.5071 -0.2441
  184POPC   C1521091   3.689   5.463   6.366  0.7271 -0.1316 -0.8587
  184POPC  H15A21092   3.687   5.442   6.260  0.6161 -0.3996 -0.8053
  184POPC  H15B21093   3.610   5.533   6.388  0.9202 -0.0236 -0.4922
  184POPC  H15C21094   3.662   5.372   6.418 -2.0903  0.6981 -0.7369
  184POPC   C1121095   3.763   5.746   6.342  0.4242 -0.4736 -0.2950
  184POPC  H11A21096   3.738   5.776   6.446  2.2858  0.2686 -0.0297
  184POPC  H11B21097   3.670   5.709   6.294  0.2259 -0.3227 -0.0307
  184POPC     P21098   3.935   5.939   6.322  0.3200  0.2301  0.4383
  184POPC   O1321099   4.024   5.854   6.403 -0.0269  0.0515  0.5793
  184POPC   O1421100   3.883   6.056   6.393  0.3671 -0.1322 -0.2418
  184POPC   O1221101   3.815   5.854   6.270  0.0308 -0.1096  0.7275
  184POPC   O1121102   4.013   5.996   6.190  0.1009 -0.3293 -0.4587
  184POPC    C121103   4.022   5.921   6.070  0.0287 -0.9358 -0.5266
  184POPC    HA21104   3.959   5.969   5.992  0.3584  0.0201 -0.2224
  184POPC    HB21105   3.972   5.823   6.083 -2.3177  0.1527 -0.7549
  184POPC    C221106   4.172   5.917   6.031  0.5652  0.0191  0.0346
  184POPC    HS21107   4.192   5.876   5.929  0.0256 -0.6817  0.2051
  184POPC   O2121108   4.245   5.853   6.137  0.8602  0.4377 -0.2982
  184POPC   C2121109   4.231   5.723   6.140 -0.3937  0.0144  0.6466
  184POPC   O2221110   4.171   5.649   6.065  0.1824 -0.2486  1.0200
  184POPC   C2221111   4.306   5.674   6.260 -0.4123 -0.4100 -0.4034
  184POPC   H2R21112   4.284   5.567   6.282  1.6140 -0.6846  0.4644
  184POPC   H2S21113   4.275   5.738   6.344 -0.9919 -1.5400  0.2688
  184POPC    C321114   4.224   6.062   6.016  0.0860  0.3472  0.2834
  184POPC    HX21115   4.185   6.108   6.109 -0.4221 -0.5310  0.5063
  184POPC    HY21116   4.167   6.114   5.936 -0.7612  0.0917  0.7119
  184POPC   O3121117   4.368   6.067   5.996 -0.2349 -0.6389 -0.7240
  184POPC   C3121118   4.439   6.136   6.081  0.4656 -0.1963  0.0522
  184POPC   O3221119   4.401   6.209   6.168 -0.4623 -0.9205  0.1875
  184POPC   C3221120   4.592   6.108   6.067  0.3095 -0.2656 -0.2158
  184POPC   H2X21121   4.603   6.000   6.047  1.6591  0.1959 -2.3185
  184POPC   H2Y21122   4.633   6.108   6.170 -0.1965  1.3552  0.0175
  184POPC   C2321123   4.458   5.698   6.259  0.2213  0.6087  0.5514
  184POPC   H3R21124   4.489   5.706   6.365  1.2377  1.8792  0.1950
  184POPC   H3S21125   4.491   5.790   6.205 -0.6117  0.5802 -0.0282
  184POPC   C2421126   4.541   5.582   6.197  0.1136  0.0355 -0.3836
  184POPC   H4R21127   4.524   5.491   6.258 -0.4346  0.5311  0.2233
  184POPC   H4S21128   4.646   5.614   6.182 -0.2928  1.6158 -0.0275
  184POPC   C2521129   4.505   5.541   6.051 -0.2891 -0.5746 -0.4507
  184POPC   H5R21130   4.402   5.500   6.047 -0.9092  0.8468  0.1372
  184POPC   H5S21131   4.570   5.455   6.024 -1.4488 -2.4907  2.3502
  184POPC   C2621132   4.517   5.644   5.944  0.1280 -0.7023 -0.5333
  184POPC   H6R21133   4.621   5.682   5.952  0.2399 -0.6110 -2.1295
  184POPC   H6S21134   4.450   5.731   5.958  0.6679 -0.0886 -1.5825
  184POPC   C2721135   4.480   5.586   5.813 -0.0208  0.1342  0.2553
  184POPC   H7R21136   4.379   5.538   5.818 -0.5805  1.3501  1.0573
  184POPC   H7S21137   4.553   5.507   5.785 -0.3737 -0.6463  1.4322
  184POPC   C2821138   4.474   5.685   5.690  0.7087  0.4819 -0.4056
  184POPC   H8R21139   4.497   5.627   5.597  1.7891  2.1372 -1.2208
  184POPC   H8S21140   4.562   5.752   5.697  3.5144 -3.0043  1.4717
  184POPC   C2921141   4.340   5.749   5.674  0.3861  0.3673 -0.2241
  184POPC   H9121142   4.256   5.694   5.718  1.2575 -1.1263 -0.3381
  184POPC  C21021143   4.306   5.866   5.617 -0.1517  0.6714 -0.3768
  184POPC  H10121144   4.200   5.895   5.619  0.0385  1.3687 -0.0033
  184POPC  C21121145   4.388   5.969   5.549 -0.0469 -0.4772  0.4446
  184POPC  H11R21146   4.496   5.946   5.561  0.8961  2.0114 -2.0710
  184POPC  H11S21147   4.375   6.065   5.603  1.2646  0.3694 -0.6941
  184POPC  C21221148   4.347   5.991   5.405  0.2054  0.1084  0.1740
  184POPC  H12R21149   4.239   6.014   5.389  0.6264  3.0982  1.0329
  184POPC  H12S21150   4.355   5.891   5.359 -0.4508  0.2881 -0.3518
  184POPC  C21321151   4.444   6.078   5.327 -0.9474  0.1035  0.8047
  184POPC  H13R21152   4.544   6.039   5.356 -0.2728  1.8555  0.9366
  184POPC  H13S21153   4.449   6.185   5.357  0.8302 -0.0923  1.3522
  184POPC  C21421154   4.440   6.060   5.171  0.2446  0.2702 -0.1683
  184POPC  H14R21155   4.410   5.959   5.135  0.1953 -0.0863  0.8581
  184POPC  H14S21156   4.536   6.096   5.129 -1.3173  1.9977 -2.5996
  184POPC  C21521157   4.347   6.163   5.108  0.1929 -0.1480 -0.4067
  184POPC  H15R21158   4.335   6.258   5.165 -0.8464  0.1667 -1.1275
  184POPC  H15S21159   4.243   6.124   5.104 -0.6696  2.0830 -2.2179
  184POPC  C21621160   4.385   6.205   4.966 -0.1869  0.6606 -0.3459
  184POPC  H16R21161   4.496   6.199   4.965 -0.2574 -1.0382 -1.3123
  184POPC  H16S21162   4.359   6.313   4.963  0.3740  0.8181  0.2227
  184POPC  C21721163   4.343   6.105   4.851 -0.0133  0.3191  0.0377
  184POPC  H17R21164   4.314   6.010   4.902  0.0131  0.9229  1.2285
  184POPC  H17S21165   4.430   6.087   4.785 -1.8717  1.1323 -2.7795
  184POPC  C21821166   4.245   6.175   4.756 -0.3838  0.2892 -0.4880
  184POPC  H18R21167   4.154   6.214   4.806  0.8479  1.2650  1.0538
  184POPC  H18S21168   4.213   6.100   4.680  1.6744  0.0113 -1.1443
  184POPC  H18T21169   4.300   6.255   4.702  0.4730 -1.3769 -2.1972
  184POPC   C3321170   4.659   6.187   5.960  0.0922 -0.0439  0.5775
  184POPC   H3X21171   4.767   6.186   5.985  0.0206 -2.9552  1.0246
  184POPC   H3Y21172   4.613   6.289   5.959  0.3407  0.0736 -0.6138
  184POPC   C3421173   4.638   6.129   5.817  0.5234  0.6439  0.4109
  184POPC   H4X21174   4.529   6.131   5.795  0.4122 -2.1139  0.3055
  184POPC   H4Y21175   4.678   6.025   5.824 -1.2936 -0.1339 -0.1782
  184POPC   C3521176   4.727   6.202   5.708  0.2473  0.1307  0.2074
  184POPC   H5X21177   4.832   6.190   5.743 -0.5641 -3.1277  1.9024
  184POPC   H5Y21178   4.697   6.309   5.699 -3.3828 -0.6998  0.9140
  184POPC   C3621179   4.726   6.125   5.571 -0.3009 -0.3792 -0.1219
  184POPC   H6X21180   4.634   6.151   5.514 -0.4731 -1.9556 -0.6267
  184POPC   H6Y21181   4.727   6.016   5.594 -0.8484 -0.3209  0.2180
  184POPC   C3721182   4.852   6.161   5.494 -0.8067  0.4834  1.0853
  184POPC   H7X21183   4.942   6.160   5.560  0.1598 -0.6942 -0.1971
  184POPC   H7Y21184   4.845   6.266   5.460 -2.3813  0.4230  1.1583
  184POPC   C3821185   4.890   6.065   5.378 -0.6420  0.5124  0.0291
  184POPC   H8X21186   4.868   5.959   5.404 -1.0924  0.5525 -0.1841
  184POPC   H8Y21187   5.001   6.069   5.370 -0.6210  2.2482  0.6890
  184POPC   C3921188   4.832   6.103   5.244  0.2992  0.3144 -0.6761
  184POPC   H9X21189   4.826   6.214   5.235 -0.1222  0.2464 -1.2585
  184POPC   H9Y21190   4.729   6.066   5.259  0.3036  0.7112  0.4494
  184POPC  C31021191   4.909   6.040   5.120  0.1457  0.5436  0.6980
  184POPC  H10X21192   4.937   5.938   5.151 -0.3374 -0.4360 -1.8315
  184POPC  H10Y21193   5.005   6.095   5.114  0.1849  0.4127  0.0130
  184POPC  C31121194   4.816   6.042   4.994 -0.4847  0.0677  0.2125
  184POPC  H11X21195   4.718   6.083   5.026 -1.3611 -1.7807  0.0008
  184POPC  H11Y21196   4.787   5.937   4.975 -0.6026 -0.1819  1.6809
  184POPC  C31221197   4.888   6.088   4.873 -0.8547 -0.3706  0.5899
  184POPC  H12X21198   4.945   5.995   4.853 -0.4969  0.0047 -0.1375
  184POPC  H12Y21199   4.955   6.176   4.886 -2.8182  1.2479  0.2618
  184POPC  C31321200   4.800   6.115   4.754 -0.1422 -0.1758 -0.8138
  184POPC  H13X21201   4.856   6.147   4.663 -0.8134  2.6926 -0.3303
  184POPC  H13Y21202   4.731   6.197   4.785  1.8091  0.8786  0.9910
  184POPC  C31421203   4.706   5.993   4.723 -0.0707  0.6414  0.3085
  184POPC  H14X21204   4.634   5.981   4.806 -0.5627  0.8104 -0.0943
  184POPC  H14Y21205   4.776   5.907   4.712 -0.2090  0.6736 -0.9555
  184POPC  C31521206   4.629   6.021   4.597  0.3752  0.6696  0.1683
  184POPC  H15X21207   4.595   6.126   4.595 -0.7735  0.2965 -1.2132
  184POPC  H15Y21208   4.538   5.959   4.583  0.4451  0.8393 -1.1859
  184POPC  C31621209   4.699   6.005   4.457 -1.2462  0.4071 -0.4731
  184POPC  H16X21210   4.645   6.057   4.375  0.7267  0.6592 -1.7031
  184POPC  H16Y21211   4.722   5.899   4.430 -0.1805  0.6103 -0.4124
  184POPC  H16Z21212   4.803   6.045   4.457  0.2184 -2.9888 -1.8698
  185POPC     N21213   2.336   3.299   1.631  0.1901 -0.3456 -0.6771
  185POPC   C1221214   2.386   3.324   1.772 -0.6571  0.5855  0.1579
  185POPC  H12A21215   2.457   3.405   1.766  0.1574  0.0249  1.5939
  185POPC  H12B21216   2.437   3.233   1.797  1.7427  1.4089 -1.4642
  185POPC   C1321217   2.289   3.429   1.572  0.1010 -0.4039 -0.5207
  185POPC  H13A21218   2.211   3.478   1.628 -1.6981 -1.3856 -2.0540
  185POPC  H13B21219   2.369   3.502   1.575 -0.4156  0.1879  2.7221
  185POPC  H13C21220   2.244   3.429   1.474  0.3542  2.7947 -0.7650
  185POPC   C1421221   2.455   3.246   1.558  0.0815 -0.3873  0.0039
  185POPC  H14A21222   2.461   3.139   1.573 -1.3827 -0.2928  1.6329
  185POPC  H14B21223   2.435   3.262   1.453 -2.5346  0.4636  0.5507
  185POPC  H14C21224   2.546   3.298   1.585 -0.7804  0.9530  0.4510
  185POPC   C1521225   2.224   3.203   1.626 -0.2853 -0.2775 -0.4848
  185POPC  H15A21226   2.181   3.182   1.530 -0.3504 -0.8762 -0.3322
  185POPC  H15B21227   2.142   3.235   1.689 -0.7957 -0.6124 -0.9724
  185POPC  H15C21228   2.251   3.110   1.674  1.5540 -0.5860 -2.0258
  185POPC   C1121229   2.303   3.375   1.893  0.3786 -0.2634 -0.5368
  185POPC  H11A21230   2.352   3.347   1.988 -0.8239 -0.7746 -0.0417
  185POPC  H11B21231   2.211   3.314   1.902  0.4250 -0.4255 -1.1125
  185POPC     P21232   2.360   3.621   1.908 -0.2417  0.0869 -0.1372
  185POPC   O1321233   2.298   3.754   1.905  0.1412 -0.5745 -0.0991
  185POPC   O1421234   2.483   3.598   1.835 -0.0490  0.1115  0.0944
  185POPC   O1221235   2.261   3.508   1.875  0.2080 -0.0377  0.0311
  185POPC   O1121236   2.385   3.589   2.060 -1.1167  0.4484  0.0231
  185POPC    C121237   2.301   3.632   2.165  0.1722 -0.0538  0.1461
  185POPC    HA21238   2.207   3.574   2.161  0.3743 -0.3257 -1.6471
  185POPC    HB21239   2.270   3.738   2.148  2.5973  0.6561 -0.2420
  185POPC    C221240   2.369   3.616   2.304  1.0232  0.3365  0.3096
  185POPC    HS21241   2.277   3.600   2.364  2.3452 -0.7467  2.1492
  185POPC   O2121242   2.444   3.732   2.335  0.2144  0.1367 -0.6179
  185POPC   C2121243   2.382   3.824   2.404  0.1041 -1.0621  0.0463
  185POPC   O2221244   2.261   3.819   2.430 -0.1447  0.2138 -0.1194
  185POPC   C2221245   2.487   3.934   2.443 -0.4741 -0.0097  0.2689
  185POPC   H2R21246   2.495   4.009   2.361 -1.8046 -0.1441  0.0037
  185POPC   H2S21247   2.581   3.877   2.457 -1.1875 -1.5664 -1.0600
  185POPC    C321248   2.450   3.490   2.329 -0.2052 -0.2052  0.4108
  185POPC    HX21249   2.544   3.495   2.269 -0.8258 -0.0461 -0.5821
  185POPC    HY21250   2.395   3.401   2.291  1.4976 -0.5770 -1.3587
  185POPC   O3121251   2.487   3.469   2.466  0.7465 -0.3005 -0.1370
  185POPC   C3121252   2.388   3.445   2.552  0.2342 -0.1574  0.3626
  185POPC   O3221253   2.275   3.427   2.522 -0.0119 -0.8335  0.3729
  185POPC   C3221254   2.438   3.445   2.699  0.2942  0.6734  0.7059
  185POPC   H2X21255   2.454   3.554   2.717  0.1874  1.0807 -1.3945
  185POPC   H2Y21256   2.543   3.408   2.694 -0.6226 -2.1704  0.7736
  185POPC   C2321257   2.447   4.010   2.570  0.3555 -0.0234 -0.2787
  185POPC   H3R21258   2.343   4.048   2.568 -0.1029 -1.1384  0.8795
  185POPC   H3S21259   2.507   4.103   2.577  1.0030 -0.5475  2.0970
  185POPC   C2421260   2.466   3.925   2.695 -0.6293  0.2591  0.7714
  185POPC   H4R21261   2.569   3.886   2.684 -0.8077  0.4356 -2.1887
  185POPC   H4S21262   2.394   3.840   2.687 -1.1222  0.8011 -0.7136
  185POPC   C2521263   2.443   4.014   2.824 -0.0627 -0.0195 -0.2037
  185POPC   H5R21264   2.341   4.055   2.811 -0.4672 -1.3988 -1.7835
  185POPC   H5S21265   2.520   4.093   2.835 -0.7329  0.4166  1.8610
  185POPC   C2621266   2.440   3.943   2.960  0.1571  0.3251 -0.2067
  185POPC   H6R21267   2.541   3.904   2.984 -0.3368  0.1650  1.7892
  185POPC   H6S21268   2.373   3.854   2.959  1.9814 -1.1913 -3.5427
  185POPC   C2721269   2.386   4.050   3.064 -0.3409  0.6410 -0.0322
  185POPC   H7R21270   2.286   4.087   3.032 -0.6003  1.7013  1.8940
  185POPC   H7S21271   2.467   4.125   3.061  0.1210  0.3133  2.4489
  185POPC   C2821272   2.384   3.997   3.213 -0.7481 -0.6117 -0.5732
  185POPC   H8R21273   2.491   3.976   3.236 -0.9340 -0.1117  0.8576
  185POPC   H8S21274   2.331   3.900   3.218  0.2297 -1.0863  1.9640
  185POPC   C2921275   2.326   4.109   3.294 -0.4127  0.3059  0.2344
  185POPC   H9121276   2.308   4.197   3.231 -1.0858 -0.7195 -1.0525
  185POPC  C21021277   2.269   4.098   3.417  0.1706  0.1418 -0.1707
  185POPC  H10121278   2.225   4.182   3.474 -1.2044 -0.6878  0.0340
  185POPC  C21121279   2.272   3.972   3.498 -0.4468  0.2856  0.0089
  185POPC  H11R21280   2.295   3.884   3.433  0.6054  0.7267 -0.2377
  185POPC  H11S21281   2.174   3.953   3.545  0.7671 -3.4273  1.4071
  185POPC  C21221282   2.374   3.955   3.613 -0.4374 -0.0223 -0.1412
  185POPC  H12R21283   2.473   3.969   3.565 -0.3489  1.0505  0.3259
  185POPC  H12S21284   2.365   3.853   3.655  1.5545  0.1090  0.7125
  185POPC  C21321285   2.353   4.052   3.729  0.5677 -0.5097 -0.5917
  185POPC  H13R21286   2.389   4.151   3.692 -1.3783  0.3299 -0.3738
  185POPC  H13S21287   2.435   4.033   3.801 -1.0501  0.3575  1.5853
  185POPC  C21421288   2.213   4.047   3.789 -0.0560  0.2972 -0.1721
  185POPC  H14R21289   2.187   3.947   3.832  0.4455 -0.5145 -1.6994
  185POPC  H14S21290   2.145   4.071   3.705  0.3626  2.8453  0.1298
  185POPC  C21521291   2.193   4.139   3.910  0.6816 -0.2281 -0.3381
  185POPC  H15R21292   2.216   4.242   3.875 -0.4735 -0.2558 -1.2349
  185POPC  H15S21293   2.266   4.126   3.992 -0.0856  1.5983  0.6884
  185POPC  C21621294   2.048   4.147   3.959 -0.0822  0.1135 -0.0355
  185POPC  H16R21295   1.990   4.096   3.879  1.4831 -1.3424 -0.3022
  185POPC  H16S21296   2.021   4.255   3.966  1.6159  0.4847  1.5253
  185POPC  C21721297   2.039   4.075   4.099  0.0820  0.3544  0.2935
  185POPC  H17R21298   2.122   4.116   4.160 -0.1810  0.0071  0.8937
  185POPC  H17S21299   2.051   3.967   4.075  1.8870  0.1647  1.8142
  185POPC  C21821300   1.898   4.094   4.159  0.0471  0.4727  0.3816
  185POPC  H18R21301   1.819   4.057   4.090  1.5177  0.4360 -1.3399
  185POPC  H18S21302   1.881   4.200   4.189  0.2207  0.1217  1.8318
  185POPC  H18T21303   1.896   4.029   4.250  0.6334  0.2568  0.2417
  185POPC   C3321304   2.356   3.363   2.797  0.3612  0.4345 -0.4433
  185POPC   H3X21305   2.344   3.261   2.756 -1.8553  0.3086  0.3883
  185POPC   H3Y21306   2.254   3.407   2.804  0.0962 -0.3617  1.1217
  185POPC   C3421307   2.430   3.363   2.930  0.3617 -0.0217 -0.6942
  185POPC   H4X21308   2.539   3.347   2.915  0.6108  0.6097  0.3702
  185POPC   H4Y21309   2.386   3.287   2.997 -3.6764  2.5280 -0.0693
  185POPC   C3521310   2.413   3.487   3.012  0.7630  0.2374  0.0914
  185POPC   H5X21311   2.312   3.531   3.002  0.3080 -0.0749  2.5639
  185POPC   H5Y21312   2.482   3.563   2.970 -0.5672  2.3521  1.5234
  185POPC   C3621313   2.434   3.462   3.164 -0.5475 -0.1783  0.0560
  185POPC   H6X21314   2.541   3.466   3.191 -0.3160 -0.1926 -0.8251
  185POPC   H6Y21315   2.382   3.373   3.206  0.2426  0.4078  2.4384
  185POPC   C3721316   2.384   3.576   3.260 -0.1029  0.0972  0.4536
  185POPC   H7X21317   2.273   3.583   3.254 -0.0696 -0.5252 -1.5375
  185POPC   H7Y21318   2.428   3.672   3.225  0.1610  0.2187  1.1095
  185POPC   C3821319   2.421   3.562   3.406  0.4528  0.2291 -0.8205
  185POPC   H8X21320   2.392   3.661   3.447 -0.9194 -1.3011  2.2376
  185POPC   H8Y21321   2.526   3.531   3.426 -0.0535 -1.9662 -1.3083
  185POPC   C3921322   2.322   3.464   3.477  0.6891  0.2875 -0.6242
  185POPC   H9X21323   2.349   3.360   3.450  0.0493 -0.0575  0.0506
  185POPC   H9Y21324   2.217   3.490   3.449  0.5713  1.1664  0.5701
  185POPC  C31021325   2.329   3.492   3.630  0.4934 -0.1220 -0.2509
  185POPC  H10X21326   2.256   3.416   3.667  1.2664 -1.4662 -1.3751
  185POPC  H10Y21327   2.300   3.597   3.650  1.3823  0.1270 -0.2190
  185POPC  C31121328   2.467   3.463   3.701  1.0386 -0.1398  0.1118
  185POPC  H11X21329   2.522   3.559   3.707 -0.2645  0.7025 -0.8040
  185POPC  H11Y21330   2.523   3.389   3.640  0.4096 -1.4135  1.0269
  185POPC  C31221331   2.461   3.411   3.848  0.1737  0.2078  0.3673
  185POPC  H12X21332   2.415   3.310   3.843 -0.8073  0.6549  0.1346
  185POPC  H12Y21333   2.388   3.478   3.898  0.5797  2.5602 -1.9963
  185POPC  C31321334   2.587   3.428   3.935 -0.2040 -0.0926  0.2667
  185POPC  H13X21335   2.555   3.407   4.039 -2.6852 -1.1948 -0.6421
  185POPC  H13Y21336   2.620   3.533   3.919  0.1443  0.1820  2.4680
  185POPC  C31421337   2.692   3.328   3.894 -0.1802  0.8190  0.1508
  185POPC  H14X21338   2.735   3.342   3.793 -0.0217  0.9215  0.2329
  185POPC  H14Y21339   2.652   3.224   3.896  2.5182 -0.3139 -0.4105
  185POPC  C31521340   2.811   3.329   3.984  0.0765 -0.1152 -0.1386
  185POPC  H15X21341   2.890   3.262   3.943 -0.8129 -1.9396  0.9825
  185POPC  H15Y21342   2.799   3.276   4.081 -2.2427  0.8108  0.1389
  185POPC  C31621343   2.881   3.460   3.985 -0.0404 -0.1981  0.3345
  185POPC  H16X21344   2.848   3.531   4.064 -3.6287 -0.2985 -0.8998
  185POPC  H16Y21345   2.883   3.503   3.883  1.5800 -0.5158  0.2034
  185POPC  H16Z21346   2.989   3.438   4.002  0.1686 -1.8839 -2.4960
  186POPC     N21347   5.455   6.457   1.996 -0.5374  0.8993 -0.2892
  186POPC   C1221348   5.382   6.439   2.127 -1.1109 -0.8275 -0.2279
  186POPC  H12A21349   5.399   6.527   2.187 -3.8176  0.7919 -1.6493
  186POPC  H12B21350   5.428   6.354   2.175  1.1201  0.3342 -0.2085
  186POPC   C1321351   5.415   6.364   1.887 -0.3046  0.3218  0.0731
  186POPC  H13A21352   5.483   6.366   1.803 -1.1952  2.6793 -0.6895
  186POPC  H13B21353   5.427   6.265   1.928 -2.4042  0.1534  0.3808
  186POPC  H13C21354   5.313   6.376   1.854 -0.2922 -2.6157 -1.3536
  186POPC   C1421355   5.432   6.596   1.947  0.5677  0.1895 -0.3165
  186POPC  H14A21356   5.493   6.663   2.007 -1.5521  1.7603  0.2049
  186POPC  H14B21357   5.470   6.605   1.846 -0.7137 -1.4391 -0.9758
  186POPC  H14C21358   5.330   6.631   1.948 -0.0511 -1.4506 -1.5654
  186POPC   C1521359   5.610   6.445   2.028  0.5122 -0.3784  0.5602
  186POPC  H15A21360   5.650   6.458   1.928 -0.1197  2.0104  0.5546
  186POPC  H15B21361   5.631   6.356   2.085 -2.3812 -1.8884 -0.5492
  186POPC  H15C21362   5.654   6.524   2.088  1.6671 -2.1145  2.0867
  186POPC   C1121363   5.229   6.414   2.122  0.2547  0.8841  0.7608
  186POPC  H11A21364   5.191   6.488   2.049 -0.8374  0.2784  0.7041
  186POPC  H11B21365   5.186   6.444   2.220  0.4874  0.9569  0.8429
  186POPC     P21366   5.213   6.160   2.168 -0.4271  0.0098 -0.5289
  186POPC   O1321367   5.354   6.151   2.206  0.5334  0.2438 -0.1405
  186POPC   O1421368   5.156   6.030   2.117  0.2820  0.0028  0.3118
  186POPC   O1221369   5.189   6.285   2.072 -0.3620  0.1206  0.3988
  186POPC   O1121370   5.133   6.223   2.286  0.6295 -0.1068  0.1282
  186POPC    C121371   4.991   6.228   2.277 -0.0997 -0.1400  0.1366
  186POPC    HA21372   4.946   6.143   2.222  0.0055  0.6345 -1.2024
  186POPC    HB21373   4.962   6.320   2.220 -0.9159 -0.7059 -0.3831
  186POPC    C221374   4.931   6.220   2.421 -0.5150  0.2091  0.4259
  186POPC    HS21375   4.960   6.313   2.474  0.9867  0.2633 -0.4459
  186POPC   O2121376   5.008   6.118   2.490  0.0918  0.0590  0.2245
  186POPC   C2121377   4.997   5.991   2.446  0.8056 -0.5655 -0.3157
  186POPC   O2221378   4.927   5.948   2.351  0.2956  0.0367 -0.5704
  186POPC   C2221379   5.108   5.912   2.511  1.0358  0.2993 -0.7230
  186POPC   H2R21380   5.153   5.864   2.422  0.2608 -2.1217  0.1275
  186POPC   H2S21381   5.062   5.830   2.569  1.1025  1.6174  1.3137
  186POPC    C321382   4.779   6.197   2.445 -0.6414 -0.3015 -0.0373
  186POPC    HX21383   4.743   6.115   2.380  1.4232 -1.6040  0.3784
  186POPC    HY21384   4.742   6.296   2.409  0.2716 -0.7235 -2.2496
  186POPC   O3121385   4.744   6.161   2.579 -0.2335  0.3437  0.0327
  186POPC   C3121386   4.764   6.249   2.676  0.8469  0.9621 -0.4429
  186POPC   O3221387   4.786   6.367   2.665 -0.3974 -0.2104  0.4238
  186POPC   C3221388   4.762   6.176   2.813 -0.2141  0.2274 -0.7064
  186POPC   H2X21389   4.851   6.113   2.835 -0.4507 -0.1572 -0.8487
  186POPC   H2Y21390   4.689   6.093   2.807  2.5630 -2.3905 -0.6916
  186POPC   C2321391   5.217   5.988   2.603  0.5263  0.4743  0.6302
  186POPC   H3R21392   5.247   6.081   2.551  0.6014  0.4886  0.7004
  186POPC   H3S21393   5.305   5.920   2.614  0.0685 -0.3492 -0.5384
  186POPC   C2421394   5.166   6.019   2.740  0.3616 -0.4772  0.3554
  186POPC   H4R21395   5.082   5.950   2.763 -1.8379  0.4590 -3.9044
  186POPC   H4S21396   5.119   6.116   2.715 -1.1180 -1.1589  0.3721
  186POPC   C2521397   5.275   6.030   2.836 -0.4819  0.8104  0.2788
  186POPC   H5R21398   5.349   6.098   2.787 -0.7844  0.0698 -1.2824
  186POPC   H5S21399   5.334   5.938   2.856 -1.7986  0.0514  0.7648
  186POPC   C2621400   5.227   6.094   2.964  0.2772 -0.1585  0.9067
  186POPC   H6R21401   5.165   6.183   2.942  2.1375  0.4675 -2.5439
  186POPC   H6S21402   5.319   6.124   3.018  1.4545 -0.1366 -1.0322
  186POPC   C2721403   5.137   6.004   3.055 -0.4973  0.1950  0.7108
  186POPC   H7R21404   5.179   5.903   3.075  1.6649  0.8937 -0.0063
  186POPC   H7S21405   5.040   5.997   3.002 -0.9699  0.8453  1.4711
  186POPC   C2821406   5.118   6.067   3.193  0.5485  0.3325  0.5181
  186POPC   H8R21407   5.029   6.040   3.254 -0.6836  1.8144 -0.5396
  186POPC   H8S21408   5.088   6.172   3.174 -0.9604  0.0968  1.4344
  186POPC   C2921409   5.244   6.064   3.277  0.5943 -0.5829  0.4011
  186POPC   H9121410   5.333   6.025   3.226  0.7363  1.4061 -1.0140
  186POPC  C21021411   5.241   6.088   3.417 -0.2977  0.5190  0.6738
  186POPC  H10121412   5.331   6.073   3.478 -0.5189 -0.7545  0.7097
  186POPC  C21121413   5.123   6.132   3.506 -0.6245  0.1012  0.6530
  186POPC  H11R21414   5.038   6.157   3.439 -2.0870  1.1199  2.7741
  186POPC  H11S21415   5.153   6.228   3.553 -0.7728  1.0588 -1.0905
  186POPC  C21221416   5.073   6.031   3.606  0.6496 -0.2388 -0.2473
  186POPC  H12R21417   5.032   5.945   3.548  1.3203  0.4518 -1.8279
  186POPC  H12S21418   4.993   6.083   3.663  0.4304 -0.2862 -0.5077
  186POPC  C21321419   5.182   5.976   3.697  0.2592  0.4120  0.4237
  186POPC  H13R21420   5.257   6.050   3.731  2.5317 -1.0028 -1.1745
  186POPC  H13S21421   5.233   5.899   3.634  0.0032 -0.0133  0.7284
  186POPC  C21421422   5.122   5.898   3.814  0.6568 -0.6893  0.1853
  186POPC  H14R21423   5.195   5.824   3.853  0.8475 -0.9709 -0.6997
  186POPC  H14S21424   5.029   5.851   3.778 -0.0691  1.8458 -1.5362
  186POPC  C21521425   5.109   5.975   3.951  0.3260  0.0532  0.5679
  186POPC  H15R21426   5.208   5.994   3.997 -0.2098  1.7546  1.0806
  186POPC  H15S21427   5.060   5.908   4.025 -1.5553 -1.0358 -1.5422
  186POPC  C21621428   5.023   6.103   3.937  0.7009  0.6573 -0.4576
  186POPC  H16R21429   4.929   6.079   3.885  1.5209 -2.5664 -0.6264
  186POPC  H16S21430   5.076   6.170   3.865  4.0540 -3.5501 -2.3679
  186POPC  C21721431   4.979   6.171   4.068  0.0022 -0.2658  0.1495
  186POPC  H17R21432   5.062   6.178   4.142 -0.9352 -0.1441  1.2171
  186POPC  H17S21433   4.917   6.101   4.128  0.8376 -1.3977 -0.2708
  186POPC  C21821434   4.922   6.318   4.059 -0.1050 -0.8796  0.2803
  186POPC  H18R21435   4.994   6.386   4.010 -0.2525 -0.5719  0.4841
  186POPC  H18S21436   4.832   6.322   3.994 -1.0755  1.8977  1.6269
  186POPC  H18T21437   4.899   6.358   4.160  0.7202 -0.0489  0.1469
  186POPC   C3321438   4.737   6.270   2.934  0.0467  0.3999 -0.3172
  186POPC   H3X21439   4.642   6.327   2.923 -1.6878 -1.8572  1.8918
  186POPC   H3Y21440   4.826   6.336   2.945 -1.2278  1.9129  1.8301
  186POPC   C3421441   4.717   6.199   3.064  0.5246 -0.1016  0.0916
  186POPC   H4X21442   4.791   6.116   3.068  1.7604  0.8524 -1.5154
  186POPC   H4Y21443   4.611   6.167   3.059  0.0614  1.0937  1.6446
  186POPC   C3521444   4.733   6.291   3.192 -0.1604 -0.4244 -0.3902
  186POPC   H5X21445   4.648   6.362   3.196  0.2925  0.0774  2.2468
  186POPC   H5Y21446   4.830   6.344   3.183  1.0743 -2.3557  0.7163
  186POPC   C3621447   4.747   6.201   3.325  0.2332 -0.1106  0.0777
  186POPC   H6X21448   4.846   6.153   3.343 -0.1248  0.0868  3.0209
  186POPC   H6Y21449   4.669   6.124   3.314  0.1955 -0.1268  0.4435
  186POPC   C3721450   4.712   6.278   3.453 -0.1505 -0.0833 -0.1979
  186POPC   H7X21451   4.623   6.339   3.425 -0.6979 -1.8065 -2.5039
  186POPC   H7Y21452   4.796   6.342   3.487 -0.9610  0.0304  1.7303
  186POPC   C3821453   4.697   6.177   3.560  1.1348 -0.4531 -0.5259
  186POPC   H8X21454   4.793   6.124   3.574  0.1284 -1.9466  1.0554
  186POPC   H8Y21455   4.619   6.104   3.528 -0.1147  0.4206  0.4302
  186POPC   C3921456   4.650   6.230   3.698  0.0919  0.0846  0.6894
  186POPC   H9X21457   4.562   6.296   3.684  1.1216  0.9221 -2.8103
  186POPC   H9Y21458   4.735   6.285   3.743  0.1855  0.0618  0.5422
  186POPC  C31021459   4.615   6.115   3.796  0.4982 -0.1210  0.3790
  186POPC  H10X21460   4.699   6.043   3.808  1.2502  0.6166 -0.2749
  186POPC  H10Y21461   4.527   6.058   3.760 -0.0837  1.2232 -0.4180
  186POPC  C31121462   4.565   6.174   3.929  0.1306  0.5881 -0.5911
  186POPC  H11X21463   4.478   6.242   3.919 -1.8727 -1.8322 -0.6743
  186POPC  H11Y21464   4.645   6.240   3.968 -0.9783  0.2754  2.4938
  186POPC  C31221465   4.542   6.066   4.043 -0.1750  0.1150 -0.0092
  186POPC  H12X21466   4.597   6.093   4.136  1.0774 -2.4338  0.0775
  186POPC  H12Y21467   4.584   5.979   3.989  0.0936  0.5582 -0.5179
  186POPC  C31321468   4.392   6.047   4.080 -0.2587 -0.8601  0.2524
  186POPC  H13X21469   4.344   6.148   4.076  1.8908  0.2476  1.0013
  186POPC  H13Y21470   4.387   6.011   4.184 -0.9364  0.8403  0.8422
  186POPC  C31421471   4.323   5.947   3.977 -0.0994 -0.6882 -0.5283
  186POPC  H14X21472   4.345   5.989   3.876 -0.5464  0.9675  0.0365
  186POPC  H14Y21473   4.213   5.949   3.995  0.1603 -2.8016  1.7847
  186POPC  C31521474   4.359   5.802   3.991  0.3798 -0.1971  0.3875
  186POPC  H15X21475   4.466   5.794   3.964  0.2882 -0.6698  0.1554
  186POPC  H15Y21476   4.304   5.746   3.912  0.5655  0.2316 -0.0489
  186POPC  C31621477   4.331   5.739   4.129  0.6374  0.6741  0.4812
  186POPC  H16X21478   4.332   5.628   4.123  0.8970  0.7480 -3.4179
  186POPC  H16Y21479   4.233   5.780   4.162  2.0248  3.1345  1.8224
  186POPC  H16Z21480   4.400   5.783   4.203 -0.6020  1.7031  1.0540
  187POPC     N21481   1.748   3.674   2.023  0.0043  0.2433 -0.4576
  187POPC   C1221482   1.809   3.654   2.161 -0.2297  0.3896 -0.0244
  187POPC  H12A21483   1.733   3.644   2.237  0.1601  1.7851  0.5754
  187POPC  H12B21484   1.860   3.742   2.198 -0.5462  0.0210  1.3566
  187POPC   C1321485   1.666   3.547   1.993  0.0334  0.2428 -0.2992
  187POPC  H13A21486   1.732   3.461   1.988  0.2595  0.4517 -1.0517
  187POPC  H13B21487   1.599   3.527   2.075  1.9228 -1.1297  1.0058
  187POPC  H13C21488   1.611   3.553   1.900 -1.3715  1.7121  0.5755
  187POPC   C1421489   1.660   3.789   2.023  0.9138  0.1966  0.0223
  187POPC  H14A21490   1.724   3.855   2.080  2.7000 -3.4348  2.5504
  187POPC  H14B21491   1.634   3.828   1.925 -1.2874  0.1009  0.5212
  187POPC  H14C21492   1.568   3.761   2.072  0.4276 -0.0676 -0.9988
  187POPC   C1521493   1.856   3.698   1.924 -0.5049  0.1416  0.6875
  187POPC  H15A21494   1.921   3.611   1.926  0.3698  0.6729 -1.4910
  187POPC  H15B21495   1.906   3.789   1.952  0.2436 -0.2843  0.7393
  187POPC  H15C21496   1.824   3.727   1.825 -1.2074 -0.3266  0.7622
  187POPC   C1121497   1.907   3.536   2.179 -0.0841 -0.1619 -0.3077
  187POPC  H11A21498   1.982   3.560   2.258 -3.2831  1.0514  2.6040
  187POPC  H11B21499   1.965   3.515   2.087 -0.6893 -1.3745 -0.4154
  187POPC     P21500   1.751   3.401   2.342 -0.2231 -0.2209 -0.2763
  187POPC   O1321501   1.744   3.256   2.380 -0.2562  0.3123 -0.3759
  187POPC   O1421502   1.628   3.472   2.305  0.2576  0.6273 -0.0758
  187POPC   O1221503   1.849   3.414   2.216 -0.7766  0.2247  0.1452
  187POPC   O1121504   1.822   3.479   2.455 -0.1879  0.9433  0.0805
  187POPC    C121505   1.950   3.436   2.500 -0.0753 -0.3094  0.9765
  187POPC    HA21506   2.026   3.473   2.428  0.2369  0.4250  1.6660
  187POPC    HB21507   1.953   3.325   2.511  0.7241 -0.2368  1.5735
  187POPC    C221508   1.989   3.493   2.642  0.3799 -0.3339  0.0911
  187POPC    HS21509   2.088   3.453   2.671  1.8264  2.4062 -0.6445
  187POPC   O2121510   1.882   3.461   2.730  0.1960 -0.4207 -0.0364
  187POPC   C2121511   1.908   3.410   2.852 -0.4772 -0.7343 -0.1349
  187POPC   O2221512   2.014   3.415   2.908 -0.3318 -0.1996  0.2509
  187POPC   C2221513   1.780   3.344   2.904 -0.4768 -0.6471 -0.9938
  187POPC   H2R21514   1.781   3.241   2.863 -2.0093  0.0428 -2.9352
  187POPC   H2S21515   1.691   3.400   2.869 -1.2012  0.0222  1.6756
  187POPC    C321516   2.011   3.647   2.632  0.3708  0.3071  0.0265
  187POPC    HX21517   1.925   3.700   2.586 -0.7465 -3.3572 -2.4923
  187POPC    HY21518   2.093   3.680   2.564 -0.1743  3.9739  0.8925
  187POPC   O3121519   2.049   3.696   2.761  0.0712  0.3002  0.2453
  187POPC   C3121520   1.954   3.727   2.844 -0.2546 -0.6790 -0.7479
  187POPC   O3221521   1.834   3.732   2.827 -0.1364  0.3819  0.4409
  187POPC   C3221522   2.029   3.778   2.969  0.4901 -0.5950 -0.1345
  187POPC   H2X21523   2.064   3.878   2.934  0.5635 -0.3814  0.5412
  187POPC   H2Y21524   2.124   3.722   2.982  1.6863  1.0343 -1.3250
  187POPC   C2321525   1.778   3.335   3.059  0.2876  0.0066  0.4728
  187POPC   H3R21526   1.676   3.341   3.104  0.1716  1.0499  0.0741
  187POPC   H3S21527   1.834   3.420   3.105  0.0833  0.8742 -0.8404
  187POPC   C2421528   1.837   3.204   3.116 -0.8565 -0.5721 -0.8782
  187POPC   H4R21529   1.943   3.201   3.081 -0.8573 -1.0208 -0.8515
  187POPC   H4S21530   1.791   3.114   3.069 -1.7038  0.1757 -1.5086
  187POPC   C2521531   1.823   3.201   3.269 -0.4410 -0.2667 -0.1059
  187POPC   H5R21532   1.844   3.102   3.315 -2.1945 -1.5437 -1.9011
  187POPC   H5S21533   1.716   3.218   3.290 -0.3024 -1.6339  2.0367
  187POPC   C2621534   1.900   3.314   3.345 -0.8528  0.3612 -0.3469
  187POPC   H6R21535   1.866   3.415   3.313  0.8891  1.2216  0.3732
  187POPC   H6S21536   2.005   3.306   3.311 -0.4791  0.1908  0.8076
  187POPC   C2721537   1.895   3.292   3.501 -0.2935 -0.4950 -0.1185
  187POPC   H7R21538   1.980   3.344   3.551  0.7379 -1.7148 -0.5569
  187POPC   H7S21539   1.911   3.183   3.511  1.0527 -0.5002 -1.8189
  187POPC   C2821540   1.763   3.338   3.562 -0.0660 -0.0249 -0.5407
  187POPC   H8R21541   1.676   3.286   3.516  0.3133 -0.0548 -1.2401
  187POPC   H8S21542   1.733   3.439   3.528  1.1371  0.9599  1.1771
  187POPC   C2921543   1.768   3.338   3.715 -0.0699  0.7939  0.6781
  187POPC   H9121544   1.847   3.406   3.751  0.0594 -0.0458  2.0821
  187POPC  C21021545   1.692   3.254   3.789 -0.1651 -0.4247  0.0097
  187POPC  H10121546   1.702   3.255   3.899  1.1216  0.6939 -0.0838
  187POPC  C21121547   1.589   3.151   3.737 -0.3764  0.4256 -1.1118
  187POPC  H11R21548   1.557   3.189   3.638 -0.7642  1.3059 -0.6625
  187POPC  H11S21549   1.501   3.131   3.801  1.5629 -1.9912  1.0320
  187POPC  C21221550   1.657   3.009   3.723 -0.0685  0.3454 -0.3049
  187POPC  H12R21551   1.759   3.018   3.681  0.0952  2.4926  0.3927
  187POPC  H12S21552   1.587   2.950   3.660  0.2119 -0.2621 -0.0593
  187POPC  C21321553   1.678   2.935   3.855 -0.2955  0.1510  0.9546
  187POPC  H13R21554   1.774   2.974   3.894  1.1704 -1.6330 -0.6922
  187POPC  H13S21555   1.702   2.829   3.833  1.3896  0.9014 -1.0967
  187POPC  C21421556   1.561   2.921   3.940 -0.0556  0.6339 -0.5393
  187POPC  H14R21557   1.491   2.855   3.885  0.0156 -0.5331  0.7234
  187POPC  H14S21558   1.513   3.019   3.964 -0.1473  0.5584 -0.4163
  187POPC  C21521559   1.588   2.839   4.073  0.0213 -0.0392  0.0260
  187POPC  H15R21560   1.651   2.901   4.140 -0.1281  0.7281 -0.5381
  187POPC  H15S21561   1.652   2.752   4.045  1.8217  0.8358  1.2418
  187POPC  C21621562   1.462   2.791   4.137 -0.0146 -0.0608 -0.8336
  187POPC  H16R21563   1.417   2.712   4.072  0.5076 -0.2920 -0.9148
  187POPC  H16S21564   1.396   2.879   4.151 -0.4049 -0.6526  1.5142
  187POPC  C21721565   1.490   2.733   4.276  0.6021  0.0282  0.4005
  187POPC  H17R21566   1.598   2.713   4.285  0.3842 -0.5556  1.9332
  187POPC  H17S21567   1.437   2.636   4.274  1.0700 -0.2589 -2.3719
  187POPC  C21821568   1.432   2.807   4.401  0.6923 -0.1995  0.4101
  187POPC  H18R21569   1.425   2.744   4.492  2.1128  0.9084  1.3386
  187POPC  H18S21570   1.329   2.837   4.369  0.9132  0.8898  0.6932
  187POPC  H18T21571   1.495   2.894   4.429 -0.7930  1.2988 -0.6909
  187POPC   C3321572   1.940   3.799   3.093  0.9385 -0.5586 -0.4738
  187POPC   H3X21573   1.872   3.711   3.097  0.7091 -0.4634 -1.9168
  187POPC   H3Y21574   1.872   3.885   3.077  1.1541 -0.1578  0.6468
  187POPC   C3421575   2.016   3.819   3.227  0.2698  0.5548  0.4629
  187POPC   H4X21576   2.076   3.912   3.221  0.9019  0.1446  0.3080
  187POPC   H4Y21577   2.088   3.735   3.225  1.1387  1.2328 -2.7402
  187POPC   C3521578   1.931   3.815   3.353  0.9245  0.9276  0.8403
  187POPC   H5X21579   1.826   3.814   3.319  0.7981 -1.4208  1.1156
  187POPC   H5Y21580   1.967   3.901   3.414  1.7420  2.3625 -1.5399
  187POPC   C3621581   1.950   3.688   3.443 -0.3712  0.6797 -0.4477
  187POPC   H6X21582   2.056   3.659   3.423  0.3754  2.2350  0.9837
  187POPC   H6Y21583   1.895   3.601   3.400 -0.7409  0.6837  0.0088
  187POPC   C3721584   1.921   3.707   3.592  0.2420  0.7917  0.0656
  187POPC   H7X21585   1.822   3.664   3.619  0.1992  0.2085 -0.9713
  187POPC   H7Y21586   1.901   3.814   3.614 -1.9046  0.2436  1.1135
  187POPC   C3821587   2.033   3.653   3.680 -0.2079  0.4224 -0.0134
  187POPC   H8X21588   2.117   3.718   3.647  1.3498 -0.1229  2.5541
  187POPC   H8Y21589   2.059   3.548   3.653  0.1096 -0.0580  1.9737
  187POPC   C3921590   2.013   3.673   3.832 -0.0414  0.4244 -0.0427
  187POPC   H9X21591   1.924   3.611   3.858  1.0039 -1.0344  0.2031
  187POPC   H9Y21592   1.993   3.780   3.854  1.9725  0.4412  2.0348
  187POPC  C31021593   2.133   3.624   3.913  0.1948  0.2095 -0.3058
  187POPC  H10X21594   2.216   3.696   3.898  0.4618 -0.3036 -1.4462
  187POPC  H10Y21595   2.162   3.527   3.867  1.5830  1.2038 -1.6088
  187POPC  C31121596   2.082   3.607   4.059  0.3239 -0.2914 -0.9959
  187POPC  H11X21597   2.025   3.513   4.075  1.7231 -0.7510  1.8751
  187POPC  H11Y21598   2.015   3.691   4.088  0.9117  0.1696 -0.9402
  187POPC  C31221599   2.198   3.607   4.157  0.0031 -0.1694  0.8778
  187POPC  H12X21600   2.263   3.697   4.163  1.1485 -1.0246  1.8112
  187POPC  H12Y21601   2.272   3.531   4.123  0.0473  0.1076  0.3536
  187POPC  C31321602   2.159   3.558   4.294 -0.3845 -0.2257 -0.2287
  187POPC  H13X21603   2.134   3.450   4.288  2.2167 -0.9111  0.0385
  187POPC  H13Y21604   2.069   3.609   4.334 -1.0643 -0.1998 -1.7231
  187POPC  C31421605   2.283   3.582   4.389 -0.4916  0.6631  0.2799
  187POPC  H14X21606   2.323   3.686   4.387 -2.4806  1.4757  0.6434
  187POPC  H14Y21607   2.377   3.531   4.359 -1.4152 -0.6109 -0.5194
  187POPC  C31521608   2.242   3.576   4.534 -0.0021 -0.4352 -0.5025
  187POPC  H15X21609   2.217   3.471   4.560 -2.1274  0.1264 -0.1215
  187POPC  H15Y21610   2.142   3.624   4.546  0.9119  0.9004  3.6142
  187POPC  C31621611   2.336   3.643   4.635 -0.0132 -0.2890 -0.0208
  187POPC  H16X21612   2.437   3.598   4.627 -1.1806 -2.7782 -2.1972
  187POPC  H16Y21613   2.310   3.633   4.743  2.2836  0.9730  0.7169
  187POPC  H16Z21614   2.356   3.750   4.611 -2.3663  0.1523 -0.2518
  188POPC     N21615   4.389   3.563   2.115  0.5564  0.3914  0.1443
  188POPC   C1221616   4.406   3.710   2.131  0.1404  0.0611 -0.8563
  188POPC  H12A21617   4.341   3.760   2.061  1.2629  2.2811 -0.3765
  188POPC  H12B21618   4.503   3.740   2.093  0.2016  0.5075 -0.3455
  188POPC   C1321619   4.254   3.514   2.147 -0.1363 -0.3164 -0.4937
  188POPC  H13A21620   4.231   3.522   2.252 -5.1881 -1.1413 -1.2917
  188POPC  H13B21621   4.181   3.586   2.114  0.9263  0.8443 -0.3629
  188POPC  H13C21622   4.235   3.418   2.102  0.5861 -1.0413  0.6823
  188POPC   C1421623   4.421   3.538   1.974 -0.3663 -0.9897  0.6061
  188POPC  H14A21624   4.525   3.557   1.952 -0.3635 -1.6724 -0.0433
  188POPC  H14B21625   4.405   3.437   1.939  1.0885 -1.3862  0.9871
  188POPC  H14C21626   4.354   3.600   1.916 -1.6091 -3.2531 -0.5166
  188POPC   C1521627   4.486   3.490   2.195 -0.4325 -0.6044 -1.3636
  188POPC  H15A21628   4.576   3.549   2.187 -0.9068  0.1436 -1.3081
  188POPC  H15B21629   4.508   3.391   2.160  1.5659  0.1210 -2.3485
  188POPC  H15C21630   4.453   3.487   2.298  0.2385  0.1746 -1.1124
  188POPC   C1121631   4.405   3.772   2.270 -0.2797 -0.1000  0.8908
  188POPC  H11A21632   4.311   3.744   2.322 -1.5782 -3.0121 -2.6009
  188POPC  H11B21633   4.401   3.883   2.262 -1.7017 -0.2755 -2.5584
  188POPC     P21634   4.661   3.756   2.333 -0.1829 -0.1786  0.0869
  188POPC   O1321635   4.659   3.896   2.291 -0.2806  0.2947  0.0384
  188POPC   O1421636   4.726   3.652   2.255 -0.0335  0.4772  0.8667
  188POPC   O1221637   4.511   3.716   2.356 -0.2255 -0.2619  0.1626
  188POPC   O1121638   4.723   3.768   2.477 -0.5822  1.2234  0.2668
  188POPC    C121639   4.641   3.773   2.597  0.5353 -0.5197  0.5904
  188POPC    HA21640   4.679   3.715   2.683 -0.5173  0.9157  2.1030
  188POPC    HB21641   4.536   3.741   2.578 -0.4349  1.6864  1.8252
  188POPC    C221642   4.613   3.919   2.642  0.5166 -0.1723  0.1227
  188POPC    HS21643   4.622   3.979   2.550  1.4112  1.0671  0.9796
  188POPC   O2121644   4.707   3.968   2.733  0.0648 -0.1424  0.6130
  188POPC   C2121645   4.720   4.109   2.734 -0.3208  0.4104  0.5196
  188POPC   O2221646   4.685   4.180   2.640  0.0246 -1.0183 -0.6185
  188POPC   C2221647   4.789   4.158   2.862 -0.4721  0.2130  0.5587
  188POPC   H2R21648   4.763   4.262   2.892  1.2980  0.8037  0.1231
  188POPC   H2S21649   4.898   4.148   2.844 -0.7613  1.5103 -2.6347
  188POPC    C321650   4.473   3.949   2.693  0.2762  0.9361 -0.7824
  188POPC    HX21651   4.397   3.924   2.615  0.2956 -1.1393 -0.2018
  188POPC    HY21652   4.471   4.059   2.709  0.3050  0.8827 -0.4115
  188POPC   O3121653   4.440   3.885   2.817 -0.9009 -0.1459 -0.5300
  188POPC   C3121654   4.397   3.759   2.819  0.4597  0.0086  0.0220
  188POPC   O3221655   4.352   3.702   2.721  0.4995  0.2393  0.4091
  188POPC   C3221656   4.408   3.695   2.963  0.2972  0.5515 -0.2146
  188POPC   H2X21657   4.410   3.584   2.953  0.7152  0.6324 -1.2488
  188POPC   H2Y21658   4.313   3.724   3.012  0.4558  0.1660  0.3276
  188POPC   C2321659   4.753   4.063   2.976  0.2247  0.7128  0.3603
  188POPC   H3R21660   4.801   3.964   2.964 -1.5951 -0.3471  1.4188
  188POPC   H3S21661   4.643   4.044   2.977  0.2441  0.6252  0.8271
  188POPC   C2421662   4.793   4.116   3.108 -0.2079  0.7833 -0.4443
  188POPC   H4R21663   4.900   4.147   3.111 -0.5963  2.1249  0.2800
  188POPC   H4S21664   4.787   4.044   3.192 -1.6113  1.4848  0.0890
  188POPC   C2521665   4.718   4.236   3.169 -0.1040 -0.8110 -0.7804
  188POPC   H5R21666   4.611   4.215   3.190 -0.4272  2.4315  1.6329
  188POPC   H5S21667   4.711   4.320   3.098 -4.3711  0.5299  0.8593
  188POPC   C2621668   4.781   4.289   3.299  0.3048 -0.6195 -0.4748
  188POPC   H6R21669   4.756   4.396   3.314 -0.7276 -1.2088  2.7029
  188POPC   H6S21670   4.892   4.285   3.298  0.3017 -2.1007  1.2551
  188POPC   C2721671   4.727   4.216   3.422 -0.0816  0.2818 -0.7625
  188POPC   H7R21672   4.712   4.113   3.384 -0.1786 -0.8541  2.1316
  188POPC   H7S21673   4.641   4.268   3.470  0.8441 -0.0877  1.4046
  188POPC   C2821674   4.833   4.200   3.536 -0.1678 -0.1993  0.3651
  188POPC   H8R21675   4.922   4.157   3.486 -0.9174  1.3693 -2.5487
  188POPC   H8S21676   4.793   4.144   3.623 -1.6660  0.7474  0.3289
  188POPC   C2921677   4.865   4.344   3.582 -0.0738  0.4023  0.0116
  188POPC   H9121678   4.888   4.412   3.499 -1.2502 -0.4112 -1.0155
  188POPC  C21021679   4.865   4.397   3.706 -0.2063  0.7121  0.2280
  188POPC  H10121680   4.902   4.500   3.707  0.7554  0.3776  0.4961
  188POPC  C21121681   4.856   4.327   3.843  0.0424 -0.1645  0.0918
  188POPC  H11R21682   4.839   4.219   3.820  2.0460 -0.4677 -0.1429
  188POPC  H11S21683   4.765   4.353   3.901 -1.6413 -1.2072 -1.9625
  188POPC  C21221684   4.979   4.337   3.929 -0.1934 -0.5511  0.3809
  188POPC  H12R21685   4.973   4.443   3.963 -0.9321 -0.5636  0.2979
  188POPC  H12S21686   5.061   4.307   3.860 -1.6263 -1.5364 -0.9775
  188POPC  C21321687   4.982   4.258   4.059  0.0159 -0.1232 -0.2555
  188POPC  H13R21688   4.973   4.150   4.037  0.4732  0.0194 -1.1712
  188POPC  H13S21689   4.889   4.268   4.119 -1.0615 -1.0586 -1.7077
  188POPC  C21421690   5.112   4.286   4.147  0.3587  0.3563  0.3256
  188POPC  H14R21691   5.150   4.388   4.123  0.6076 -0.0885 -1.2396
  188POPC  H14S21692   5.185   4.204   4.130  1.6916  1.4156  0.7487
  188POPC  C21521693   5.084   4.308   4.298  0.1174  0.3525  0.4939
  188POPC  H15R21694   5.035   4.211   4.320  1.5279 -0.3667  0.6143
  188POPC  H15S21695   5.012   4.391   4.308 -0.1424 -0.0309  2.1020
  188POPC  C21621696   5.206   4.330   4.381 -0.0539 -0.3605 -0.0939
  188POPC  H16R21697   5.257   4.419   4.336 -0.1142  0.0625  0.6568
  188POPC  H16S21698   5.265   4.236   4.371 -0.6566 -0.7101 -0.3781
  188POPC  C21721699   5.171   4.361   4.526 -0.2726 -0.3856  0.2056
  188POPC  H17R21700   5.087   4.434   4.527 -0.2653 -0.3407  2.4359
  188POPC  H17S21701   5.256   4.404   4.583 -1.7390  0.4738  1.8811
  188POPC  C21821702   5.128   4.241   4.613 -0.0170  0.5841  0.2460
  188POPC  H18R21703   5.053   4.184   4.554  0.3322  0.4374 -0.0573
  188POPC  H18S21704   5.078   4.269   4.709 -0.9673  0.7472 -0.2765
  188POPC  H18T21705   5.219   4.180   4.629 -0.5676 -0.0746  0.9917
  188POPC   C3321706   4.537   3.729   3.042  0.5821  0.2659  0.3766
  188POPC   H3X21707   4.544   3.840   3.049  1.7827  0.3359 -1.3127
  188POPC   H3Y21708   4.626   3.684   2.992 -0.5295 -0.3794 -1.0843
  188POPC   C3421709   4.527   3.680   3.190 -0.8775 -0.8556 -0.4215
  188POPC   H4X21710   4.542   3.570   3.196 -0.6888 -0.9512 -2.1756
  188POPC   H4Y21711   4.422   3.692   3.224 -1.3803 -1.6578 -1.6228
  188POPC   C3521712   4.636   3.736   3.283 -0.0382 -0.7311 -0.3594
  188POPC   H5X21713   4.635   3.843   3.252  1.5291 -0.3220  0.8703
  188POPC   H5Y21714   4.733   3.711   3.235 -0.8379 -0.9809 -1.9008
  188POPC   C3621715   4.617   3.708   3.433 -0.1883  0.3650  0.0086
  188POPC   H6X21716   4.635   3.600   3.448 -0.2270  0.1345 -1.4721
  188POPC   H6Y21717   4.512   3.735   3.456  0.1069 -0.1695  2.2745
  188POPC   C3721718   4.723   3.799   3.515  0.2189 -0.0045  0.8456
  188POPC   H7X21719   4.700   3.906   3.497 -2.9708 -0.6706  0.3566
  188POPC   H7Y21720   4.822   3.773   3.472 -0.0305  1.3400 -0.6596
  188POPC   C3821721   4.720   3.771   3.666 -0.6146  0.0756 -0.1291
  188POPC   H8X21722   4.737   3.662   3.680 -0.4193 -0.3757 -3.2037
  188POPC   H8Y21723   4.619   3.799   3.704  0.2767  2.7936  0.4805
  188POPC   C3921724   4.818   3.856   3.743 -0.0323 -0.0290  0.0452
  188POPC   H9X21725   4.842   3.947   3.683  1.4876  0.0675  0.7411
  188POPC   H9Y21726   4.918   3.807   3.732 -0.9490 -1.5667 -2.1319
  188POPC  C31021727   4.790   3.899   3.892 -0.1716  0.3141  0.0209
  188POPC  H10X21728   4.689   3.944   3.890 -1.4873 -2.3586  0.8533
  188POPC  H10Y21729   4.871   3.965   3.929  0.9924 -1.0669  0.0574
  188POPC  C31121730   4.793   3.780   3.973  0.5647  0.2619 -0.2839
  188POPC  H11X21731   4.885   3.719   3.984 -1.1326 -2.0777  7.0761
  188POPC  H11Y21732   4.718   3.715   3.923 -0.3379  1.2922 -0.3040
  188POPC  C31221733   4.739   3.787   4.117  0.2407  0.1714 -0.0941
  188POPC  H12X21734   4.650   3.853   4.109 -2.5453 -3.1429  0.9586
  188POPC  H12Y21735   4.805   3.847   4.182  1.9932  0.1525 -1.7895
  188POPC  C31321736   4.689   3.660   4.189  0.3665 -0.3438  0.3355
  188POPC  H13X21737   4.774   3.587   4.187 -1.1757 -2.2019 -0.0057
  188POPC  H13Y21738   4.601   3.616   4.138 -0.1520 -0.7196  1.5128
  188POPC  C31421739   4.646   3.684   4.334  0.2797 -0.3089 -0.4121
  188POPC  H14X21740   4.554   3.747   4.329  0.5131  0.0283 -0.5248
  188POPC  H14Y21741   4.718   3.745   4.391 -1.0902  1.8796 -0.8910
  188POPC  C31521742   4.635   3.557   4.419 -0.0340  0.0919 -0.6212
  188POPC  H15X21743   4.624   3.588   4.525 -0.6846  0.4169 -0.7767
  188POPC  H15Y21744   4.731   3.500   4.415 -0.6893 -0.9804 -2.0138
  188POPC  C31621745   4.506   3.477   4.380 -0.0160 -0.5628  0.4964
  188POPC  H16X21746   4.416   3.539   4.358 -1.6513 -1.6767  3.4720
  188POPC  H16Y21747   4.476   3.395   4.449 -2.0049 -0.1150  0.2243
  188POPC  H16Z21748   4.526   3.442   4.276  0.4523  3.6519 -1.0215
  189SAPI   C1221749   3.725   0.946   6.511 -0.0871 -0.2714 -0.6698
  189SAPI    H221750   3.763   0.969   6.410 -2.1537  0.1511 -1.4031
  189SAPI    O221751   3.812   1.008   6.604 -0.1636  0.3392  0.3729
  189SAPI   HO221752   3.898   1.019   6.562  0.8441 -2.3583  1.5309
  189SAPI   C1321753   3.580   1.005   6.533  0.8341  0.9003  0.7820
  189SAPI    H321754   3.527   0.981   6.438  2.0958 -0.6962  0.4216
  189SAPI    O321755   3.567   1.145   6.536 -0.1540  0.1840 -0.7214
  189SAPI   HO321756   3.504   1.183   6.475  0.9776  2.4653 -0.5752
  189SAPI   C1421757   3.494   0.947   6.647  0.8938 -0.4385 -0.6070
  189SAPI    H421758   3.540   0.997   6.735  2.7149 -1.9348 -0.6521
  189SAPI    O421759   3.355   0.983   6.632 -0.4376  0.2509 -0.5753
  189SAPI   HO421760   3.349   1.056   6.694 -0.9193 -1.4835  1.5628
  189SAPI   C1521761   3.513   0.798   6.670  0.5705  0.1064 -0.1907
  189SAPI    H521762   3.460   0.745   6.588 -0.2577 -1.3753  1.2113
  189SAPI    O521763   3.455   0.765   6.797  0.1270 -0.0762  0.4149
  189SAPI   HO521764   3.361   0.785   6.797  0.3709  1.2558  1.4623
  189SAPI   C1621765   3.657   0.762   6.670 -0.9769  0.0367 -0.6443
  189SAPI    H621766   3.700   0.827   6.749 -0.9078  0.0104 -0.6606
  189SAPI    O621767   3.691   0.625   6.700 -0.0436  0.2901 -0.2343
  189SAPI   HO621768   3.682   0.575   6.619  0.4441 -0.8297  0.3645
  189SAPI   C1121769   3.723   0.795   6.536 -0.5534  0.1038 -0.1133
  189SAPI    H121770   3.660   0.751   6.455 -0.2663  1.7032 -1.2570
  189SAPI     P21771   3.898   0.600   6.453  0.0866  0.2112 -0.2179
  189SAPI   O1321772   3.773   0.517   6.434  0.0364 -0.7333  0.2495
  189SAPI   O1421773   4.009   0.546   6.524 -0.5334 -0.2197 -0.5486
  189SAPI   O1221774   3.853   0.751   6.515 -1.0847 -0.1460  0.4616
  189SAPI   O1121775   3.958   0.641   6.315  0.3998 -0.6376 -0.4409
  189SAPI    C121776   4.026   0.762   6.270 -0.2038  0.6788 -0.2551
  189SAPI    HA21777   4.038   0.834   6.354  3.4757 -0.4238  0.3750
  189SAPI    HB21778   4.132   0.742   6.244 -0.0781  1.2671 -0.1917
  189SAPI    C221779   3.946   0.836   6.155 -0.3235  0.3391 -0.4948
  189SAPI    HS21780   3.846   0.821   6.200  1.0018 -2.3727  1.9146
  189SAPI   O2121781   3.976   0.759   6.039  0.0536 -0.5579  0.1825
  189SAPI   C2121782   3.864   0.724   5.970  0.0712 -0.1614 -0.3714
  189SAPI   O2221783   3.749   0.741   6.009 -0.1767  0.1430 -0.0086
  189SAPI   C2221784   3.891   0.654   5.838 -0.4563 -0.6568  0.2037
  189SAPI   H2R21785   3.971   0.580   5.864  0.7936 -0.0154 -1.6057
  189SAPI   H2S21786   3.798   0.605   5.801 -0.2090 -2.0198  1.2570
  189SAPI    C321787   3.989   0.988   6.141 -0.4603  0.9329 -0.6958
  189SAPI    HX21788   4.095   0.978   6.106 -0.8100 -1.8806 -1.1761
  189SAPI    HY21789   3.984   1.054   6.230  0.1881  3.0082 -2.0937
  189SAPI   O3121790   3.907   1.048   6.036  0.1281  0.0604  0.0552
  189SAPI   C3121791   3.806   1.126   6.075  0.4954 -0.2543 -0.0377
  189SAPI   O3221792   3.766   1.149   6.192 -0.0050  0.2883  0.5912
  189SAPI   C3221793   3.755   1.216   5.950 -0.4525 -0.3733 -0.4090
  189SAPI   H2X21794   3.840   1.236   5.880 -1.0775  0.5248 -0.9350
  189SAPI   H2Y21795   3.724   1.314   5.990  1.1289 -0.8397  2.1572
  189SAPI   C2321796   3.942   0.755   5.728  0.1753 -0.5942  0.4635
  189SAPI   H3R21797   4.003   0.835   5.777 -1.3322  0.3142  0.9086
  189SAPI   H3S21798   3.853   0.801   5.681 -1.5603 -2.5102  1.6946
  189SAPI   C2421799   4.028   0.682   5.622 -0.0728  0.5846  0.8901
  189SAPI   H4R21800   3.962   0.603   5.580 -0.7946  0.3845  2.3352
  189SAPI   H4S21801   4.108   0.624   5.672 -0.7762 -2.1361 -0.8933
  189SAPI   C2521802   4.094   0.776   5.527  0.5197 -0.0255 -0.4124
  189SAPI   H5R21803   4.162   0.854   5.563 -0.1780  0.0674  0.7478
  189SAPI   C2621804   4.081   0.771   5.395 -0.1266 -0.5116 -0.3846
  189SAPI   H6R21805   4.130   0.846   5.332  1.8947 -2.8403 -1.7384
  189SAPI   C2721806   3.993   0.679   5.315  0.5563  0.7033 -0.4866
  189SAPI   H7R21807   3.892   0.701   5.357  0.8979 -0.6145  1.1308
  189SAPI   H7S21808   4.002   0.572   5.345  2.2466  1.2890  1.3090
  189SAPI   C2821809   3.986   0.690   5.166  0.2763  0.1573 -0.1132
  189SAPI   H8R21810   3.903   0.746   5.121 -0.3048  0.9014  1.8002
  189SAPI   C2921811   4.082   0.638   5.079 -0.1025 -1.2514 -0.0319
  189SAPI   H9R21812   4.072   0.665   4.973 -0.2786 -0.8832  0.0759
  189SAPI  C21021813   4.207   0.566   5.118 -0.4722  0.2162 -0.5956
  189SAPI  H10R21814   4.188   0.457   5.104 -0.7908 -0.0012  1.2999
  189SAPI  H10S21815   4.207   0.565   5.229 -0.4775  1.0712 -0.5855
  189SAPI  C21121816   4.334   0.610   5.049 -0.5052  0.3822  0.7998
  189SAPI  H11R21817   4.342   0.573   4.945  0.4613 -0.1769  1.0556
  189SAPI  C21221818   4.446   0.650   5.113  0.1559 -0.7944  0.1227
  189SAPI  H12R21819   4.533   0.692   5.060 -1.4195  2.2006 -0.2787
  189SAPI  C21321820   4.443   0.689   5.258  0.2119 -0.2103 -0.0198
  189SAPI  H13R21821   4.473   0.596   5.311 -0.5896 -0.4525  0.0271
  189SAPI  H13S21822   4.337   0.705   5.289 -0.0496 -2.0117  0.1382
  189SAPI  C21421823   4.536   0.803   5.306 -0.1850  0.1019 -0.1007
  189SAPI  H14R21824   4.590   0.866   5.235  0.3211  0.3808  0.5309
  189SAPI  C21521825   4.553   0.830   5.435  0.6113 -0.0968 -0.1403
  189SAPI  H15R21826   4.623   0.907   5.469 -0.6715 -0.0270  2.5882
  189SAPI  C21621827   4.476   0.757   5.546  0.4398 -0.3995  0.7229
  189SAPI  H16R21828   4.371   0.731   5.523  0.5274 -1.0881  1.0731
  189SAPI  H16S21829   4.478   0.821   5.637  1.1862  0.6992 -0.0316
  189SAPI  C21721830   4.554   0.633   5.584 -0.4945 -0.2630  0.9639
  189SAPI  H17R21831   4.589   0.583   5.491 -2.0366  2.2773 -1.1163
  189SAPI  H17S21832   4.472   0.572   5.626 -0.6202 -1.1882 -0.5554
  189SAPI  C21821833   4.650   0.662   5.699  1.0036 -0.5216  0.0563
  189SAPI  H18R21834   4.591   0.700   5.785  3.4027  2.3087  0.5935
  189SAPI  H18S21835   4.716   0.746   5.668 -1.9261  2.0980  0.4336
  189SAPI  C21921836   4.734   0.543   5.722 -0.1222 -0.5055  0.1340
  189SAPI  H19R21837   4.792   0.516   5.630 -0.7073 -0.9903 -0.1007
  189SAPI  H19S21838   4.676   0.451   5.745  1.2481 -0.6233  3.8888
  189SAPI  C22021839   4.829   0.562   5.834 -0.2767 -0.4750  0.0028
  189SAPI  H20R21840   4.901   0.645   5.821  1.0156 -1.2116  1.9667
  189SAPI  H20S21841   4.897   0.476   5.849 -0.1372 -0.4713 -0.6105
  189SAPI  H20T21842   4.771   0.578   5.928  0.6543 -1.2774  0.7386
  189SAPI   C3321843   3.650   1.146   5.865  0.1374  0.6291  0.2359
  189SAPI   H3X21844   3.578   1.215   5.816 -1.0867  2.2524  3.9553
  189SAPI   H3Y21845   3.582   1.083   5.927 -0.7101  1.9456  0.6913
  189SAPI   C3421846   3.716   1.062   5.750 -0.1762 -0.0321 -0.6631
  189SAPI   H4X21847   3.628   1.015   5.700 -1.9382 -0.2903  2.4579
  189SAPI   H4Y21848   3.771   0.983   5.805  0.1442  1.5487  1.4037
  189SAPI   C3521849   3.804   1.144   5.656  0.3140  0.9464 -0.2561
  189SAPI   H5X21850   3.904   1.151   5.704  0.4904  2.9591 -0.8283
  189SAPI   H5Y21851   3.758   1.244   5.643 -1.2597 -0.0226 -3.0078
  189SAPI   C3621852   3.807   1.060   5.519 -0.6819 -0.0746  0.1543
  189SAPI   H6X21853   3.712   1.061   5.461 -0.3444  0.4100 -0.4028
  189SAPI   H6Y21854   3.829   0.956   5.554  0.4133 -0.8366 -2.5380
  189SAPI   C3721855   3.923   1.113   5.427  0.1823  0.2804 -0.7873
  189SAPI   H7X21856   4.020   1.082   5.470 -0.4133  1.4440  1.6024
  189SAPI   H7Y21857   3.921   1.224   5.440  1.5383  0.2455 -0.1230
  189SAPI   C3821858   3.900   1.075   5.281  0.4393 -0.1101 -0.0368
  189SAPI   H8X21859   3.802   1.113   5.246 -0.2337 -0.0899  1.7547
  189SAPI   H8Y21860   3.891   0.965   5.271  0.6921 -0.1487  0.1442
  189SAPI   C3921861   4.012   1.123   5.189  0.2016 -0.2896 -0.1948
  189SAPI   H9X21862   4.110   1.092   5.231  0.0106  1.5216  1.7908
  189SAPI   H9Y21863   4.009   1.234   5.199 -0.1729 -0.4049  1.1646
  189SAPI  C31021864   4.000   1.073   5.046 -0.7466 -0.0077 -0.0570
  189SAPI  H10X21865   3.915   1.123   4.994  0.0950  0.5207 -0.9582
  189SAPI  H10Y21866   3.967   0.967   5.054 -1.2568  0.1953  0.6778
  189SAPI  C31121867   4.119   1.100   4.964 -0.2271  0.4132  0.4965
  189SAPI  H11X21868   4.213   1.045   4.986 -0.6984 -1.2621 -1.3529
  189SAPI  H11Y21869   4.133   1.205   4.931 -1.3318  0.4042 -0.0740
  189SAPI  C31221870   4.096   1.034   4.820  0.7182 -1.1067  0.0357
  189SAPI  H12X21871   3.999   1.065   4.775  0.6882 -2.4162 -0.8721
  189SAPI  H12Y21872   4.099   0.924   4.834  0.2313 -1.1873 -0.4634
  189SAPI  C31321873   4.204   1.077   4.718  1.0696 -0.3098  0.1004
  189SAPI  H13X21874   4.305   1.034   4.734  0.5854 -1.2950  0.5392
  189SAPI  H13Y21875   4.213   1.188   4.709 -1.7228  0.3254  3.1598
  189SAPI  C31421876   4.163   1.054   4.574 -0.3412  0.4942  0.0611
  189SAPI  H14X21877   4.072   1.112   4.547 -1.7739 -1.8469 -0.3892
  189SAPI  H14Y21878   4.140   0.950   4.542 -1.0723  0.6351  0.1207
  189SAPI  C31521879   4.272   1.090   4.467  0.1671  0.1440  0.1927
  189SAPI  H15X21880   4.362   1.030   4.492 -0.7587 -1.0107  0.8689
  189SAPI  H15Y21881   4.296   1.197   4.480 -1.4089  0.4527  0.8071
  189SAPI  C31621882   4.233   1.062   4.320 -0.2415  0.2377  0.1686
  189SAPI  H16X21883   4.156   1.136   4.290  2.5346  2.4362 -2.0606
  189SAPI  H16Y21884   4.190   0.961   4.306 -3.6948  1.6787 -0.4948
  189SAPI  C31721885   4.353   1.069   4.222 -0.2389 -0.1610 -0.0252
  189SAPI  H17X21886   4.419   0.982   4.243 -1.3953 -1.3083 -1.0121
  189SAPI  H17Y21887   4.417   1.151   4.262 -2.1671  1.0077  0.7864
  189SAPI  C31821888   4.322   1.079   4.075  1.0529  1.4576  1.3570
  189SAPI  H18X21889   4.394   1.042   4.000  1.5216 -0.3508  2.6194
  189SAPI  H18Y21890   4.302   1.183   4.041  0.2873  0.6395 -0.8562
  189SAPI  H18Z21891   4.222   1.034   4.056  1.8718  0.1405 -0.0622
  190SAPI   C1221892   3.246   6.188   6.485  0.0431 -0.2414  0.2205
  190SAPI    H221893   3.269   6.281   6.541  0.0853 -0.1783  0.0994
  190SAPI    O221894   3.353   6.101   6.511  0.2189 -0.0640  0.2940
  190SAPI   HO221895   3.394   6.074   6.428  1.1393 -0.7559  0.9418
  190SAPI   C1321896   3.117   6.129   6.534  0.0334  0.4491  0.1255
  190SAPI    H321897   3.034   6.202   6.519  0.3383  0.4561 -1.7843
  190SAPI    O321898   3.108   6.102   6.673  0.4164  0.1574  0.1102
  190SAPI   HO321899   3.019   6.086   6.705 -0.6188  0.8305 -2.2329
  190SAPI   C1421900   3.071   5.997   6.454 -0.0439  0.1775 -0.4169
  190SAPI    H421901   3.153   5.925   6.476  1.8902  2.4210  0.1165
  190SAPI    O421902   2.949   5.938   6.489  0.0292  0.0098 -0.7979
  190SAPI   HO421903   2.888   6.000   6.447  1.6286  2.0576 -0.2717
  190SAPI   C1521904   3.089   6.016   6.301 -0.9761 -0.0821  0.4990
  190SAPI    H521905   2.994   6.056   6.258 -0.4440 -0.3991 -1.0537
  190SAPI    O521906   3.106   5.892   6.231  0.2959  0.3398 -0.3629
  190SAPI   HO521907   3.026   5.842   6.247  0.5124  0.8212  2.9630
  190SAPI   C1621908   3.194   6.120   6.252 -0.4364 -0.0995  0.4157
  190SAPI    H621909   3.287   6.060   6.246 -1.2290 -1.3571  0.0246
  190SAPI    O621910   3.159   6.171   6.121 -0.0314 -0.2817 -0.8789
  190SAPI   HO621911   3.217   6.245   6.103  0.1290 -0.7730 -2.4647
  190SAPI   C1121912   3.235   6.234   6.344  0.0225 -0.4344 -0.3282
  190SAPI    H121913   3.150   6.305   6.347 -0.1595 -0.4439 -2.9452
  190SAPI     P21914   3.367   6.412   6.181  0.8216  0.1730  0.3513
  190SAPI   O1321915   3.460   6.515   6.213  0.0812  0.0049 -0.2603
  190SAPI   O1421916   3.228   6.447   6.146 -0.1396 -0.3384  0.3110
  190SAPI   O1221917   3.364   6.297   6.302 -0.3387 -0.3276  0.0506
  190SAPI   O1121918   3.414   6.331   6.057  0.1913 -0.3541  0.3352
  190SAPI    C121919   3.517   6.241   6.071  0.0605  0.6588  0.4587
  190SAPI    HA21920   3.612   6.277   6.027 -0.6443  2.7596  0.5613
  190SAPI    HB21921   3.539   6.215   6.176  0.1794  1.1195  0.5495
  190SAPI    C221922   3.476   6.112   5.992 -0.9408  0.6043 -0.9433
  190SAPI    HS21923   3.390   6.066   6.045  1.9196 -2.4423  1.5106
  190SAPI   O2121924   3.590   6.022   5.990  0.2476  0.1456 -0.3199
  190SAPI   C2121925   3.562   5.892   5.966  0.8755 -0.0137  0.2889
  190SAPI   O2221926   3.444   5.853   5.955  0.6593  0.3354 -0.1601
  190SAPI   C2221927   3.678   5.804   5.951  0.1900  0.1173 -0.6015
  190SAPI   H2R21928   3.748   5.861   5.886 -0.4339 -1.0731 -2.4050
  190SAPI   H2S21929   3.719   5.789   6.053 -0.1739  0.6146 -0.3766
  190SAPI    C321930   3.432   6.135   5.847  0.1699  0.1242 -0.1459
  190SAPI    HX21931   3.326   6.168   5.848 -0.1378 -0.8143  0.9827
  190SAPI    HY21932   3.429   6.045   5.783 -1.3870 -1.1076  1.5593
  190SAPI   O3121933   3.511   6.244   5.791 -0.1402  0.6268 -0.0853
  190SAPI   C3121934   3.476   6.270   5.662 -0.8632  0.5209 -0.6359
  190SAPI   O3221935   3.389   6.214   5.601 -0.4326 -0.4152 -0.2681
  190SAPI   C3221936   3.582   6.358   5.597 -0.2648  0.1944 -0.0208
  190SAPI   H2X21937   3.683   6.317   5.614 -0.1095  1.1155  1.4731
  190SAPI   H2Y21938   3.587   6.460   5.642  3.2091  0.7245 -1.3033
  190SAPI   C2321939   3.649   5.666   5.901 -0.1699  0.1858  0.4855
  190SAPI   H3R21940   3.600   5.662   5.801 -3.0839  0.1498  1.8311
  190SAPI   H3S21941   3.590   5.614   5.979 -0.2012 -0.2561  0.1728
  190SAPI   C2421942   3.782   5.582   5.886  0.5743  0.5254  0.2427
  190SAPI   H4R21943   3.760   5.483   5.842 -0.7613  1.1158 -0.4731
  190SAPI   H4S21944   3.831   5.557   5.983 -0.7565 -1.3654  0.4855
  190SAPI   C2521945   3.878   5.658   5.797  0.3581  0.0137 -0.9110
  190SAPI   H5R21946   3.945   5.724   5.854 -1.9987  3.3137 -1.6597
  190SAPI   C2621947   3.901   5.646   5.664 -0.2068 -0.3773 -0.2712
  190SAPI   H6R21948   3.984   5.710   5.632  2.1285 -3.3431 -0.6491
  190SAPI   C2721949   3.821   5.567   5.561  0.2438 -0.1187  0.0519
  190SAPI   H7R21950   3.725   5.549   5.615  0.0681  3.4851  1.2091
  190SAPI   H7S21951   3.852   5.464   5.534  0.4021  0.2659 -1.3234
  190SAPI   C2821952   3.800   5.654   5.441 -0.5525 -0.0199  0.1840
  190SAPI   H8R21953   3.705   5.710   5.441  0.8161  2.4741  0.8197
  190SAPI   C2921954   3.876   5.678   5.330 -0.2462  0.1561 -0.3833
  190SAPI   H9R21955   3.837   5.749   5.256  1.0819  0.4191 -0.8479
  190SAPI  C21021956   4.014   5.618   5.303 -0.6688  0.2407 -0.1067
  190SAPI  H10R21957   4.009   5.534   5.229  0.4037 -0.6403  0.7777
  190SAPI  H10S21958   4.054   5.579   5.399  1.8079 -2.7293 -2.1437
  190SAPI  C21121959   4.123   5.715   5.254  0.2292 -0.5793 -1.1294
  190SAPI  H11R21960   4.171   5.765   5.339 -0.1834 -3.1158  0.6874
  190SAPI  C21221961   4.151   5.749   5.128 -0.1664  0.6862 -0.1493
  190SAPI  H12R21962   4.235   5.817   5.106  0.9406 -0.5415  0.1839
  190SAPI  C21321963   4.094   5.698   4.999 -0.1693 -0.4106 -0.1802
  190SAPI  H13R21964   4.125   5.768   4.919  0.7848 -1.2810 -0.5948
  190SAPI  H13S21965   3.983   5.706   5.002 -0.0531  1.3750  0.3769
  190SAPI  C21421966   4.135   5.557   4.953 -0.5875  0.0677 -0.0492
  190SAPI  H14R21967   4.153   5.489   5.038  1.6690  2.1432  1.2768
  190SAPI  C21521968   4.133   5.506   4.825  0.4051 -0.4061  0.0362
  190SAPI  H15R21969   4.173   5.406   4.798 -2.6923 -1.4129 -1.2636
  190SAPI  C21621970   4.087   5.588   4.711 -0.5284  0.2350  0.5975
  190SAPI  H16R21971   4.035   5.678   4.749 -4.6894 -1.9942  0.7573
  190SAPI  H16S21972   4.013   5.536   4.647  1.2935 -0.2636 -1.2091
  190SAPI  C21721973   4.209   5.614   4.616  0.0372 -0.0023 -0.6359
  190SAPI  H17R21974   4.229   5.515   4.570 -2.6925 -0.7926 -0.2864
  190SAPI  H17S21975   4.299   5.645   4.674 -0.9325 -0.4136  1.1968
  190SAPI  C21821976   4.185   5.717   4.508  0.0660  0.7571  0.2276
  190SAPI  H18R21977   4.083   5.712   4.464 -0.2630 -0.3629  1.0517
  190SAPI  H18S21978   4.264   5.696   4.432  0.3649 -0.7966  0.9287
  190SAPI  C21921979   4.213   5.857   4.563  0.1131 -0.0724  0.1480
  190SAPI  H19R21980   4.315   5.841   4.602 -0.8425 -1.2951  2.3409
  190SAPI  H19S21981   4.158   5.885   4.656  0.7676 -0.2618  0.5965
  190SAPI  C22021982   4.199   5.961   4.461  0.0526  0.0764  0.4158
  190SAPI  H20R21983   4.254   6.048   4.502  4.1991 -2.1944  0.2786
  190SAPI  H20S21984   4.094   5.991   4.438  0.2567  1.4731  1.1799
  190SAPI  H20T21985   4.253   5.931   4.368 -1.6495  1.7009 -1.1858
  190SAPI   C3321986   3.564   6.356   5.450 -0.2896 -0.4621  1.0145
  190SAPI   H3X21987   3.457   6.366   5.422  0.4349 -0.2654 -2.1083
  190SAPI   H3Y21988   3.601   6.254   5.423 -1.4945 -0.5655 -0.3630
  190SAPI   C3421989   3.639   6.470   5.373 -0.3490 -0.2151  0.1871
  190SAPI   H4X21990   3.738   6.465   5.424 -0.0648 -1.5990 -0.4437
  190SAPI   H4Y21991   3.590   6.568   5.391  0.5397  1.2962 -4.3034
  190SAPI   C3521992   3.655   6.453   5.221  0.2357 -0.2296 -0.0286
  190SAPI   H5X21993   3.741   6.392   5.188 -1.1962 -1.8892 -0.8410
  190SAPI   H5Y21994   3.663   6.559   5.190 -1.6658 -0.1034 -0.2127
  190SAPI   C3621995   3.531   6.411   5.142  0.2538  0.3493  0.6050
  190SAPI   H6X21996   3.442   6.457   5.190 -1.4085 -0.7362 -1.2710
  190SAPI   H6Y21997   3.508   6.303   5.156 -1.1729  0.3695 -1.0714
  190SAPI   C3721998   3.535   6.458   4.989 -0.1775 -0.3170  0.0158
  190SAPI   H7X21999   3.435   6.444   4.944  0.6732 -2.5587 -1.3092
  190SAPI   H7Y22000   3.608   6.388   4.942 -1.6636 -1.0643 -1.2377
  190SAPI   C3822001   3.586   6.606   4.965 -0.0059  0.2291 -0.5631
  190SAPI   H8X22002   3.696   6.613   4.978 -0.1268  0.5159  0.4336
  190SAPI   H8Y22003   3.541   6.681   5.033 -2.5549 -2.0594  0.4291
  190SAPI   C3922004   3.554   6.665   4.826  0.6132 -0.0902  0.4971
  190SAPI   H9X22005   3.598   6.767   4.833 -0.9660  0.6617 -0.0288
  190SAPI   H9Y22006   3.443   6.674   4.826  0.7249  1.7019  0.7501
  190SAPI  C31022007   3.611   6.603   4.702 -0.8348 -0.4008 -0.1588
  190SAPI  H10X22008   3.584   6.495   4.692  1.6200 -0.9620 -1.7309
  190SAPI  H10Y22009   3.721   6.591   4.709 -1.0994 -2.7589  1.1008
  190SAPI  C31122010   3.590   6.685   4.581 -0.3922 -0.1909 -0.0313
  190SAPI  H11X22011   3.600   6.790   4.616 -1.9526 -0.4531  1.2977
  190SAPI  H11Y22012   3.483   6.678   4.552 -0.9888  4.1330  0.4633
  190SAPI  C31222013   3.689   6.650   4.461 -0.1528  0.2299 -0.1081
  190SAPI  H12X22014   3.636   6.594   4.381 -0.7840 -1.1882  1.2522
  190SAPI  H12Y22015   3.760   6.572   4.496 -1.5257 -0.3569  1.4540
  190SAPI  C31322016   3.768   6.766   4.404  0.2304 -0.1156  0.3900
  190SAPI  H13X22017   3.837   6.798   4.485  0.6655 -0.8550  0.3224
  190SAPI  H13Y22018   3.697   6.849   4.384 -1.0494 -1.0644  0.9287
  190SAPI  C31422019   3.861   6.749   4.284  0.3069  0.4421 -0.4005
  190SAPI  H14X22020   3.810   6.686   4.208 -1.1119  1.1772 -0.0946
  190SAPI  H14Y22021   3.955   6.694   4.307 -0.6520 -0.8028  0.7587
  190SAPI  C31522022   3.890   6.883   4.203 -0.0255  0.2691  0.4856
  190SAPI  H15X22023   3.936   6.948   4.281 -0.4761  0.9342  0.2070
  190SAPI  H15Y22024   3.789   6.919   4.175 -1.2145 -1.8746  1.7057
  190SAPI  C31622025   3.989   6.872   4.092  0.1122 -0.1961 -0.3914
  190SAPI  H16X22026   4.093   6.881   4.130 -0.2146  0.8312  0.2941
  190SAPI  H16Y22027   3.976   6.961   4.027 -2.4477 -0.6337 -0.5943
  190SAPI  C31722028   3.980   6.746   4.003  0.4023 -0.0517 -0.1368
  190SAPI  H17X22029   3.876   6.716   3.977  1.1875 -1.8779 -1.3070
  190SAPI  H17Y22030   4.008   6.663   4.071 -1.0013  0.1082  0.6808
  190SAPI  C31822031   4.055   6.759   3.873  0.6001  0.1690  0.2596
  190SAPI  H18X22032   4.041   6.673   3.803  2.2491 -0.6123  0.8354
  190SAPI  H18Y22033   4.164   6.746   3.891  0.5985 -0.7656 -0.2910
  190SAPI  H18Z22034   4.019   6.852   3.826  0.8841  1.1331  1.8845
  191SAPI   C1222035   6.784   6.392   1.919  0.3398  1.1028 -0.1703
  191SAPI    H222036   6.826   6.466   1.991  0.5150  0.1888  0.6903
  191SAPI    O222037   6.663   6.350   1.979  0.2298 -0.1488  0.2962
  191SAPI   HO222038   6.624   6.418   2.033 -1.9772 -0.3623 -0.9248
  191SAPI   C1322039   6.761   6.458   1.785  0.4008 -0.4082  0.2823
  191SAPI    H322040   6.857   6.500   1.748 -0.4075 -0.8889 -2.6231
  191SAPI    O322041   6.670   6.573   1.804 -0.1186 -0.0946 -0.4893
  191SAPI   HO322042   6.693   6.605   1.891 -0.2175 -2.4726  0.4657
  191SAPI   C1422043   6.732   6.366   1.659  0.3530 -0.4691  0.1661
  191SAPI    H422044   6.626   6.333   1.664  1.0752 -3.0869 -0.2464
  191SAPI    O422045   6.754   6.445   1.538 -0.5836 -0.0698  0.6814
  191SAPI   HO422046   6.848   6.452   1.525 -0.7155 -2.0657 -2.2262
  191SAPI   C1522047   6.798   6.233   1.659  0.3246 -0.2485  0.3274
  191SAPI    H522048   6.901   6.244   1.619  1.4600 -0.6328  2.9750
  191SAPI    O522049   6.730   6.140   1.567 -0.3163  0.3992  0.0751
  191SAPI   HO522050   6.743   6.170   1.476 -2.7057  0.8152 -0.2040
  191SAPI   C1622051   6.832   6.175   1.795  0.1168 -0.0791  0.2298
  191SAPI    H622052   6.737   6.130   1.830 -1.0208  2.2420  0.3057
  191SAPI    O622053   6.927   6.071   1.786 -0.0114  0.0214 -0.6724
  191SAPI   HO622054   6.908   6.012   1.860  3.0608  0.4568  0.6419
  191SAPI   C1122055   6.875   6.268   1.904 -0.1541 -0.2242  0.7921
  191SAPI    H122056   6.971   6.306   1.861 -0.2033  1.6282  2.1808
  191SAPI     P22057   7.002   6.271   2.145  0.2906 -0.2138 -0.5405
  191SAPI   O1322058   7.079   6.389   2.091 -0.5394 -0.1482 -0.9487
  191SAPI   O1422059   7.077   6.160   2.209  0.1614 -0.4819  0.1103
  191SAPI   O1222060   6.906   6.202   2.025 -0.2468  0.2424 -0.0535
  191SAPI   O1122061   6.889   6.326   2.238  0.4312  0.2751  0.4120
  191SAPI    C122062   6.884   6.448   2.311 -0.3957 -0.2177  0.4218
  191SAPI    HA22063   6.903   6.534   2.243  2.3995 -0.4911  0.7353
  191SAPI    HB22064   6.785   6.458   2.362 -0.4519 -0.7528  0.4238
  191SAPI    C222065   6.981   6.445   2.427  1.0595  0.7587 -0.3406
  191SAPI    HS22066   6.947   6.525   2.497 -2.8600 -0.7041 -0.3133
  191SAPI   O2122067   7.121   6.450   2.393  0.0374  0.1062 -0.3339
  191SAPI   C2122068   7.168   6.559   2.344 -0.0746 -0.0058  0.5378
  191SAPI   O2222069   7.103   6.663   2.337 -0.0385 -0.3746 -0.0875
  191SAPI   C2222070   7.301   6.542   2.278 -0.1939 -0.2789  0.1107
  191SAPI   H2R22071   7.319   6.433   2.275 -1.0401 -0.4048 -0.9678
  191SAPI   H2S22072   7.281   6.580   2.176 -3.7631 -0.0910  0.7311
  191SAPI    C322073   6.945   6.321   2.521 -0.6194 -0.1594  0.3579
  191SAPI    HX22074   6.970   6.229   2.463  1.2181  0.9475 -0.7037
  191SAPI    HY22075   6.835   6.309   2.535 -0.7261  0.6439  0.2534
  191SAPI   O3122076   7.015   6.339   2.642  0.0449 -0.4240 -0.1817
  191SAPI   C3122077   7.107   6.247   2.673  0.3817  0.4868 -0.0468
  191SAPI   O3222078   7.135   6.156   2.604 -0.0458  0.4820  0.6530
  191SAPI   C3222079   7.155   6.282   2.801  0.0374 -0.2361 -0.1625
  191SAPI   H2X22080   7.091   6.228   2.874 -0.0954  1.3673  0.9642
  191SAPI   H2Y22081   7.163   6.393   2.810  0.0910 -0.0415 -2.1032
  191SAPI   C2322082   7.407   6.621   2.357 -0.4927  0.4218 -0.4380
  191SAPI   H3R22083   7.361   6.716   2.391  1.2309  1.3897 -0.6900
  191SAPI   H3S22084   7.485   6.662   2.289 -0.9215 -0.4572 -1.4978
  191SAPI   C2422085   7.465   6.544   2.475  0.0887 -0.6593 -1.6593
  191SAPI   H4R22086   7.526   6.457   2.445  0.4573 -0.7762 -0.6100
  191SAPI   H4S22087   7.389   6.486   2.531  2.9243 -1.4029  1.8021
  191SAPI   C2522088   7.536   6.644   2.571 -0.4033 -0.3155 -0.5510
  191SAPI   H5R22089   7.602   6.716   2.521 -1.2121 -0.2816 -1.6275
  191SAPI   C2622090   7.509   6.672   2.698  0.0127  0.3016 -0.2819
  191SAPI   H6R22091   7.560   6.760   2.740 -0.2797  0.4295 -0.1894
  191SAPI   C2722092   7.388   6.629   2.781 -0.1053  1.1262  0.3774
  191SAPI   H7R22093   7.421   6.576   2.873 -1.1396 -0.5898 -0.1961
  191SAPI   H7S22094   7.343   6.555   2.712  2.4381  0.2199 -0.4528
  191SAPI   C2822095   7.285   6.741   2.798 -0.6880 -0.2286  0.2669
  191SAPI   H8R22096   7.249   6.772   2.699 -0.0002 -2.4342 -0.7276
  191SAPI   C2922097   7.273   6.810   2.910 -0.0911  0.0720 -0.2279
  191SAPI   H9R22098   7.203   6.895   2.904  0.3410  0.4875  0.3966
  191SAPI  C21022099   7.340   6.788   3.039  0.0752 -0.7161 -0.7201
  191SAPI  H10R22100   7.397   6.694   3.060 -0.8349 -1.3536 -1.0219
  191SAPI  H10S22101   7.272   6.803   3.125  1.5699  2.4013  0.0542
  191SAPI  C21122102   7.450   6.893   3.046  0.1465  0.2810 -0.0304
  191SAPI  H11R22103   7.520   6.895   2.962  3.0983 -2.5056  2.1163
  191SAPI  C21222104   7.473   6.974   3.150  0.3005 -0.4122 -0.2664
  191SAPI  H12R22105   7.547   7.052   3.127 -1.7638  1.1958 -1.9762
  191SAPI  C21322106   7.392   6.978   3.275  0.4931  0.6839  0.6000
  191SAPI  H13R22107   7.400   6.877   3.321  0.9053  0.6558  0.4732
  191SAPI  H13S22108   7.284   6.994   3.256  0.3644  0.1045  0.8186
  191SAPI  C21422109   7.456   7.075   3.367  0.6202  0.2440 -0.2913
  191SAPI  H14R22110   7.528   7.146   3.325  0.9402 -0.4293 -0.9230
  191SAPI  C21522111   7.449   7.074   3.500  1.1677 -0.3390  0.2320
  191SAPI  H15R22112   7.511   7.151   3.550 -0.4393  0.4392  1.1133
  191SAPI  C21622113   7.365   6.985   3.591 -0.4807  0.5890 -0.5922
  191SAPI  H16R22114   7.431   6.918   3.651  0.5616  1.3133 -0.9001
  191SAPI  H16S22115   7.283   6.933   3.537 -1.8672  0.3903  1.5859
  191SAPI  C21722116   7.303   7.082   3.698  0.0988  0.1203 -0.2746
  191SAPI  H17R22117   7.243   7.011   3.760 -0.3178 -0.5268 -1.3832
  191SAPI  H17S22118   7.227   7.150   3.654 -0.0086 -1.7551 -3.2785
  191SAPI  C21822119   7.391   7.169   3.786  0.3071 -0.6050 -0.1681
  191SAPI  H18R22120   7.433   7.255   3.730  0.0483  1.1260  2.1635
  191SAPI  H18S22121   7.476   7.105   3.817 -1.5755 -3.6241 -0.8022
  191SAPI  C21922122   7.318   7.226   3.911 -0.7022 -0.0550 -0.5726
  191SAPI  H19R22123   7.228   7.284   3.882  0.0617  1.1941 -0.5246
  191SAPI  H19S22124   7.393   7.298   3.949  0.5984 -1.2980 -0.7125
  191SAPI  C22022125   7.292   7.124   4.025 -0.2742  0.2972 -0.1206
  191SAPI  H20R22126   7.385   7.064   4.029 -0.8199 -0.5275  0.6474
  191SAPI  H20S22127   7.213   7.051   3.998  0.6287 -0.2274 -1.4088
  191SAPI  H20T22128   7.269   7.173   4.122 -2.5658 -1.6430  0.4112
  191SAPI   C3322129   7.302   6.234   2.819 -0.1189 -0.1912  0.9345
  191SAPI   H3X22130   7.363   6.268   2.733 -0.0986  1.9572  1.7266
  191SAPI   H3Y22131   7.313   6.124   2.811  1.0784  0.0176 -0.9106
  191SAPI   C3422132   7.371   6.274   2.951 -0.1223 -0.1781  0.4661
  191SAPI   H4X22133   7.342   6.380   2.965  3.4532  1.3883 -2.3542
  191SAPI   H4Y22134   7.481   6.271   2.945 -0.1722  0.1869 -1.0917
  191SAPI   C3522135   7.320   6.186   3.070  0.1708  0.0089 -0.1629
  191SAPI   H5X22136   7.373   6.089   3.081  0.7234  0.4614  1.4727
  191SAPI   H5Y22137   7.211   6.170   3.070  0.3232 -1.1398  0.8843
  191SAPI   C3622138   7.351   6.250   3.204  0.2330 -0.2769 -0.2070
  191SAPI   H6X22139   7.328   6.358   3.203  0.1645 -0.2852  0.1876
  191SAPI   H6Y22140   7.459   6.241   3.229 -0.0207  0.4161  1.2224
  191SAPI   C3722141   7.269   6.181   3.320  0.7301  0.4931 -0.8299
  191SAPI   H7X22142   7.291   6.074   3.303  0.4112  0.3892 -0.5846
  191SAPI   H7Y22143   7.160   6.199   3.307  0.0930 -0.2675  2.5995
  191SAPI   C3822144   7.320   6.236   3.453 -0.3393  0.3471  0.3884
  191SAPI   H8X22145   7.327   6.347   3.449  1.2774  0.2700  0.5299
  191SAPI   H8Y22146   7.425   6.198   3.456  0.3992  2.0362 -1.6498
  191SAPI   C3922147   7.247   6.200   3.578  0.3446  0.9806  0.0793
  191SAPI   H9X22148   7.242   6.089   3.583  0.1631  1.0421  1.4468
  191SAPI   H9Y22149   7.143   6.236   3.592 -0.2837 -1.8601  4.5312
  191SAPI  C31022150   7.316   6.242   3.707 -0.2664 -0.2714 -0.3281
  191SAPI  H10X22151   7.356   6.345   3.700  1.0258 -0.5905  1.6895
  191SAPI  H10Y22152   7.402   6.176   3.730 -0.0786  0.0233 -0.1763
  191SAPI  C31122153   7.219   6.238   3.827  0.1348  0.0072 -0.9372
  191SAPI  H11X22154   7.196   6.131   3.846  1.5516 -0.4448 -1.6755
  191SAPI  H11Y22155   7.131   6.302   3.802  0.4789  1.0125  0.2714
  191SAPI  C31222156   7.295   6.285   3.961  0.0523 -0.1843  0.5353
  191SAPI  H12X22157   7.291   6.396   3.961 -2.5498 -0.2105  1.7136
  191SAPI  H12Y22158   7.399   6.246   3.957  1.1451  2.3795 -4.4604
  191SAPI  C31322159   7.229   6.238   4.089  0.8800 -0.0822  0.0527
  191SAPI  H13X22160   7.235   6.127   4.086  0.8621 -0.0672 -2.2590
  191SAPI  H13Y22161   7.125   6.275   4.093  1.3228  1.6601 -2.5076
  191SAPI  C31422162   7.295   6.275   4.222  0.2432 -0.1404  0.0643
  191SAPI  H14X22163   7.278   6.385   4.231  1.9626  0.2853 -1.3988
  191SAPI  H14Y22164   7.406   6.272   4.217  0.3367  0.9864  0.8859
  191SAPI  C31522165   7.247   6.194   4.345 -0.1367  0.2686 -0.8592
  191SAPI  H15X22166   7.270   6.087   4.327 -0.7134  0.0126 -0.1349
  191SAPI  H15Y22167   7.138   6.218   4.347 -0.1276  1.6228  5.3294
  191SAPI  C31622168   7.310   6.231   4.484  0.2366  0.0896 -0.3187
  191SAPI  H16X22169   7.421   6.230   4.473  0.3055  0.8553  0.2412
  191SAPI  H16Y22170   7.282   6.151   4.555  1.2182  0.0143 -0.0086
  191SAPI  C31722171   7.281   6.379   4.533 -0.1437  0.0390  0.8666
  191SAPI  H17X22172   7.207   6.424   4.465 -1.9373 -1.6322  1.6186
  191SAPI  H17Y22173   7.373   6.441   4.521  0.0006 -0.5917 -2.1120
  191SAPI  C31822174   7.212   6.387   4.668 -0.1002 -0.0456 -0.0134
  191SAPI  H18X22175   7.209   6.489   4.712  1.0813 -0.2560  0.6049
  191SAPI  H18Y22176   7.265   6.322   4.741  0.3828  0.2182 -0.1234
  191SAPI  H18Z22177   7.108   6.349   4.671 -0.1839  0.2633  1.5350
  192SAPI   C1222178   2.247   0.057   2.134 -0.1012 -0.2959  0.4275
  192SAPI    H222179   2.195  -0.027   2.082  1.8652  0.0261 -2.2540
  192SAPI    O222180   2.298   0.125   2.016 -0.1812 -0.5486 -0.3395
  192SAPI   HO222181   2.222   0.141   1.961  2.4477  0.3361 -4.0851
  192SAPI   C1322182   2.146   0.143   2.211 -0.5242  0.0635 -0.1521
  192SAPI    H322183   2.093   0.072   2.278 -2.2805 -0.7776 -2.3043
  192SAPI    O322184   2.043   0.192   2.123  0.7854  0.1615 -0.0614
  192SAPI   HO322185   1.973   0.220   2.183 -1.6988  1.8418 -3.3834
  192SAPI   C1422186   2.213   0.254   2.284  0.1912 -0.6746  0.1597
  192SAPI    H422187   2.213   0.333   2.206 -0.6688 -0.5857  0.2320
  192SAPI    O422188   2.130   0.303   2.396 -0.5927  0.1973  0.1543
  192SAPI   HO422189   2.112   0.396   2.379  0.3235 -0.0516 -2.5875
  192SAPI   C1522190   2.358   0.223   2.327 -0.2354  0.2340  0.1040
  192SAPI    H522191   2.362   0.217   2.438 -1.6335 -3.0056  0.0765
  192SAPI    O522192   2.432   0.343   2.305 -0.7391  0.3139  0.1049
  192SAPI   HO522193   2.463   0.370   2.392  0.4853 -1.3164  0.2164
  192SAPI   C1622194   2.436   0.100   2.275  0.2374  0.0974  0.0436
  192SAPI    H622195   2.498   0.141   2.193 -0.4605  0.6525 -0.2118
  192SAPI    O622196   2.519   0.048   2.377  0.3674  0.1616 -0.7670
  192SAPI   HO622197   2.603   0.023   2.338  0.1708 -0.2050 -0.9561
  192SAPI   C1122198   2.348  -0.002   2.221  0.0333  0.4043  0.1819
  192SAPI    H122199   2.286  -0.046   2.302  0.2154 -0.0223  0.0971
  192SAPI     P22200   2.365  -0.259   2.129  0.2555  0.3150  0.1101
  192SAPI   O1322201   2.407  -0.305   1.999  0.2720  0.2094 -0.2068
  192SAPI   O1422202   2.216  -0.262   2.155 -0.2508  0.0525  0.1194
  192SAPI   O1222203   2.429  -0.105   2.156 -0.0823 -0.3089  0.1351
  192SAPI   O1122204   2.441  -0.340   2.242  0.2637  0.1934 -0.0974
  192SAPI    C122205   2.430  -0.296   2.385 -0.2283 -0.3208 -0.1653
  192SAPI    HA22206   2.476  -0.197   2.404  0.3128 -0.5756 -0.1545
  192SAPI    HB22207   2.325  -0.270   2.413  0.1078 -0.1574  1.0007
  192SAPI    C222208   2.475  -0.402   2.488  0.1344  0.1945  0.5701
  192SAPI    HS22209   2.420  -0.497   2.472 -1.2777  0.9389  0.8387
  192SAPI   O2122210   2.468  -0.339   2.615 -1.1495  0.0620 -0.3149
  192SAPI   C2122211   2.427  -0.410   2.711 -0.5249  0.6545  0.9971
  192SAPI   O2222212   2.392  -0.525   2.702 -0.0211 -0.0598  0.6970
  192SAPI   C2222213   2.441  -0.334   2.839 -0.0453 -0.2048  0.3692
  192SAPI   H2R22214   2.387  -0.240   2.817 -0.6342 -0.4621  0.6791
  192SAPI   H2S22215   2.388  -0.392   2.919 -0.7557 -0.1390 -0.0529
  192SAPI    C322216   2.629  -0.438   2.452 -0.1698 -0.7053  0.3087
  192SAPI    HX22217   2.678  -0.339   2.453 -0.0931 -0.7093 -1.1451
  192SAPI    HY22218   2.627  -0.481   2.350 -0.9757 -2.1333  0.8766
  192SAPI   O3122219   2.681  -0.527   2.551  0.7617  0.2519 -0.2496
  192SAPI   C3122220   2.673  -0.656   2.522  0.1734 -0.9710 -0.3601
  192SAPI   O3222221   2.638  -0.705   2.419 -0.1471  0.3766  0.2178
  192SAPI   C3222222   2.719  -0.742   2.635  0.3544  0.0828 -0.0619
  192SAPI   H2X22223   2.724  -0.848   2.601 -1.7717  0.1090 -0.6171
  192SAPI   H2Y22224   2.636  -0.736   2.709 -0.2732  1.7585 -0.8634
  192SAPI   C2322225   2.583  -0.312   2.878  0.3640  0.4151  0.1850
  192SAPI   H3R22226   2.581  -0.221   2.942  0.6965  0.1922  0.5182
  192SAPI   H3S22227   2.648  -0.301   2.788 -0.6510 -0.2704 -0.6574
  192SAPI   C2422228   2.624  -0.442   2.954 -0.3442  0.5466 -0.1597
  192SAPI   H4R22229   2.628  -0.525   2.880  2.4818 -0.0585  0.5814
  192SAPI   H4S22230   2.552  -0.468   3.035  1.6844 -1.1549  1.2004
  192SAPI   C2522231   2.762  -0.435   3.001 -0.2861 -0.7196  0.7634
  192SAPI   H5R22232   2.835  -0.381   2.938 -0.6247 -2.0111 -0.7880
  192SAPI   C2622233   2.814  -0.481   3.119  0.0444 -0.1995  0.6049
  192SAPI   H6R22234   2.923  -0.481   3.133 -0.0414 -0.6125  1.3258
  192SAPI   C2722235   2.748  -0.561   3.225  0.1660 -0.2019 -0.2089
  192SAPI   H7R22236   2.746  -0.669   3.203  2.8714  0.0256 -2.0827
  192SAPI   H7S22237   2.640  -0.532   3.224  0.7405  2.1653 -1.2747
  192SAPI   C2822238   2.813  -0.535   3.361  0.4541 -0.1017  0.2798
  192SAPI   H8R22239   2.780  -0.447   3.419 -0.0566  0.7086 -1.1808
  192SAPI   C2922240   2.894  -0.609   3.433  0.3666  0.6989  0.5608
  192SAPI   H9R22241   2.885  -0.599   3.542 -2.5949 -4.0772  1.0720
  192SAPI  C21022242   2.944  -0.741   3.394  0.0224 -0.7904  0.1167
  192SAPI  H10R22243   3.051  -0.737   3.423 -0.3943 -1.6269  1.8835
  192SAPI  H10S22244   2.936  -0.757   3.284 -3.2545  0.3102  0.0757
  192SAPI  C21122245   2.900  -0.869   3.463 -0.7005 -0.5089 -0.3999
  192SAPI  H11R22246   2.877  -0.947   3.388  3.1106 -0.9268 -1.3436
  192SAPI  C21222247   2.888  -0.900   3.592 -0.3522  0.1049 -0.3887
  192SAPI  H12R22248   2.893  -1.007   3.618  1.0173  0.1793 -0.3065
  192SAPI  C21322249   2.912  -0.811   3.717 -0.1025 -0.3057  0.6252
  192SAPI  H13R22250   2.823  -0.750   3.743 -0.9635 -0.7346 -1.1584
  192SAPI  H13S22251   2.982  -0.730   3.689  1.0231 -1.6180 -0.5068
  192SAPI  C21422252   2.961  -0.880   3.844  0.5875  0.5529  0.1336
  192SAPI  H14R22253   2.978  -0.989   3.842  0.3364  0.5020 -1.8545
  192SAPI  C21522254   2.983  -0.814   3.954  0.1269 -0.1437  0.0908
  192SAPI  H15R22255   3.015  -0.881   4.035 -0.8094 -3.2821 -1.9411
  192SAPI  C21622256   2.969  -0.668   3.977  0.0905  0.5711 -0.1848
  192SAPI  H16R22257   2.941  -0.653   4.084 -0.6049 -0.9316 -0.1267
  192SAPI  H16S22258   2.874  -0.629   3.935  1.6448  1.8697 -2.6637
  192SAPI  C21722259   3.098  -0.573   3.954  0.3023  0.1038 -0.5416
  192SAPI  H17R22260   3.128  -0.587   3.848  0.2668 -3.4424 -0.2326
  192SAPI  H17S22261   3.180  -0.620   4.012 -2.0853 -2.0782  1.3154
  192SAPI  C21822262   3.070  -0.424   3.985 -0.3601 -0.4997  0.3115
  192SAPI  H18R22263   3.012  -0.388   3.897 -1.3690 -1.8740  0.3744
  192SAPI  H18S22264   3.170  -0.376   3.974 -0.5608 -0.2074 -0.2626
  192SAPI  C21922265   2.996  -0.382   4.109  0.3121  0.5064  0.4313
  192SAPI  H19R22266   2.899  -0.433   4.124  0.6855 -1.1206 -2.0067
  192SAPI  H19S22267   2.974  -0.273   4.105  2.3709  0.9439 -1.9091
  192SAPI  C22022268   3.085  -0.406   4.233  0.2674  0.4993 -0.6364
  192SAPI  H20R22269   3.042  -0.372   4.330  0.9375  1.5927 -0.7057
  192SAPI  H20S22270   3.181  -0.352   4.222  0.6669  0.1062  0.7020
  192SAPI  H20T22271   3.109  -0.513   4.247 -0.2792  0.3126 -1.0708
  192SAPI   C3322272   2.849  -0.684   2.704  0.0360 -0.1618  0.6846
  192SAPI   H3X22273   2.840  -0.576   2.730 -1.3527 -0.1562  0.2656
  192SAPI   H3Y22274   2.928  -0.707   2.630 -0.0370 -0.1236  0.5949
  192SAPI   C3422275   2.865  -0.766   2.829 -0.5728 -0.2438  0.0814
  192SAPI   H4X22276   2.862  -0.870   2.791 -0.5975  0.6021 -2.3909
  192SAPI   H4Y22277   2.787  -0.750   2.906 -0.1158 -0.5961  0.6304
  192SAPI   C3522278   3.007  -0.743   2.899  0.3895  0.4787  0.3706
  192SAPI   H5X22279   3.012  -0.641   2.943 -1.2911 -0.4967  3.0623
  192SAPI   H5Y22280   3.082  -0.759   2.819  0.7473 -0.8532  0.9500
  192SAPI   C3622281   3.023  -0.846   3.009 -0.1527 -0.1249 -0.0608
  192SAPI   H6X22282   3.016  -0.947   2.964  2.3572 -1.5553  2.4737
  192SAPI   H6Y22283   2.938  -0.839   3.081 -0.9463  0.4246 -1.0241
  192SAPI   C3722284   3.146  -0.833   3.092  0.7678 -0.5529 -0.1296
  192SAPI   H7X22285   3.131  -0.738   3.147 -1.5213  0.1259 -1.7663
  192SAPI   H7Y22286   3.239  -0.820   3.033  0.0958 -0.8171 -1.2850
  192SAPI   C3822287   3.161  -0.944   3.198 -0.7711 -0.3706  0.3282
  192SAPI   H8X22288   3.168  -1.047   3.157 -0.7867  0.4240 -1.8206
  192SAPI   H8Y22289   3.073  -0.942   3.265 -0.7069 -1.2078  0.4449
  192SAPI   C3922290   3.280  -0.923   3.284  0.0672  0.2159  0.5757
  192SAPI   H9X22291   3.271  -0.818   3.321 -1.4190  0.5248 -0.5848
  192SAPI   H9Y22292   3.381  -0.939   3.239  0.7770  2.9154  1.0065
  192SAPI  C31022293   3.277  -1.032   3.400 -0.1736 -0.2151 -0.8252
  192SAPI  H10X22294   3.296  -1.133   3.358  0.4365  0.3117 -1.8561
  192SAPI  H10Y22295   3.178  -1.024   3.450  0.9953  2.6107  1.3183
  192SAPI  C31122296   3.378  -1.019   3.516 -0.2904 -0.1217  0.5393
  192SAPI  H11X22297   3.377  -0.916   3.558 -2.5169 -0.2582  0.9125
  192SAPI  H11Y22298   3.479  -1.032   3.471 -0.8546  2.5266 -1.7825
  192SAPI  C31222299   3.352  -1.126   3.624 -0.3299  0.6308 -0.7994
  192SAPI  H12X22300   3.357  -1.227   3.577  1.3261 -0.8222  2.1955
  192SAPI  H12Y22301   3.248  -1.124   3.663 -0.2019  0.3093 -0.4352
  192SAPI  C31322302   3.455  -1.122   3.742  0.5048 -1.2768 -0.5303
  192SAPI  H13X22303   3.463  -1.014   3.768 -0.7118 -1.1734 -0.5276
  192SAPI  H13Y22304   3.554  -1.161   3.710  1.4129  0.4494  0.0410
  192SAPI  C31422305   3.409  -1.205   3.861 -0.4784  0.1252 -0.1849
  192SAPI  H14X22306   3.492  -1.224   3.931 -0.2882  0.0211 -0.4388
  192SAPI  H14Y22307   3.360  -1.295   3.818  2.1756 -1.3354 -0.3237
  192SAPI  C31522308   3.303  -1.125   3.945 -0.1931 -0.2245  0.1512
  192SAPI  H15X22309   3.227  -1.187   3.997  0.1223  1.8254  3.3117
  192SAPI  H15Y22310   3.244  -1.054   3.882  0.3978  0.2719  0.1505
  192SAPI  C31622311   3.377  -1.048   4.048  0.0760 -0.2314  0.2265
  192SAPI  H16X22312   3.460  -0.994   3.997 -2.1647  2.2517 -1.0533
  192SAPI  H16Y22313   3.418  -1.116   4.126 -0.2512 -0.4793  0.1853
  192SAPI  C31722314   3.292  -0.935   4.109  0.0844  0.3469 -0.1814
  192SAPI  H17X22315   3.205  -0.980   4.161 -0.4933 -1.0997 -2.2917
  192SAPI  H17Y22316   3.243  -0.872   4.031  1.2872  0.6300 -0.7304
  192SAPI  C31822317   3.368  -0.838   4.184  0.0526 -1.0622 -0.3100
  192SAPI  H18X22318   3.296  -0.759   4.215 -0.0817 -1.3992  0.2530
  192SAPI  H18Y22319   3.448  -0.794   4.120  0.9762  0.0835  1.5335
  192SAPI  H18Z22320   3.421  -0.868   4.277  0.8138  0.8864 -0.0607
  193SOD    SOD22321   2.699   6.722   6.893  0.8613 -0.2956 -0.5037
  194SOD    SOD22322   4.583   5.739   8.549  0.3564  0.0505  0.4836
  195SOD    SOD22323   6.638   2.537   8.691  0.3526  0.3637 -0.1459
  196SOD    SOD22324   0.212   4.591   1.306  0.3359 -0.1896 -0.3822
  197SOD    SOD22325   1.743   4.304   2.320  0.2339 -0.0111 -0.5946
  198SOD    SOD22326   4.266   5.782   0.386  0.2664 -0.1064  0.1448
  199SOD    SOD22327   0.849   5.119   7.414 -0.3607 -0.0074  0.7239
  200SOD    SOD22328   4.975   5.721   1.881  0.1244  0.6402  0.3817
  201SOD    SOD22329   4.203   3.397   8.746  0.2962  0.1578  0.0406
  202SOD    SOD22330   3.689   5.290   0.639 -0.0081 -0.3054 -0.1383
  203SOD    SOD22331   5.410   0.471   6.533 -0.2057  0.5122 -0.0868
  204SOD    SOD22332   0.433   4.810   8.966 -0.1523 -0.3660  0.1666
  205SOD    SOD22333   5.569   1.517   7.425  0.2555 -0.4926 -0.3680
  206SOD    SOD22334   2.992   1.668   1.604  0.0082  0.1264 -0.3899
  207SOD    SOD22335   1.705   2.786   1.373  0.1452  0.4153 -0.0723
  208SOD    SOD22336   2.410   5.345   1.592 -0.0236 -0.0317 -0.4824
  209SOD    SOD22337   1.436   2.450   6.537  0.0059  0.3494  0.1094
  210SOD    SOD22338   0.146   4.436   7.149 -0.4417  0.0213  0.5206
  211SOD    SOD22339   1.253   4.826   7.304  0.0598 -0.1258  0.6748
  212SOD    SOD22340   1.727   0.875   2.431 -0.4536  0.4476 -0.1497
  213SOD    SOD22341   5.796   0.931   0.720 -0.3125  0.2679  0.1084
  214SOD    SOD22342   0.074   1.117   1.779  0.2634 -0.1297 -0.4049
  215SOD    SOD22343   6.116   3.569   1.836  0.2400  0.2248 -0.1806
  216SOD    SOD22344   5.323   3.122   7.689  0.0379  0.8873 -0.0015
  217SOD    SOD22345   5.451   6.037   6.567 -0.5046  0.2529  0.0139
  218SOD    SOD22346   4.834   2.193   7.528  0.0848  0.0898 -0.0651
  219SOD    SOD22347   2.588   6.137   8.795  0.2707 -0.5872  0.0299
  220SOD    SOD22348   5.425   0.957   0.234  0.0918 -0.0922 -0.7461
  221SOD    SOD22349   3.973   5.912   7.601  0.6138 -0.2179  0.2348
  222SOD    SOD22350   5.143   3.879   6.951  0.3162 -0.0434  0.3019
  223SOD    SOD22351   4.799   5.485   1.274 -0.1760 -0.0299  0.3191
  224SOD    SOD22352   3.986   4.360   7.057  0.4419 -0.3735  0.0923
  225SOD    SOD22353   4.782   0.773   2.002  0.1118  0.4298  0.3120
  226SOD    SOD22354   1.401   5.574   0.111 -0.1661  0.0349  1.2316
  227SOD    SOD22355   5.569   5.897   1.035 -0.0032  0.5064  0.4656
  228SOD    SOD22356   2.496   0.820   6.567 -0.1189  0.3128  0.0180
  229SOD    SOD22357   0.920   4.997   2.463  0.9236 -0.0141  0.7466
  230CLA    CLA22358   0.898   3.599   1.881  0.0782 -0.2634 -0.0610
  231CLA    CLA22359   1.255   4.305   7.458 -0.2568 -0.1085  0.0222
  232CLA    CLA22360   5.674   4.188   7.834  0.1408 -0.0245  0.4242
  233CLA    CLA22361   3.857   5.784   8.261 -0.2443 -0.4011 -0.1500
  234CLA    CLA22362   0.512   0.027   0.572  0.3553  0.0628 -0.0397
  235CLA    CLA22363   6.335   2.503   8.154 -0.1003  0.1280 -0.0581
  236CLA    CLA22364   6.289   3.473   0.818  0.0452  0.1752  0.0343
  237CLA    CLA22365   1.688   6.720   7.420  0.4536 -0.0019  0.0242
  238CLA    CLA22366   2.497   0.340   6.905  0.0184  0.0965 -0.0120
  239CLA    CLA22367   1.179   2.441   8.851 -0.1501  0.3087  0.1180
  240CLA    CLA22368   3.591   3.877   8.844  0.0488  0.5410 -0.0457
  241CLA    CLA22369   0.269   5.308   8.818  0.0859 -0.2690  0.0353
  242CLA    CLA22370   5.959   6.253   8.023 -0.2312 -0.2012  0.1980
  243CLA    CLA22371   3.627   3.162   7.926  0.0836  0.4084 -0.4522
  244CLA    CLA22372   1.604   3.204   1.594  0.2718 -0.1994  0.0703
  245CLA    CLA22373   5.306   5.248   1.614 -0.0292  0.0414 -0.1177
  246CLA    CLA22374   1.019   4.867   8.770  0.2763  0.0350 -0.0188
  247TIP3   OH222375   1.278   4.146   7.722 -0.2740 -0.0496  0.1045
  247TIP3    H122376   1.255   4.186   7.638  0.1745 -0.8028 -0.3834
  247TIP3    H222377   1.217   4.073   7.732  1.7937 -2.0934 -1.2227
  248TIP3   OH222378   1.309   3.273   7.003 -0.4120 -0.0946  0.2481
  248TIP3    H122379   1.376   3.297   7.067  1.4429 -0.4538 -1.4462
  248TIP3    H222380   1.344   3.303   6.919 -1.7123 -1.5681 -0.8892
  249TIP3   OH222381   1.966   3.726   8.394 -0.0403  0.1549  0.5841
  249TIP3    H122382   1.921   3.750   8.313 -0.3180  0.0604  0.7095
  249TIP3    H222383   1.985   3.633   8.384  0.3314  0.2452  0.4352
  250TIP3   OH222384   2.000   5.415   1.712  0.2718  0.1982 -0.4368
  250TIP3    H122385   2.017   5.352   1.783 -1.8931  0.8211  0.7329
  250TIP3    H222386   2.084   5.457   1.697  1.2993 -1.5095  0.1967
  251TIP3   OH222387   3.220   1.048   0.142  0.3892 -0.6231 -0.2685
  251TIP3    H122388   3.265   1.128   0.114 -0.7249  0.6874  1.4598
  251TIP3    H222389   3.148   1.038   0.080  0.4685 -0.2161 -0.4265
  252TIP3   OH222390   2.659   4.490   8.472 -0.1442 -0.6609  0.5757
  252TIP3    H122391   2.579   4.456   8.512 -1.1963 -0.2744 -1.0971
  252TIP3    H222392   2.730   4.449   8.522 -1.3632 -1.1064  2.0291
  253TIP3   OH222393   6.538   3.115   6.277 -0.4846  0.3817 -0.2781
  253TIP3    H122394   6.535   3.038   6.334  0.0840  0.6849  0.1727
  253TIP3    H222395   6.618   3.161   6.303  0.0121  0.3032 -1.6190
  254TIP3   OH222396   4.642   0.124   0.322 -0.2246 -0.2586 -0.0758
  254TIP3    H122397   4.583   0.079   0.383  0.6100  0.3901  1.2524
  254TIP3    H222398   4.671   0.202   0.370  0.8850 -0.0139 -1.1034
  255TIP3   OH222399   4.843   5.033   7.858 -0.8512 -0.1978 -0.0390
  255TIP3    H122400   4.857   4.964   7.794  0.2741 -1.1651  1.2061
  255TIP3    H222401   4.757   5.015   7.895 -0.6941 -0.7363  0.0586
  256TIP3   OH222402   3.365   0.969   8.406 -0.3720  0.1105  0.3424
  256TIP3    H122403   3.298   1.030   8.374 -1.9623 -1.1352  1.1789
  256TIP3    H222404   3.447   1.016   8.394 -1.5438  2.5218  1.1964
  257TIP3   OH222405   3.846   6.304   8.111 -0.7639 -0.6370 -0.0378
  257TIP3    H122406   3.865   6.323   8.203 -1.6088  0.3142 -0.0509
  257TIP3    H222407   3.809   6.216   8.112 -1.9547 -0.1512  0.6960
  258TIP3   OH222408   5.594   1.315   7.276  0.1524 -0.0109 -0.4643
  258TIP3    H122409   5.632   1.349   7.195  1.1277  0.3374  0.1235
  258TIP3    H222410   5.627   1.225   7.282 -1.2270 -0.5992 -1.2591
  259TIP3   OH222411   6.101   6.027   7.665  0.6277  0.3895  0.7151
  259TIP3    H122412   6.107   6.103   7.723  2.9560  1.3222 -0.5958
  259TIP3    H222413   6.139   5.955   7.716  0.3070  0.5951  1.2464
  260TIP3   OH222414   6.538   6.546   0.834  0.2034  0.4694  0.1828
  260TIP3    H122415   6.460   6.549   0.778 -0.4959  0.2868  1.1274
  260TIP3    H222416   6.525   6.469   0.889  1.5661 -0.1783 -0.3746
  261TIP3   OH222417   4.473   0.871   8.145  0.2337 -0.0083  0.4862
  261TIP3    H122418   4.494   0.931   8.074 -1.8393  1.0510  0.6887
  261TIP3    H222419   4.450   0.789   8.101  0.7598  0.0702  0.0580
  262TIP3   OH222420   5.322   4.525   1.431  0.5329 -0.0098 -0.9409
  262TIP3    H122421   5.365   4.440   1.443 -0.6850 -0.2935  2.3160
  262TIP3    H222422   5.277   4.517   1.347  1.1326 -2.2702 -1.1211
  263TIP3   OH222423   4.615   1.763   1.930 -0.3423 -0.2982 -0.1755
  263TIP3    H122424   4.613   1.859   1.927  0.4979 -0.2931 -2.6979
  263TIP3    H222425   4.686   1.743   1.991  0.8435  0.7536 -1.1434
  264TIP3   OH222426   4.384   3.254   8.672  0.4356 -0.0603  0.3026
  264TIP3    H122427   4.437   3.285   8.598 -1.7356  0.7968 -1.0107
  264TIP3    H222428   4.435   3.183   8.711  2.0808  0.0830 -1.4426
  265TIP3   OH222429   0.108   0.989   7.714  0.1618 -0.6424  0.3238
  265TIP3    H122430   0.198   0.976   7.684  0.6059  0.0605  1.2962
  265TIP3    H222431   0.114   0.986   7.810  0.0473  4.2271  0.7407
  266TIP3   OH222432   0.304   0.913   0.078 -0.1581 -0.4156 -0.2303
  266TIP3    H122433   0.384   0.874   0.113 -0.3360 -0.9426 -0.4125
  266TIP3    H222434   0.280   0.980   0.143  0.2379 -0.4909 -0.0030
  267TIP3   OH222435   4.739   5.241   7.473 -0.5098  0.6187 -0.1769
  267TIP3    H122436   4.675   5.209   7.537  0.1282 -2.0630 -0.7441
  267TIP3    H222437   4.824   5.230   7.517 -0.2227  0.8726 -0.6578
  268TIP3   OH222438   3.965   5.140   2.428  0.5179 -0.0446  0.5176
  268TIP3    H122439   3.879   5.166   2.461  0.7003  0.8073  0.3304
  268TIP3    H222440   3.966   5.168   2.337  1.0334  0.0453  0.5469
  269TIP3   OH222441   1.688   3.631   8.511 -0.4864  0.0560 -0.1178
  269TIP3    H122442   1.773   3.674   8.524 -1.2217  0.9345  2.6061
  269TIP3    H222443   1.700   3.577   8.433  3.0448 -0.9927  0.9455
  270TIP3   OH222444   0.809   5.713   2.254 -0.3074  0.6601  0.0559
  270TIP3    H122445   0.806   5.801   2.216 -0.5106  0.2313 -0.9546
  270TIP3    H222446   0.778   5.724   2.343 -1.3611  1.4439 -0.3938
  271TIP3   OH222447   4.396   2.306   8.361  0.1841 -0.4300  0.0369
  271TIP3    H122448   4.340   2.235   8.393  1.9241 -1.2154  1.4685
  271TIP3    H222449   4.335   2.368   8.320 -1.6296 -1.6161  0.8336
  272TIP3   OH222450   6.312   0.045   0.140  0.2916 -0.5954  0.7369
  272TIP3    H122451   6.331  -0.047   0.120  0.1209 -0.3541 -0.6750
  272TIP3    H222452   6.389   0.092   0.108 -0.6317 -0.0431 -0.7838
  273TIP3   OH222453   2.292   5.544   1.420 -0.0764  0.4382  0.4694
  273TIP3    H122454   2.241   5.596   1.483  0.5219  0.7012  0.7433
  273TIP3    H222455   2.383   5.568   1.437  0.3621 -1.6843  1.5245
  274TIP3   OH222456   6.777   6.140   8.913 -0.0056 -0.2289  0.0728
  274TIP3    H122457   6.849   6.186   8.956 -0.8237 -0.4027  1.6908
  274TIP3    H222458   6.809   6.051   8.901  0.0937 -0.2876  0.7303
  275TIP3   OH222459   2.492   6.231   7.150 -0.1220  0.1344 -0.1673
  275TIP3    H122460   2.483   6.211   7.243  0.9607  0.8201  0.0992
  275TIP3    H222461   2.481   6.326   7.144  0.5345  0.1921 -0.6285
  276TIP3   OH222462   6.609   1.669   2.280 -1.2148  0.5526 -0.0663
  276TIP3    H122463   6.555   1.747   2.265  0.2630  1.5357 -0.5339
  276TIP3    H222464   6.552   1.609   2.329 -2.3437  1.9817  0.4430
  277TIP3   OH222465   6.150   2.860   2.483  0.0623 -0.0932 -0.5266
  277TIP3    H122466   6.167   2.885   2.574 -0.1819  1.4283 -0.8671
  277TIP3    H222467   6.148   2.943   2.436 -0.5576 -0.8084 -1.8038
  278TIP3   OH222468   2.855   0.581   2.087  0.2997 -0.0691 -0.3119
  278TIP3    H122469   2.877   0.499   2.043  0.7126  0.2440 -0.6869
  278TIP3    H222470   2.915   0.646   2.051 -0.0896  0.4268 -0.0907
  279TIP3   OH222471   0.100   0.662   2.045 -0.3021 -0.3060  0.2502
  279TIP3    H122472   0.157   0.647   1.970 -0.3548  2.5256 -0.4418
  279TIP3    H222473   0.149   0.629   2.120  0.5343 -1.4675 -0.7598
  280TIP3   OH222474   3.338   3.218   7.499  0.1029 -0.1818 -0.2456
  280TIP3    H122475   3.363   3.127   7.517  1.1014  0.0337 -0.4555
  280TIP3    H222476   3.254   3.211   7.454  0.0350 -0.9878 -0.0172
  281TIP3   OH222477   1.581   0.222   8.713 -0.1873 -0.0073 -0.1846
  281TIP3    H122478   1.572   0.189   8.802 -0.9389  0.8191  0.0671
  281TIP3    H222479   1.673   0.244   8.704 -0.0668 -0.3133  0.3127
  282TIP3   OH222480   0.356   1.371   0.809 -0.5982  0.4913  0.3385
  282TIP3    H122481   0.263   1.387   0.798 -0.5867  0.1957 -0.2364
  282TIP3    H222482   0.372   1.385   0.902 -0.8603  2.3865  0.1471
  283TIP3   OH222483   2.811   1.796   7.292 -0.4724  0.3597  0.0398
  283TIP3    H122484   2.757   1.875   7.283 -1.8201 -0.4166  0.8737
  283TIP3    H222485   2.789   1.743   7.215  2.9381  2.0990 -2.4014
  284TIP3   OH222486   4.699   4.318   1.168  0.0646 -0.1993 -0.1581
  284TIP3    H122487   4.794   4.326   1.161  0.0005  0.5483 -0.2918
  284TIP3    H222488   4.665   4.394   1.120 -0.6714 -2.1005 -2.8521
  285TIP3   OH222489   3.272   4.520   6.829  0.6604 -0.2637  0.7279
  285TIP3    H122490   3.278   4.444   6.773 -0.2379 -0.6983  1.2092
  285TIP3    H222491   3.359   4.561   6.823  0.9480 -0.9640 -0.0190
  286TIP3   OH222492   3.034   2.813   6.659 -0.3584  0.4671 -0.2267
  286TIP3    H122493   3.022   2.871   6.734  1.1525 -1.0630  1.3116
  286TIP3    H222494   3.116   2.842   6.619 -0.3756  0.3293 -0.3647
  287TIP3   OH222495   0.021   3.130   0.162 -0.2599  0.0526  0.3215
  287TIP3    H122496   0.101   3.077   0.164  0.0416  0.3867 -1.2961
  287TIP3    H222497   0.052   3.219   0.144 -1.0092  0.1275 -0.6640
  288TIP3   OH222498   4.791   5.250   1.259 -0.3573  0.5400  0.2598
  288TIP3    H122499   4.791   5.164   1.303  1.9643  0.4663  0.2435
  288TIP3    H222500   4.781   5.229   1.166 -3.2748  0.5753  0.4685
  289TIP3   OH222501   0.981   2.606   0.464 -0.5377 -0.1155  0.3180
  289TIP3    H122502   1.022   2.682   0.424  0.2950 -0.6378  0.1656
  289TIP3    H222503   0.929   2.567   0.393  0.1641 -0.4870 -0.0022
  290TIP3   OH222504   6.625   1.244   7.210 -0.0889 -0.4411 -0.3330
  290TIP3    H122505   6.569   1.280   7.142 -0.3128  2.2368  1.1547
  290TIP3    H222506   6.680   1.317   7.238  0.5601 -1.6366  1.7919
  291TIP3   OH222507   0.441   5.421   8.318 -0.3062 -0.3274  0.6582
  291TIP3    H122508   0.407   5.458   8.236  1.0724 -1.7195 -0.6201
  291TIP3    H222509   0.370   5.432   8.381 -1.9090 -0.3474 -1.0697
  292TIP3   OH222510   5.264   4.403   1.029 -0.1823 -0.1419  0.2721
  292TIP3    H122511   5.235   4.485   1.071 -1.4000 -1.5766  2.4170
  292TIP3    H222512   5.198   4.387   0.962 -0.5158  0.1489  0.5218
  293TIP3   OH222513   3.921   5.247   0.004 -0.3381  0.5637 -0.2542
  293TIP3    H122514   3.866   5.198   0.066  1.2071 -0.9621 -0.0049
  293TIP3    H222515   3.952   5.180  -0.058  0.4014  1.5753 -1.0076
  294TIP3   OH222516   5.679   1.725   7.076  0.0473  0.2811 -0.0729
  294TIP3    H122517   5.667   1.755   6.986  1.1243 -1.6614 -0.9080
  294TIP3    H222518   5.616   1.777   7.127  1.0838  3.1940 -1.5152
  295TIP3   OH222519   5.131   2.760   7.428 -0.5719  0.0426  0.5065
  295TIP3    H122520   5.092   2.761   7.516  0.0526 -1.5988  0.8363
  295TIP3    H222521   5.219   2.725   7.441 -0.8705 -1.3338 -0.9130
  296TIP3   OH222522   2.760   4.084   8.413 -0.4336  0.2455 -0.0393
  296TIP3    H122523   2.734   4.122   8.497 -1.3610  1.4646 -0.8413
  296TIP3    H222524   2.791   3.996   8.435 -0.3524  0.6561  1.6089
  297TIP3   OH222525   1.910   2.147   7.944  0.3401  0.4724  0.0386
  297TIP3    H122526   1.999   2.182   7.943  0.7018 -0.4273 -0.2135
  297TIP3    H222527   1.860   2.208   7.998  1.1164  0.9761  0.1917
  298TIP3   OH222528   4.187   0.512   8.759 -0.8363 -0.1196  0.3342
  298TIP3    H122529   4.138   0.438   8.722 -1.3533 -0.2487  1.2410
  298TIP3    H222530   4.122   0.581   8.769 -0.3373  0.4867 -0.5635
  299TIP3   OH222531   2.988   0.797   1.182  0.0107  0.0603  0.1073
  299TIP3    H122532   2.921   0.832   1.240  1.1565  1.1991  0.7971
  299TIP3    H222533   3.034   0.731   1.235 -0.8089 -1.0537 -0.5115
  300TIP3   OH222534   5.048   6.304   0.170 -0.2748 -0.2549 -0.2663
  300TIP3    H122535   5.045   6.350   0.086  0.3060  0.0310 -0.1382
  300TIP3    H222536   5.105   6.359   0.225  1.3333 -1.6702 -0.4401
  301TIP3   OH222537   6.056   2.707   8.539 -0.1832  0.2998  0.2337
  301TIP3    H122538   6.152   2.704   8.533 -0.1375 -0.6207  1.2145
  301TIP3    H222539   6.034   2.795   8.509  1.1432  1.3087  1.9552
  302TIP3   OH222540   3.153   1.810   1.113  0.2484  0.1977  0.3867
  302TIP3    H122541   3.106   1.818   1.030  0.6542  0.2465  0.1628
  302TIP3    H222542   3.099   1.859   1.175  0.1348  0.4713  0.0742
  303TIP3   OH222543   5.376   4.221   8.797 -0.5550  0.7142  0.2807
  303TIP3    H122544   5.381   4.189   8.888 -0.3387  0.4545  0.1787
  303TIP3    H222545   5.413   4.150   8.745 -0.7176  0.8487 -0.0161
  304TIP3   OH222546   0.239   3.328   0.278  0.0810 -0.0416 -0.2354
  304TIP3    H122547   0.243   3.405   0.221  0.7753  0.1433  0.0569
  304TIP3    H222548   0.288   3.261   0.231  2.0883  0.5873  0.8450
  305TIP3   OH222549   4.951   1.859   6.738  0.4245 -0.2875 -0.1103
  305TIP3    H122550   4.905   1.886   6.817  0.9108 -0.6649  0.3048
  305TIP3    H222551   4.921   1.770   6.721  0.7577 -0.4230 -0.0122
  306TIP3   OH222552   5.080   2.423   8.381  0.4586  0.2878  0.2139
  306TIP3    H122553   4.986   2.418   8.398  0.5189  0.4672  0.6142
  306TIP3    H222554   5.120   2.413   8.468  0.8151 -0.0364  0.0142
  307TIP3   OH222555   3.331   0.215   1.197  0.3782  0.0619  0.4445
  307TIP3    H122556   3.332   0.245   1.288  1.1236  0.3565  0.3466
  307TIP3    H222557   3.359   0.124   1.202 -0.0428 -0.0657  0.5518
  308TIP3   OH222558   5.604   4.132   2.108  0.0883 -0.1921  0.2429
  308TIP3    H122559   5.514   4.162   2.122 -0.0825 -1.2345  1.6710
  308TIP3    H222560   5.632   4.175   2.027 -1.6256  0.3022 -0.1252
  309TIP3   OH222561   2.607   1.653   1.566  0.4586  0.2744 -0.4476
  309TIP3    H122562   2.648   1.575   1.605  0.6005  1.5190  2.0651
  309TIP3    H222563   2.608   1.635   1.472  3.2382 -1.4551 -0.2131
  310TIP3   OH222564   4.527   2.505   8.790  0.3649 -0.1365  0.2864
  310TIP3    H122565   4.537   2.540   8.879 -0.6026 -0.5052  0.5503
  310TIP3    H222566   4.441   2.465   8.790  1.1215 -1.8202 -0.2595
  311TIP3   OH222567   1.573   1.173   0.183 -0.5143  0.4262 -0.1419
  311TIP3    H122568   1.493   1.121   0.174 -0.0799 -0.1946 -0.4740
  311TIP3    H222569   1.571   1.232   0.108  0.0726 -0.6129 -1.0058
  312TIP3   OH222570   3.832   1.758   1.670  0.1118 -0.3512 -0.1956
  312TIP3    H122571   3.918   1.735   1.635  0.7953 -1.1543  1.8735
  312TIP3    H222572   3.770   1.722   1.606  1.2074  2.3535 -3.0402
  313TIP3   OH222573   1.121   0.680   1.021 -0.2260  0.2804  0.0673
  313TIP3    H122574   1.075   0.622   0.961 -0.6247  0.4619  0.1963
  313TIP3    H222575   1.075   0.670   1.105 -0.3946  0.8948  0.0524
  314TIP3   OH222576   3.304   0.170   8.595 -0.1946 -0.6139  0.1996
  314TIP3    H122577   3.235   0.221   8.553  2.0669  0.2970 -2.7268
  314TIP3    H222578   3.335   0.226   8.666 -1.0710 -0.1677  0.2482
  315TIP3   OH222579   3.167   4.373   2.209  0.0375  0.2046 -0.3390
  315TIP3    H122580   3.079   4.399   2.183 -0.9192 -0.6359  1.7891
  315TIP3    H222581   3.171   4.279   2.191  1.8088  0.7763 -3.6295
  316TIP3   OH222582   6.345   4.664   0.646 -0.0591  0.1102 -0.2284
  316TIP3    H122583   6.332   4.666   0.551  0.7962  2.1377 -0.3733
  316TIP3    H222584   6.291   4.737   0.679 -0.7980 -0.9192  0.9395
  317TIP3   OH222585   1.872   6.532   0.391  0.1882 -0.1496 -0.4863
  317TIP3    H122586   1.816   6.456   0.380 -0.8692  0.2240  1.6967
  317TIP3    H222587   1.880   6.542   0.486  0.0526  2.5780 -0.6788
  318TIP3   OH222588   5.891   3.429   7.703 -0.1892 -0.3708  0.5536
  318TIP3    H122589   5.845   3.355   7.663  1.8477 -1.1145 -0.5393
  318TIP3    H222590   5.821   3.482   7.742 -2.0355 -1.0515 -1.6209
  319TIP3   OH222591   2.037   5.914   0.948 -0.3200  0.2204 -0.3964
  319TIP3    H122592   2.016   5.825   0.976  0.4644  0.3748  0.7895
  319TIP3    H222593   2.129   5.926   0.973  0.0070  0.8916 -1.8101
  320TIP3   OH222594   5.860   0.007   1.917 -0.1454  0.0525  0.3644
  320TIP3    H122595   5.883   0.098   1.932  0.3908  0.0701 -0.4947
  320TIP3    H222596   5.806  -0.017   1.992  0.6473  0.7376  1.1767
  321TIP3   OH222597   0.997   6.330   0.534 -0.9560 -0.1634 -0.0033
  321TIP3    H122598   1.055   6.274   0.585  0.3562  0.3372 -0.8931
  321TIP3    H222599   0.982   6.406   0.589 -1.7809 -0.8394  0.7273
  322TIP3   OH222600   2.671   6.766   8.729 -0.4821  0.7705 -0.5546
  322TIP3    H122601   2.679   6.815   8.811  0.5860 -0.9823  0.4422
  322TIP3    H222602   2.640   6.831   8.665 -0.6455  2.3419  1.0521
  323TIP3   OH222603   3.093   3.284   7.365  0.5471  0.2155  0.4317
  323TIP3    H122604   3.149   3.313   7.293  0.9475 -0.2549  0.5443
  323TIP3    H222605   3.006   3.316   7.343  1.1764  2.7782  1.2379
  324TIP3   OH222606   0.430   1.022   1.476 -0.0706 -0.0983  0.1537
  324TIP3    H122607   0.486   1.032   1.399 -0.4818 -1.4371 -0.3439
  324TIP3    H222608   0.417   1.111   1.508  1.1592  0.3596 -0.5652
  325TIP3   OH222609   2.826   0.378   7.754 -0.2169  0.2296  0.1443
  325TIP3    H122610   2.834   0.466   7.717 -1.2610 -0.3424 -1.5593
  325TIP3    H222611   2.916   0.351   7.770  0.4921  0.0254 -3.3435
  326TIP3   OH222612   6.271   2.305   1.492  0.1097  0.3554  0.2229
  326TIP3    H122613   6.247   2.398   1.487 -0.2779  0.2544  0.1529
  326TIP3    H222614   6.211   2.268   1.557  1.2182  0.4389  1.3196
  327TIP3   OH222615   0.754   3.543   1.201 -0.0732 -0.2557  0.4530
  327TIP3    H122616   0.776   3.450   1.193 -1.8063 -0.5915 -0.9567
  327TIP3    H222617   0.659   3.544   1.212 -0.1667  1.3748 -0.2497
  328TIP3   OH222618   2.886   6.592   6.819  0.2282  0.2360 -0.1416
  328TIP3    H122619   2.969   6.587   6.867  0.4378 -2.0703 -0.6086
  328TIP3    H222620   2.871   6.502   6.789 -2.4819  0.5804 -0.0246
  329TIP3   OH222621   5.560   5.047   0.467 -0.1165 -0.0368  0.1576
  329TIP3    H122622   5.573   4.952   0.467  0.5386  0.0254 -1.8377
  329TIP3    H222623   5.556   5.071   0.375  1.7795  2.1601  0.5751
  330TIP3   OH222624   6.105   1.600   1.061 -0.0266 -0.3329 -0.2200
  330TIP3    H122625   6.072   1.585   1.150  2.1018  1.7751  1.0545
  330TIP3    H222626   6.116   1.512   1.025 -0.2154 -1.2969  1.8985
  331TIP3   OH222627   4.171   4.224   0.604  0.4128  0.9188 -0.1654
  331TIP3    H122628   4.122   4.188   0.678  0.7908  1.1121  0.1837
  331TIP3    H222629   4.162   4.319   0.614 -1.0592  0.9467 -1.4021
  332TIP3   OH222630   3.835   6.606   0.023  0.7780 -0.1997 -0.2242
  332TIP3    H122631   3.898   6.677   0.037  0.4651  0.1102 -0.3861
  332TIP3    H222632   3.760   6.648  -0.018  0.0947 -0.4054  0.7663
  333TIP3   OH222633   5.830   6.459   7.789 -0.4093 -0.4544  0.4466
  333TIP3    H122634   5.865   6.402   7.856  0.8598 -0.7156 -0.4067
  333TIP3    H222635   5.791   6.400   7.724  1.2756 -0.4242 -0.6464
  334TIP3   OH222636   1.985   2.844   2.155 -0.6608 -0.0228  0.3490
  334TIP3    H122637   2.024   2.864   2.071  1.0676  1.7699  1.4926
  334TIP3    H222638   2.006   2.752   2.170 -0.7947 -0.3002 -1.0406
  335TIP3   OH222639   5.764   1.414   8.937 -0.4585  0.1312  0.0490
  335TIP3    H122640   5.703   1.357   8.889  0.9842  0.0531 -1.8030
  335TIP3    H222641   5.762   1.497   8.889 -0.1204  0.5814  0.7958
  336TIP3   OH222642   4.160   2.917   8.373 -0.4312 -0.3388 -0.2640
  336TIP3    H122643   4.140   3.011   8.372  1.9826  0.4043  2.9566
  336TIP3    H222644   4.080   2.876   8.405 -1.7132  0.4428 -2.2406
  337TIP3   OH222645   5.189   6.413   7.810  0.4768 -0.2376 -0.6784
  337TIP3    H122646   5.268   6.413   7.755  0.5638 -3.3554 -0.7388
  337TIP3    H222647   5.134   6.482   7.774  2.6515  1.2383 -1.3818
  338TIP3   OH222648   5.505   0.323   6.696  0.1477 -0.0634  0.1015
  338TIP3    H122649   5.451   0.247   6.719  1.0145 -1.0300 -0.9260
  338TIP3    H222650   5.595   0.294   6.711  0.5451  0.3985 -1.2121
  339TIP3   OH222651   5.827   5.244   2.813  0.4419 -0.4215 -0.0042
  339TIP3    H122652   5.814   5.156   2.846  1.0032  0.3924  2.5777
  339TIP3    H222653   5.910   5.273   2.851  0.3445  1.1768 -0.8905
  340TIP3   OH222654   3.438   3.901   0.870 -0.2747 -0.1810  0.2692
  340TIP3    H122655   3.492   3.935   0.942  2.0267 -0.9110 -1.0248
  340TIP3    H222656   3.446   3.967   0.801 -1.2419 -0.1985  0.1342
  341TIP3   OH222657   1.042   2.869   1.290  0.4135  0.0415 -0.3085
  341TIP3    H122658   1.038   2.803   1.359 -0.3786  0.4467  0.0509
  341TIP3    H222659   1.134   2.894   1.285  0.8344 -1.5531 -0.9079
  342TIP3   OH222660   1.776   2.738   1.008 -0.2939  0.4948  0.4738
  342TIP3    H122661   1.715   2.683   1.057  0.9004 -0.2615  1.1852
  342TIP3    H222662   1.831   2.779   1.075  0.5176  0.4945 -0.1688
  343TIP3   OH222663   5.565   4.177   1.055  0.1902 -0.7486 -0.7739
  343TIP3    H122664   5.564   4.272   1.059  0.3809 -0.7659  1.9918
  343TIP3    H222665   5.474   4.151   1.067  0.5122 -0.8095  2.9520
  344TIP3   OH222666   1.879   5.426   6.496  0.5872  0.5473  0.3517
  344TIP3    H122667   1.947   5.374   6.540  0.1822 -0.3777 -0.0863
  344TIP3    H222668   1.801   5.414   6.550 -0.3596 -1.9430 -1.4056
  345TIP3   OH222669   2.770   5.955   1.412 -0.0777 -0.1922  0.3980
  345TIP3    H122670   2.708   6.028   1.404 -0.1310 -0.1808  0.8855
  345TIP3    H222671   2.786   5.948   1.506  0.6023 -0.2512  0.2772
  346TIP3   OH222672   1.580   0.564   2.164 -0.1015  0.0288 -0.6802
  346TIP3    H122673   1.617   0.642   2.124 -0.4093 -0.2148 -1.4709
  346TIP3    H222674   1.651   0.528   2.218 -0.0788  1.0461 -0.0069
  347TIP3   OH222675   4.975   3.846   6.776  0.4849  0.0193 -0.5209
  347TIP3    H122676   4.895   3.855   6.829  0.1736  0.2094 -1.0154
  347TIP3    H222677   4.956   3.775   6.716  0.1072  1.0289 -1.6414
  348TIP3   OH222678   1.562   5.666   1.913 -0.0467 -0.4151  0.6120
  348TIP3    H122679   1.634   5.607   1.936  0.5494 -0.5111 -1.3324
  348TIP3    H222680   1.581   5.746   1.962  0.7069 -0.8644  1.0743
  349TIP3   OH222681   6.477   0.114   7.292  0.3335  0.1855 -0.0013
  349TIP3    H122682   6.478   0.191   7.234 -0.1630 -0.2621 -0.6232
  349TIP3    H222683   6.521   0.143   7.371  0.1376  1.1227 -0.2211
  350TIP3   OH222684   0.253   3.193   0.855  0.1072  0.5974  0.8001
  350TIP3    H122685   0.183   3.138   0.820  0.9861 -0.3337  0.4574
  350TIP3    H222686   0.268   3.161   0.943  0.8027  0.0875  0.5083
  351TIP3   OH222687   0.526   3.250   8.776 -0.4126  0.0993  0.5942
  351TIP3    H122688   0.603   3.196   8.757 -0.6337 -0.1296  0.3524
  351TIP3    H222689   0.455   3.188   8.789 -0.8641  0.3518 -0.5473
  352TIP3   OH222690   2.881   2.456   1.785  0.3341  0.2129  0.8212
  352TIP3    H122691   2.937   2.391   1.743 -0.3430  0.6981 -0.8957
  352TIP3    H222692   2.792   2.425   1.770 -0.0362  1.8106 -0.5720
  353TIP3   OH222693   2.806   0.978   8.573 -0.1286  0.7539 -0.2948
  353TIP3    H122694   2.791   0.885   8.556 -2.8974  1.3582 -1.5783
  353TIP3    H222695   2.720   1.013   8.594  0.7681  3.1504 -0.3506
  354TIP3   OH222696   5.377   3.316   8.645  0.0396  0.4601 -0.3279
  354TIP3    H122697   5.403   3.404   8.673 -1.5676  1.2889 -1.2998
  354TIP3    H222698   5.384   3.318   8.550 -0.6200 -0.2453 -0.4003
  355TIP3   OH222699   4.861   4.685   7.979  0.5023 -0.1183  0.1333
  355TIP3    H122700   4.870   4.619   8.048  3.5059 -0.3205 -0.3047
  355TIP3    H222701   4.897   4.643   7.901  1.4824  1.6233 -0.4020
  356TIP3   OH222702   2.966   2.155   1.042 -0.3282  0.1779  0.1129
  356TIP3    H122703   3.042   2.119   0.997  0.3689  0.2458  1.1884
  356TIP3    H222704   3.000   2.230   1.090 -1.4009  1.1559 -0.6263
  357TIP3   OH222705   5.674   1.142   6.997  0.1057  0.8062  0.0142
  357TIP3    H122706   5.696   1.232   6.973  1.4833 -0.2036 -2.9560
  357TIP3    H222707   5.580   1.135   6.978  0.3205  1.2047 -1.2751
  358TIP3   OH222708   1.644   3.661   8.978  0.1444 -0.4879 -0.0189
  358TIP3    H122709   1.699   3.714   8.920  1.4007 -1.4537  0.2455
  358TIP3    H222710   1.561   3.708   8.982  1.8102  2.6098  1.8290
  359TIP3   OH222711   4.477   5.554   7.278  0.4860  0.0200 -0.6256
  359TIP3    H122712   4.423   5.631   7.260  0.4177 -0.0266 -0.6214
  359TIP3    H222713   4.566   5.583   7.263  0.4618  0.1082 -0.5969
  360TIP3   OH222714   1.837   3.858   7.254  0.5943  0.3277 -0.2569
  360TIP3    H122715   1.885   3.922   7.307  0.3827 -1.7761  2.6994
  360TIP3    H222716   1.821   3.903   7.171  2.3807  3.2550  0.8388
  361TIP3   OH222717   0.063   0.032   1.940 -0.0044 -0.8880  0.4913
  361TIP3    H122718   0.142  -0.020   1.952  0.9031  0.2400 -0.2605
  361TIP3    H222719  -0.003  -0.010   1.994  1.4582 -1.1179  2.1771
  362TIP3   OH222720   2.487   1.432   1.783 -0.5335  0.1784 -0.0109
  362TIP3    H122721   2.500   1.380   1.703  0.6124 -0.7586  0.7502
  362TIP3    H222722   2.428   1.378   1.836  1.6224 -1.0041  1.3018
  363TIP3   OH222723   2.264   5.595   7.397  0.0116 -0.7398 -0.0455
  363TIP3    H122724   2.209   5.644   7.335 -0.7296  0.4067  1.4591
  363TIP3    H222725   2.207   5.526   7.430  0.1673 -0.8824 -0.0718
  364TIP3   OH222726   2.267   6.064   0.585 -0.0795  0.3350  0.5195
  364TIP3    H122727   2.287   6.000   0.517  1.6118  0.7097  0.6291
  364TIP3    H222728   2.241   6.143   0.538  1.9335  0.8718  0.2372
  365TIP3   OH222729   6.601   3.297   8.311 -0.5750  0.4027 -0.7484
  365TIP3    H122730   6.689   3.268   8.287 -0.0698  1.3954 -0.1352
  365TIP3    H222731   6.596   3.284   8.405 -1.5353 -0.7950 -0.9392
  366TIP3   OH222732   2.958   4.564   6.601 -0.4564 -0.2412  0.0713
  366TIP3    H122733   2.891   4.557   6.533 -0.5123 -2.7797  0.2811
  366TIP3    H222734   3.026   4.502   6.574  2.4335  2.9992 -0.6948
  367TIP3   OH222735   6.326   2.338   7.713 -0.2638 -0.6707  0.2164
  367TIP3    H122736   6.326   2.430   7.739  0.3317 -0.8084  0.7263
  367TIP3    H222737   6.237   2.322   7.683 -0.6088 -0.1460  0.9185
  368TIP3   OH222738   3.002   1.163   6.970 -0.7415  0.1414 -0.1243
  368TIP3    H122739   3.029   1.255   6.974  2.7665 -0.7902  1.1136
  368TIP3    H222740   2.996   1.144   6.876  1.6675  0.8895 -0.4827
  369TIP3   OH222741   3.705   6.548   7.252 -0.2377 -0.3500  0.1288
  369TIP3    H122742   3.753   6.546   7.334  2.3785 -1.2408 -1.3084
  369TIP3    H222743   3.749   6.615   7.200 -1.6833  0.0353 -0.6473
  370TIP3   OH222744   3.558   4.377   8.330 -0.2746  0.2032 -0.0799
  370TIP3    H122745   3.544   4.400   8.422 -0.8202  2.7845 -0.7330
  370TIP3    H222746   3.653   4.365   8.323 -0.3809 -1.9393  1.1402
  371TIP3   OH222747   3.284   5.116   1.850 -0.3116 -0.0395 -0.4068
  371TIP3    H122748   3.190   5.125   1.864 -0.2166  1.7425 -0.6488
  371TIP3    H222749   3.320   5.104   1.937 -0.6796  0.3857 -0.1882
  372TIP3   OH222750   0.719   4.612   8.318 -0.4708 -0.0743 -0.3735
  372TIP3    H122751   0.683   4.633   8.232 -0.8921 -4.8067 -1.6380
  372TIP3    H222752   0.644   4.585   8.370  0.1964 -0.8594  0.2047
  373TIP3   OH222753   0.925   6.295   7.314 -0.0667 -0.6697  0.5461
  373TIP3    H122754   0.843   6.305   7.362 -0.7539 -1.2725 -0.4560
  373TIP3    H222755   0.929   6.373   7.258 -0.3067 -0.9683  0.1055
  374TIP3   OH222756   1.767   4.700   8.901 -0.6456 -0.3076 -0.9590
  374TIP3    H122757   1.708   4.768   8.934  0.0621  0.3337 -0.9837
  374TIP3    H222758   1.855   4.737   8.912 -0.0268 -2.1642  1.3437
  375TIP3   OH222759   6.503   5.164   1.107  0.1443  0.1622 -0.8202
  375TIP3    H122760   6.490   5.220   1.184 -0.7325  1.7022 -2.0292
  375TIP3    H222761   6.447   5.088   1.123  1.7494 -0.7104  1.0917
  376TIP3   OH222762   4.407   3.735   1.180 -0.2010 -0.0255  0.3245
  376TIP3    H122763   4.394   3.754   1.087 -0.7351  1.5635  0.6808
  376TIP3    H222764   4.352   3.799   1.225 -0.4100 -1.1500  1.7413
  377TIP3   OH222765   6.516   6.308   0.566  0.3481 -0.1186  0.6856
  377TIP3    H122766   6.432   6.295   0.522  0.5566 -4.9504  1.1457
  377TIP3    H222767   6.494   6.352   0.648 -1.5963 -0.3199  0.3238
  378TIP3   OH222768   4.488   3.087   1.390  0.1458 -0.1982 -0.2971
  378TIP3    H122769   4.546   3.134   1.331 -0.3914  1.0967  0.1666
  378TIP3    H222770   4.400   3.101   1.354 -0.1267  0.1123  0.4683
  379TIP3   OH222771   1.077   4.262   7.193 -0.6494 -0.6907 -0.4923
  379TIP3    H122772   1.159   4.246   7.241 -1.3608 -1.8282  0.3935
  379TIP3    H222773   1.054   4.352   7.215  1.2123  0.2908 -2.1254
  380TIP3   OH222774   2.855   6.043   6.768 -0.1218 -0.6726  0.3404
  380TIP3    H122775   2.798   6.030   6.844 -3.0822  1.0634 -1.3833
  380TIP3    H222776   2.864   5.956   6.730 -1.9488 -0.9751  0.5023
  381TIP3   OH222777   5.653   0.456   6.920 -0.5306  0.2837  0.0545
  381TIP3    H122778   5.707   0.529   6.891 -0.3547  0.5662  1.0630
  381TIP3    H222779   5.685   0.381   6.870 -0.2434  0.7502 -0.4782
  382TIP3   OH222780   5.369   3.353   8.373  0.0545  0.2101 -0.4586
  382TIP3    H122781   5.280   3.339   8.342  0.3601 -1.7580 -0.5793
  382TIP3    H222782   5.400   3.430   8.325 -0.6670 -0.7036 -2.5105
  383TIP3   OH222783   1.369   0.539   0.926 -0.0190 -0.6970  0.4146
  383TIP3    H122784   1.298   0.569   0.869  1.5964  0.8396 -0.9025
  383TIP3    H222785   1.345   0.571   1.013 -1.1586 -0.6129  0.0769
  384TIP3   OH222786   1.296   5.297   1.223 -0.0351  0.3578  0.3421
  384TIP3    H122787   1.295   5.259   1.136 -1.9047  0.5604  0.2342
  384TIP3    H222788   1.209   5.335   1.234 -0.3063 -0.7483  2.7573
  385TIP3   OH222789   6.012   1.678   6.593  0.8759 -0.2654 -0.2619
  385TIP3    H122790   6.075   1.748   6.607 -1.6446  1.9395  1.0241
  385TIP3    H222791   5.932   1.723   6.566 -1.0842 -2.5564  1.3270
  386TIP3   OH222792   2.136   1.933   0.872 -0.5157 -0.0330  0.0831
  386TIP3    H122793   2.151   2.026   0.851 -2.0664 -0.0097 -1.0310
  386TIP3    H222794   2.049   1.931   0.911  0.4847 -0.7278  2.4609
  387TIP3   OH222795   2.676   4.534   6.848 -0.4825  0.5766 -0.0232
  387TIP3    H122796   2.771   4.536   6.853 -0.5192  1.3643  0.6811
  387TIP3    H222797   2.656   4.459   6.793  0.5742  1.0042 -1.0223
  388TIP3   OH222798   2.350   5.360   7.000  0.1027  0.0295 -0.1784
  388TIP3    H122799   2.290   5.292   7.030  1.3201 -0.1103  2.1944
  388TIP3    H222800   2.432   5.342   7.046  0.6737  2.6941  0.0488
  389TIP3   OH222801   3.250   0.046   7.624 -0.4870  0.2796 -0.3634
  389TIP3    H122802   3.272   0.072   7.535 -2.4030  0.5376 -0.8032
  389TIP3    H222803   3.266   0.124   7.677  2.4371 -0.3794 -0.0731
  390TIP3   OH222804   1.137   0.921   1.934  0.6087 -0.4743  0.2426
  390TIP3    H122805   1.061   0.974   1.958  1.4591  0.8503  0.1741
  390TIP3    H222806   1.140   0.852   2.000  1.2583  1.4198  2.3623
  391TIP3   OH222807   4.904   2.619   7.984 -0.1995  0.3545 -0.3676
  391TIP3    H122808   4.839   2.588   8.048  1.3410  1.8490  2.0513
  391TIP3    H222809   4.888   2.713   7.976  1.2375  0.6313 -0.2380
  392TIP3   OH222810   3.876   4.977   7.603 -0.5317 -0.8140  0.2155
  392TIP3    H122811   3.923   5.037   7.661  0.1482 -1.0163 -0.1168
  392TIP3    H222812   3.835   5.035   7.538  0.1518 -0.6956 -0.1242
  393TIP3   OH222813   3.132   0.529   1.501  0.2882  0.3628  0.1407
  393TIP3    H122814   3.181   0.580   1.437  0.5921 -0.1778 -0.0589
  393TIP3    H222815   3.045   0.570   1.502  0.2787  0.3689 -0.6141
  394TIP3   OH222816   1.140   2.960   7.107  0.3347  0.4654  0.2393
  394TIP3    H122817   1.196   2.923   7.038 -0.7205  0.4734 -0.6490
  394TIP3    H222818   1.112   3.044   7.072 -0.7890  0.1579  0.3464
  395TIP3   OH222819   2.189   5.291   1.902 -0.5181  0.3843 -0.1802
  395TIP3    H122820   2.236   5.234   1.840  0.9546 -1.5800  2.5213
  395TIP3    H222821   2.257   5.350   1.936 -0.3263 -1.0438  2.1704
  396TIP3   OH222822   2.611   5.718   0.453 -0.3216  0.3698 -0.0778
  396TIP3    H122823   2.697   5.712   0.495 -0.9336  0.3146  1.2166
  396TIP3    H222824   2.549   5.693   0.522 -1.3819  0.4561 -0.9759
  397TIP3   OH222825   4.790   3.931   7.481 -0.3129 -0.3621 -0.1639
  397TIP3    H122826   4.709   3.980   7.468 -0.8840 -1.4338 -0.8292
  397TIP3    H222827   4.765   3.840   7.466  0.8098 -0.8170  0.5949
  398TIP3   OH222828   6.299   1.907   1.851 -0.4389 -0.1810  0.1507
  398TIP3    H122829   6.217   1.858   1.849 -0.4158 -0.2165  0.0897
  398TIP3    H222830   6.296   1.954   1.935 -0.4067 -0.3809  0.2655
  399TIP3   OH222831   2.455   0.297   1.763  0.6492 -0.3662  0.0055
  399TIP3    H122832   2.472   0.325   1.673 -0.5590  1.9749  0.4375
  399TIP3    H222833   2.541   0.295   1.804  1.1448 -0.8737 -1.0296
  400TIP3   OH222834   1.703   5.270   6.975 -0.1869  0.1694 -0.8811
  400TIP3    H122835   1.720   5.177   6.958 -0.1809 -0.2194  0.9757
  400TIP3    H222836   1.657   5.301   6.898 -2.3590 -2.0002 -0.5701
  401TIP3   OH222837   5.469   5.031   1.787  0.5214  0.1952  0.0356
  401TIP3    H122838   5.437   5.101   1.731  1.1529  0.3793 -0.1000
  401TIP3    H222839   5.428   5.047   1.872  1.5709  1.4290  0.3436
  402TIP3   OH222840   3.570   2.556   1.270  0.4375  0.1941 -0.1599
  402TIP3    H122841   3.635   2.592   1.330  0.6756  1.1679 -0.9692
  402TIP3    H222842   3.584   2.461   1.274  0.3372  0.2206  1.4108
  403TIP3   OH222843   6.118   6.048   0.291 -0.4750  0.0123 -0.0755
  403TIP3    H122844   6.205   6.026   0.324 -0.7450 -0.3266  0.4379
  403TIP3    H222845   6.081   5.963   0.265 -1.5736 -0.2134  2.0252
  404TIP3   OH222846   3.023   0.285   6.935 -0.3508 -0.5826 -0.4321
  404TIP3    H122847   3.071   0.358   6.897  2.0734 -1.1596  1.3146
  404TIP3    H222848   2.939   0.285   6.889  0.5207  1.7417 -2.1966
  405TIP3   OH222849   4.623   1.091   0.029  0.3338 -0.3009  0.0805
  405TIP3    H122850   4.698   1.053  -0.017 -0.9431 -0.7657 -1.7743
  405TIP3    H222851   4.589   1.157  -0.032 -1.8133 -1.3758 -0.0002
  406TIP3   OH222852   6.081   3.557   8.389  0.0283 -0.3723  0.0107
  406TIP3    H122853   6.154   3.598   8.436 -0.1675  1.1847 -0.9613
  406TIP3    H222854   6.066   3.474   8.435  0.3105  0.7359  2.2461
  407TIP3   OH222855   1.284   6.152   8.903  0.1724 -0.3630  0.0827
  407TIP3    H122856   1.290   6.244   8.878 -0.7470  0.1590  1.6218
  407TIP3    H222857   1.362   6.111   8.864 -0.3341  0.6580 -2.1481
  408TIP3   OH222858   6.584   5.912   7.050  0.0628  0.0972 -0.4614
  408TIP3    H122859   6.582   6.001   7.014  0.1259 -0.1610 -1.1187
  408TIP3    H222860   6.561   5.923   7.142  0.1028  0.7996 -0.5279
  409TIP3   OH222861   2.378   4.887   7.343  0.0460  0.3885 -0.1930
  409TIP3    H122862   2.412   4.956   7.286  0.8191 -0.3508 -0.6511
  409TIP3    H222863   2.422   4.902   7.427  0.1424  0.5027 -0.2634
  410TIP3   OH222864   3.270   2.403   6.068  0.7686 -0.3070 -0.1096
  410TIP3    H122865   3.210   2.477   6.064  1.2069  0.0837  0.4120
  410TIP3    H222866   3.301   2.402   6.159  0.0270 -1.7326  0.1523
  411TIP3   OH222867   3.024   1.501   0.641  0.3590  0.7030 -0.4524
  411TIP3    H122868   3.111   1.477   0.611 -0.5561 -1.0682 -1.8844
  411TIP3    H222869   2.967   1.433   0.605 -1.5574  1.5543  0.8306
  412TIP3   OH222870   5.957   5.226   0.711 -0.3738 -0.2880  0.6143
  412TIP3    H122871   5.960   5.142   0.757 -0.8325 -0.1718  0.8667
  412TIP3    H222872   5.975   5.203   0.620 -0.8604 -0.7159  0.6165
  413TIP3   OH222873   2.845   4.441   1.209  1.0900 -0.4053  0.3860
  413TIP3    H122874   2.922   4.386   1.227 -0.3171 -1.7026  2.9376
  413TIP3    H222875   2.856   4.518   1.264  1.8440  0.8212 -1.3617
  414TIP3   OH222876   5.672   5.583   1.273 -0.1149 -0.4223 -0.3357
  414TIP3    H122877   5.735   5.592   1.345 -0.3030 -0.3077 -0.1836
  414TIP3    H222878   5.714   5.625   1.199 -1.1648  2.3037  0.4667
  415TIP3   OH222879   4.252   0.246   1.213 -0.1144  0.0640 -0.0675
  415TIP3    H122880   4.340   0.266   1.182 -0.0027  0.9475  0.7672
  415TIP3    H222881   4.231   0.161   1.173  0.3571  0.7097 -1.7694
  416TIP3   OH222882   3.048   3.360   8.679 -0.5115 -0.3336  0.4312
  416TIP3    H122883   3.112   3.368   8.750 -1.1516 -0.5420  1.0407
  416TIP3    H222884   3.053   3.268   8.654 -2.0521 -0.8772  1.9227
  417TIP3   OH222885   0.029   3.702   7.200  0.2003  0.5145  0.2838
  417TIP3    H122886   0.089   3.762   7.245  0.1638 -0.4167  1.6340
  417TIP3    H222887   0.037   3.620   7.248  0.1155 -0.5358 -1.4166
  418TIP3   OH222888   1.777   1.993   1.442 -0.6849  0.4962  0.1546
  418TIP3    H122889   1.744   2.056   1.506 -1.1005  0.1540  0.2850
  418TIP3    H222890   1.699   1.961   1.397 -0.8695 -2.0151  2.0084
  419TIP3   OH222891   5.250   4.545   0.680 -0.2304  0.1526 -0.2395
  419TIP3    H122892   5.317   4.536   0.748 -0.8154  0.9794  0.4618
  419TIP3    H222893   5.170   4.566   0.728 -0.6619  0.7014 -1.1872
  420TIP3   OH222894   2.097   3.783   1.722 -0.0857  0.1671 -0.2835
  420TIP3    H122895   2.170   3.787   1.783  1.1461  2.2721 -1.7446
  420TIP3    H222896   2.040   3.856   1.749  0.6002  1.2779 -1.7271
  421TIP3   OH222897   1.588   1.525   8.581  0.2032 -0.2778  0.0580
  421TIP3    H122898   1.498   1.501   8.603  0.6729 -0.7253  1.5888
  421TIP3    H222899   1.583   1.616   8.552 -1.0150 -0.8926 -1.8868
  422TIP3   OH222900   6.737   1.924   8.786  0.2070 -0.0528 -0.7834
  422TIP3    H122901   6.787   1.857   8.740 -0.1042 -0.9149  0.0959
  422TIP3    H222902   6.648   1.887   8.792  0.5522 -0.6419  1.7569
  423TIP3   OH222903   0.653   3.717   7.694 -0.0164  0.2075  0.0296
  423TIP3    H122904   0.585   3.698   7.630 -0.8532  2.2421  0.2052
  423TIP3    H222905   0.734   3.718   7.644 -0.0633 -2.2048 -0.1960
  424TIP3   OH222906   4.074   4.531   0.387  0.0887  0.2490  0.0311
  424TIP3    H122907   4.093   4.462   0.451  0.0305 -0.0835 -0.3049
  424TIP3    H222908   4.010   4.492   0.329 -1.1979  1.1528  0.7984
  425TIP3   OH222909   2.236   4.042   0.966  0.4911 -0.4225  0.0451
  425TIP3    H122910   2.261   3.952   0.987  2.4070  0.1695  0.4966
  425TIP3    H222911   2.155   4.056   1.015  0.5898 -1.6457  0.6008
  426TIP3   OH222912   0.103   1.522   2.244 -0.5701  0.1970 -0.0719
  426TIP3    H122913   0.091   1.602   2.295 -1.2673 -0.0355  0.1455
  426TIP3    H222914   0.015   1.488   2.232 -0.2850 -0.5155 -0.1960
  427TIP3   OH222915   2.549   6.422   7.551  0.0801 -0.2520  0.1800
  427TIP3    H122916   2.611   6.399   7.482  0.6975  2.0074 -0.0931
  427TIP3    H222917   2.591   6.493   7.599 -1.1499 -0.5195  1.7388
  428TIP3   OH222918   0.667   5.695   0.612  0.1511  0.1708  0.0987
  428TIP3    H122919   0.638   5.716   0.523  0.5084 -0.2924 -0.1316
  428TIP3    H222920   0.691   5.779   0.650 -0.8400  0.4802  0.0614
  429TIP3   OH222921   3.381   4.823   1.389  0.0966 -0.3290  0.1882
  429TIP3    H122922   3.354   4.873   1.466 -1.5678 -1.6837  0.5428
  429TIP3    H222923   3.471   4.798   1.408  1.0512  2.5032 -0.0402
  430TIP3   OH222924   0.458   0.368   8.467 -0.6207 -0.4532 -0.0580
  430TIP3    H122925   0.504   0.328   8.541 -0.0476  0.5345  0.1358
  430TIP3    H222926   0.418   0.447   8.504 -0.1135  0.1895 -0.8540
  431TIP3   OH222927   0.026   3.746   7.824 -0.5089  0.1259  0.3178
  431TIP3    H122928  -0.045   3.804   7.854 -1.6919 -0.8117 -0.5628
  431TIP3    H222929   0.007   3.662   7.866  1.6143  0.5039  2.1764
  432TIP3   OH222930   2.436   0.336   0.165  0.3842 -0.2107  0.4609
  432TIP3    H122931   2.529   0.356   0.153  0.2899 -0.4058 -0.7784
  432TIP3    H222932   2.399   0.415   0.204  0.8665  0.3066 -0.1067
  433TIP3   OH222933   5.313   3.310   1.799  0.7662  0.2716  0.0592
  433TIP3    H122934   5.277   3.279   1.882  0.1524  2.0250  0.4819
  433TIP3    H222935   5.377   3.377   1.824 -0.3322  1.7441 -0.8683
  434TIP3   OH222936   1.068   0.660   7.240  0.4748 -0.1462 -0.2189
  434TIP3    H122937   1.157   0.634   7.261  0.8134  1.1028 -0.0156
  434TIP3    H222938   1.052   0.738   7.294 -0.8441 -0.5203 -0.0234
  435TIP3   OH222939   5.338   6.141   7.817  0.5009  0.1866  0.3458
  435TIP3    H122940   5.360   6.156   7.909 -0.4790  0.9282  0.4684
  435TIP3    H222941   5.307   6.226   7.786  0.0661 -0.2617 -0.4587
  436TIP3   OH222942   0.828   6.018   6.736 -0.3381 -0.0383  0.3188
  436TIP3    H122943   0.858   6.067   6.813 -1.6150  0.2664  0.6547
  436TIP3    H222944   0.738   6.049   6.722 -0.2265 -0.3067 -1.1252
  437TIP3   OH222945   4.908   0.945   1.887 -0.1538 -0.1643 -0.3079
  437TIP3    H122946   4.979   0.891   1.853  0.1996  0.1814 -0.1247
  437TIP3    H222947   4.868   0.984   1.809  1.4639  1.6477 -0.3153
  438TIP3   OH222948   3.578   0.210   6.665  0.3959 -0.3577  0.1664
  438TIP3    H122949   3.669   0.218   6.635  0.4801  2.3041  0.9364
  438TIP3    H222950   3.526   0.222   6.585  0.7124  0.2372  0.0401
  439TIP3   OH222951   1.777   2.238   0.990 -0.1451 -0.4054  0.3062
  439TIP3    H122952   1.714   2.297   1.032 -0.4622  0.4207 -1.2458
  439TIP3    H222953   1.747   2.151   1.015 -2.8175 -0.1292 -1.4223
  440TIP3   OH222954   4.589   2.473   7.011 -0.0608  0.1348 -0.3003
  440TIP3    H122955   4.526   2.532   6.970  0.9618  0.9327 -0.7588
  440TIP3    H222956   4.674   2.501   6.977  0.5489 -0.9180  0.3096
  441TIP3   OH222957   5.740   3.616   7.017 -0.0621  0.3096  0.2987
  441TIP3    H122958   5.672   3.683   7.004 -1.4426 -1.0952  0.0233
  441TIP3    H222959   5.716   3.546   6.958  0.5492 -1.0421  1.5904
  442TIP3   OH222960   5.382   3.600   0.108 -0.6484 -0.1497  0.0603
  442TIP3    H122961   5.298   3.646   0.115  0.5760  2.0253  2.2894
  442TIP3    H222962   5.393   3.559   0.194  1.0459  0.6256  0.2465
  443TIP3   OH222963   0.609   0.283   8.680 -0.0120 -0.2222  0.2950
  443TIP3    H122964   0.663   0.206   8.662 -1.9379 -1.5083 -0.4075
  443TIP3    H222965   0.620   0.299   8.774  1.7675 -0.2243  0.1243
  444TIP3   OH222966   2.901   6.441   0.993  0.3278  0.4777  0.5475
  444TIP3    H122967   2.888   6.522   1.043  1.7333  0.6823  0.6043
  444TIP3    H222968   2.916   6.374   1.060  0.9309  0.5098  0.4465
  445TIP3   OH222969   1.193   4.475   2.695 -0.1227  0.0202  0.2989
  445TIP3    H122970   1.151   4.466   2.781  0.5897  3.3724  1.1657
  445TIP3    H222971   1.122   4.503   2.637 -0.1397  0.3072  0.4533
  446TIP3   OH222972   1.754   5.542   2.138 -0.7739 -0.0103  0.1238
  446TIP3    H122973   1.802   5.480   2.193 -2.4648 -2.3242 -0.8377
  446TIP3    H222974   1.774   5.627   2.175  3.4646 -0.8267  0.2124
  447TIP3   OH222975   4.718   5.904   2.196 -0.2660 -0.2803 -0.1220
  447TIP3    H122976   4.640   5.941   2.237 -0.2080 -2.2026  1.9065
  447TIP3    H222977   4.790   5.924   2.257  0.4812 -0.2177 -0.9963
  448TIP3   OH222978   1.940   0.682   0.332 -0.2446  0.3246 -0.2707
  448TIP3    H122979   1.930   0.711   0.422 -1.0542  0.6156 -0.4439
  448TIP3    H222980   1.884   0.741   0.281 -0.4679 -0.3720 -0.8588
  449TIP3   OH222981   5.504   3.895   7.764 -0.7237 -0.2413 -0.3211
  449TIP3    H122982   5.434   3.932   7.709 -0.0396  0.4114 -0.7720
  449TIP3    H222983   5.535   3.970   7.815 -0.7927 -0.6725  0.3699
  450TIP3   OH222984   6.732   3.206   1.028 -0.2600 -0.3963 -0.1686
  450TIP3    H122985   6.646   3.247   1.042 -0.1544 -0.7676  1.7008
  450TIP3    H222986   6.716   3.142   0.958 -1.3683 -0.0667 -0.2449
  451TIP3   OH222987   5.187   0.177   0.039  0.1398  0.1963 -0.4342
  451TIP3    H122988   5.134   0.111  -0.007 -0.7853  0.4076  0.2869
  451TIP3    H222989   5.158   0.171   0.130  2.8638 -1.1305  0.4302
  452TIP3   OH222990   5.544   6.074   2.042 -0.3050 -0.0614 -0.0865
  452TIP3    H122991   5.622   6.091   2.095 -0.7628 -1.8164  1.2410
  452TIP3    H222992   5.471   6.105   2.094 -0.6236  0.1753 -0.6599
  453TIP3   OH222993   0.576   5.377   8.851  0.1551  0.5277  0.0562
  453TIP3    H122994   0.573   5.452   8.910 -0.2644  1.6746 -1.3774
  453TIP3    H222995   0.487   5.341   8.854 -0.0993  1.0981 -0.5064
  454TIP3   OH222996   5.182   1.986   6.982 -0.2223  0.0150  0.0303
  454TIP3    H122997   5.275   1.995   6.962 -0.5424  0.7078 -1.1952
  454TIP3    H222998   5.176   1.901   7.026  0.6927 -1.0844 -1.8548
  455TIP3   OH222999   1.641   4.909   0.053  0.0732  0.0613  0.4459
  455TIP3    H123000   1.610   4.848   0.120 -0.7925 -0.9145 -0.8096
  455TIP3    H223001   1.586   4.986   0.063 -1.7374 -1.0124 -0.6680
  456TIP3   OH223002   2.870   5.887   0.222 -0.8090 -0.3297 -0.0129
  456TIP3    H123003   2.826   5.963   0.185 -0.8990 -0.6255 -0.5325
  456TIP3    H223004   2.888   5.911   0.313  1.0730  1.1332 -0.7261
  457TIP3   OH223005   3.633   1.412   1.130 -0.2161 -0.0786 -0.5336
  457TIP3    H123006   3.547   1.422   1.089  0.8523  1.6213 -2.5513
  457TIP3    H223007   3.640   1.485   1.191 -0.1450 -0.1707 -0.4302
  458TIP3   OH223008   4.313   4.240   7.598  0.3171 -0.1566  0.2995
  458TIP3    H123009   4.274   4.275   7.679  0.3114  0.2556  0.1213
  458TIP3    H223010   4.241   4.194   7.555  0.5017 -1.0315  0.8889
  459TIP3   OH223011   0.679   3.132   0.536  0.0642 -0.4399 -0.4661
  459TIP3    H123012   0.620   3.165   0.604 -1.2587 -0.1261 -1.7138
  459TIP3    H223013   0.759   3.109   0.583 -0.3632  0.9088  1.0153
  460TIP3   OH223014   1.317   0.530   0.218 -0.1890 -0.0711  0.7864
  460TIP3    H123015   1.239   0.480   0.195 -0.4861  1.0959 -0.9848
  460TIP3    H223016   1.389   0.470   0.203 -0.5388 -0.0481 -1.1708
  461TIP3   OH223017   1.590   4.807   1.575 -1.0014  0.5048 -0.3260
  461TIP3    H123018   1.572   4.901   1.577  1.8179  1.2281 -2.7083
  461TIP3    H223019   1.547   4.776   1.495  0.5548  0.4239 -1.1574
  462TIP3   OH223020   2.435   2.480   7.251 -0.4285 -0.0842  0.4697
  462TIP3    H123021   2.461   2.569   7.274 -0.2215 -0.0674  0.1712
  462TIP3    H223022   2.516   2.429   7.259 -0.2972 -0.0389 -0.4335
  463TIP3   OH223023   1.825   1.451   1.319 -0.0762 -0.1488  0.5139
  463TIP3    H123024   1.735   1.428   1.293  0.8802 -0.5471 -3.0497
  463TIP3    H223025   1.830   1.545   1.303  0.5088 -0.3867 -0.8679
  464TIP3   OH223026   6.063   3.987   2.209  0.0432  0.3219 -0.1931
  464TIP3    H123027   6.118   3.910   2.225 -0.4239  0.1362  0.5121
  464TIP3    H223028   5.976   3.961   2.237  0.0777  1.4506  1.0093
  465TIP3   OH223029   1.095   1.482   1.006 -0.4899 -0.1965  0.2411
  465TIP3    H123030   1.010   1.511   0.973 -0.0355 -0.4396 -1.2009
  465TIP3    H223031   1.114   1.402   0.958  1.4991  0.9528 -1.0495
  466TIP3   OH223032   1.387   5.964   0.218  0.2456  0.2321  0.3746
  466TIP3    H123033   1.386   6.019   0.296  1.2419  0.1763  0.4386
  466TIP3    H223034   1.331   5.889   0.240 -2.2139  1.7961 -0.1873
  467TIP3   OH223035   6.206   2.597   1.790 -0.2175 -0.3618 -0.0843
  467TIP3    H123036   6.263   2.614   1.866  1.4853  0.8165 -1.5219
  467TIP3    H223037   6.267   2.584   1.718 -1.8006 -0.5906 -1.4326
  468TIP3   OH223038   1.058   4.749   7.432 -0.1778 -0.0753 -0.2115
  468TIP3    H123039   1.114   4.713   7.500  1.6384 -0.7824 -1.9839
  468TIP3    H223040   1.032   4.674   7.380 -1.3742  0.4723 -0.4314
  469TIP3   OH223041   0.473   5.699   7.382  0.0044 -0.1743 -0.4739
  469TIP3    H123042   0.530   5.748   7.323 -0.4112  0.1955 -0.5788
  469TIP3    H223043   0.440   5.765   7.443 -0.3436 -0.3757 -0.4418
  470TIP3   OH223044   5.067   3.638   7.349 -0.3178  0.3844  0.0393
  470TIP3    H123045   4.993   3.670   7.399 -0.7921 -0.3229 -0.1959
  470TIP3    H223046   5.144   3.673   7.394 -0.7129 -0.4486  1.4243
  471TIP3   OH223047   1.190   0.361   1.075 -0.3099 -0.7971 -0.8251
  471TIP3    H123048   1.202   0.323   1.162 -1.0779  1.3800  0.3082
  471TIP3    H223049   1.278   0.373   1.041  0.1985  0.8970  0.8998
  472TIP3   OH223050   4.676   4.519   0.066 -0.3493 -0.2995 -0.0480
  472TIP3    H123051   4.673   4.424   0.072 -1.8414 -0.3287 -0.7901
  472TIP3    H223052   4.746   4.545   0.127 -0.6034 -1.7922  0.9305
  473TIP3   OH223053   1.831   1.756   7.370  0.1076  0.6791 -0.1824
  473TIP3    H123054   1.739   1.748   7.395 -0.2892 -3.8471 -2.0857
  473TIP3    H223055   1.878   1.702   7.434  1.0607  0.8093 -0.7494
  474TIP3   OH223056   1.231   4.446   8.176 -0.8468  0.1227  0.3598
  474TIP3    H123057   1.164   4.378   8.182 -2.0425  1.2324  0.1119
  474TIP3    H223058   1.233   4.470   8.083 -0.0274  0.0232  0.3504
  475TIP3   OH223059   6.717   6.668   8.777 -0.1462 -0.7173 -0.1349
  475TIP3    H123060   6.751   6.725   8.708 -0.5328 -0.2118  0.0896
  475TIP3    H223061   6.795   6.626   8.814  0.0493 -1.1826 -1.0355
  476TIP3   OH223062   1.148   3.976   1.141 -0.2288  0.0511  0.1256
  476TIP3    H123063   1.168   4.069   1.135 -0.6241  0.1811  0.7317
  476TIP3    H223064   1.124   3.963   1.233 -0.1041 -0.6623  0.0619
  477TIP3   OH223065   0.102   5.794   8.540  0.4356 -0.7076  0.3542
  477TIP3    H123066   0.053   5.712   8.527  0.7124 -0.6824 -1.0093
  477TIP3    H223067   0.137   5.815   8.453  1.1576  0.3660  0.8813
  478TIP3   OH223068   2.012   5.313   0.389  0.0392  0.5145  0.2908
  478TIP3    H123069   1.982   5.402   0.408 -0.3355  0.0388  2.1430
  478TIP3    H223070   1.948   5.278   0.328  0.1155  1.4539 -0.3554
  479TIP3   OH223071   3.968   0.968   8.960  0.2678 -0.2476 -0.2826
  479TIP3    H123072   3.944   1.041   8.902  1.1278  0.9733  0.8455
  479TIP3    H223073   3.891   0.954   9.014  0.7077  1.1579  0.7899
  480TIP3   OH223074   5.992   3.176   0.125  0.1377  0.2860 -0.6368
  480TIP3    H123075   5.958   3.258   0.087 -1.5841 -0.8505 -1.6918
  480TIP3    H223076   5.981   3.111   0.056  1.2403 -0.9133  0.2690
  481TIP3   OH223077   1.188   4.246   1.077  0.1787 -0.3347  0.2585
  481TIP3    H123078   1.129   4.253   1.002  1.4740 -1.4309 -0.9007
  481TIP3    H223079   1.234   4.330   1.079 -1.7333  0.7591  1.5144
  482TIP3   OH223080   4.765   1.253   8.760 -0.3858  0.9209 -0.0084
  482TIP3    H123081   4.772   1.303   8.679  1.0579  1.2950  0.3292
  482TIP3    H223082   4.813   1.172   8.742 -3.4824 -0.8876 -0.8857
  483TIP3   OH223083   5.022   5.726   7.838  0.2171  0.5363 -0.5701
  483TIP3    H123084   5.025   5.821   7.844 -0.7763  0.5642 -0.4365
  483TIP3    H223085   4.929   5.705   7.833  0.2128 -0.5952  2.3540
  484TIP3   OH223086   1.792   6.704   8.223  0.2487  0.6660  0.1134
  484TIP3    H123087   1.783   6.744   8.309  1.7238  0.6893  0.2804
  484TIP3    H223088   1.879   6.664   8.224 -0.8263 -1.8229 -0.3557
  485TIP3   OH223089   5.788   2.076   8.514 -0.1199 -0.3327 -0.1172
  485TIP3    H123090   5.787   2.148   8.451 -1.4052  1.8622  2.2383
  485TIP3    H223091   5.878   2.074   8.546  0.5549 -1.4804 -1.8825
  486TIP3   OH223092   4.034   0.706   8.053  0.4332  0.0489  0.2198
  486TIP3    H123093   3.954   0.665   8.086  0.3335 -1.9952 -2.2295
  486TIP3    H223094   4.105   0.659   8.097  0.3123 -0.0386  0.3230
  487TIP3   OH223095   4.457   3.973   8.244  0.3902 -0.6903  0.2923
  487TIP3    H123096   4.405   3.893   8.251  0.0910 -0.4132  1.7367
  487TIP3    H223097   4.443   4.004   8.155 -2.3224 -0.4058  0.7283
  488TIP3   OH223098   2.589   0.657   7.528 -0.0722 -0.8446  0.0229
  488TIP3    H123099   2.654   0.683   7.463  1.4627  0.2103  1.8563
  488TIP3    H223100   2.525   0.728   7.527 -0.6678 -1.3739 -1.0618
  489TIP3   OH223101   6.311   4.681   0.361  0.6256 -0.1897 -0.4021
  489TIP3    H123102   6.392   4.659   0.316  1.1164 -1.2791  0.9425
  489TIP3    H223103   6.247   4.618   0.327  0.0519  1.2524 -2.1466
  490TIP3   OH223104   1.210   5.508   8.069  0.3898  0.3295 -0.3127
  490TIP3    H123105   1.270   5.434   8.077 -0.4939 -0.4870 -0.9755
  490TIP3    H223106   1.194   5.537   8.159 -2.4546 -2.9466  0.4349
  491TIP3   OH223107   5.793   3.385   1.678 -0.5691  0.6648 -0.0464
  491TIP3    H123108   5.805   3.425   1.764  0.0137 -0.6951  0.5293
  491TIP3    H223109   5.762   3.296   1.697  1.7483 -0.4575 -1.1118
  492TIP3   OH223110   6.228   4.207   2.171 -0.3622 -0.0924 -0.0697
  492TIP3    H123111   6.173   4.130   2.187 -0.1757 -0.2694 -0.2737
  492TIP3    H223112   6.296   4.202   2.238  1.1137 -1.4829 -1.5855
  493TIP3   OH223113   4.280   2.866   1.278 -0.0248 -0.1150 -0.5468
  493TIP3    H123114   4.251   2.955   1.296  1.5415 -0.0573  2.3058
  493TIP3    H223115   4.373   2.875   1.260 -0.2213 -1.0266 -2.1606
  494TIP3   OH223116   5.922   4.297   8.050  0.2107  0.0182 -0.4983
  494TIP3    H123117   5.908   4.219   8.104 -1.3028  2.2469  2.6226
  494TIP3    H223118   5.851   4.295   7.986 -0.2190 -0.8161 -0.0093
  495TIP3   OH223119   4.083   3.771   0.733 -0.1070  0.0764 -0.6089
  495TIP3    H123120   4.001   3.766   0.684  0.4852  0.0820 -1.6423
  495TIP3    H223121   4.151   3.768   0.665  0.7439  0.0613  0.2268
  496TIP3   OH223122   4.708   4.026   1.397  0.3842 -0.3502  0.0246
  496TIP3    H123123   4.726   3.957   1.332 -0.1294 -0.6059  0.1488
  496TIP3    H223124   4.624   4.063   1.370  1.2053  1.0398 -0.7239
  497TIP3   OH223125   1.866   4.605   6.183  0.4526  0.4636 -0.3731
  497TIP3    H123126   1.795   4.583   6.122  1.2012 -0.3927 -0.9597
  497TIP3    H223127   1.844   4.557   6.263  0.3059  0.3018 -0.5079
  498TIP3   OH223128   0.730   0.469   0.217 -0.9059  0.0199  0.7350
  498TIP3    H123129   0.768   0.511   0.295  0.7809  1.2783 -0.6970
  498TIP3    H223130   0.636   0.484   0.225 -0.5489  2.2411  1.3578
  499TIP3   OH223131   4.175   2.681   7.701  0.3048  0.3098 -0.5485
  499TIP3    H123132   4.109   2.739   7.737  0.2794 -0.4864  0.7411
  499TIP3    H223133   4.251   2.738   7.685 -0.2255  0.9677 -0.7639
  500TIP3   OH223134   5.634   2.900   2.488  0.3039 -0.1529  0.1109
  500TIP3    H123135   5.570   2.922   2.556  1.9408 -0.8624  2.0008
  500TIP3    H223136   5.594   2.828   2.440 -1.4463  1.2144 -0.5654
  501TIP3   OH223137   5.469   0.741   8.615 -0.0138  0.0018 -0.9326
  501TIP3    H123138   5.544   0.684   8.630 -0.9076 -0.8827  0.4111
  501TIP3    H223139   5.424   0.703   8.540 -0.4242 -0.8800 -0.2470
  502TIP3   OH223140   5.140   4.845   1.842 -0.5752  0.1314 -0.0328
  502TIP3    H123141   5.231   4.830   1.814 -0.3280  2.1518 -0.4919
  502TIP3    H223142   5.138   4.818   1.934  1.3092  2.6235  0.8600
  503TIP3   OH223143   2.197   2.481   7.582  0.1783 -0.0657  0.2418
  503TIP3    H123144   2.264   2.445   7.639 -1.0300 -0.5898  1.3911
  503TIP3    H223145   2.192   2.420   7.509  2.2210  0.9785 -0.8467
  504TIP3   OH223146   1.365   6.345   8.680 -0.1288  0.0916 -0.3813
  504TIP3    H123147   1.398   6.360   8.592  1.1367  1.7109  0.3163
  504TIP3    H223148   1.431   6.290   8.722  0.3401  1.0539  0.1729
  505TIP3   OH223149   5.912   4.775   7.714 -0.8799 -0.5206 -0.1235
  505TIP3    H123150   5.956   4.704   7.761  1.5103  1.0407  0.1663
  505TIP3    H223151   5.973   4.799   7.644 -2.2105  0.4196 -1.0145
  506TIP3   OH223152   5.901   1.248   7.969  0.1394  0.0268 -0.0412
  506TIP3    H123153   5.958   1.172   7.954  2.1979  1.1477  1.5166
  506TIP3    H223154   5.863   1.233   8.056  1.5968  1.3086  0.8726
  507TIP3   OH223155   5.982   6.712   1.590 -0.1374 -0.3264 -0.3562
  507TIP3    H123156   5.982   6.797   1.546  0.8185  0.7325  1.5314
  507TIP3    H223157   6.050   6.662   1.545  0.6396  0.6279 -0.2859
  508TIP3   OH223158   3.374   1.401   7.647 -0.6198 -0.0998  0.5814
  508TIP3    H123159   3.286   1.437   7.650 -1.1629 -1.3779  0.1918
  508TIP3    H223160   3.405   1.420   7.558 -0.9083 -0.6070  0.3733
  509TIP3   OH223161   1.026   5.320   0.674 -0.0961 -0.6012 -0.0651
  509TIP3    H123162   0.949   5.373   0.659 -1.4905 -3.0249 -2.3784
  509TIP3    H223163   1.026   5.303   0.769 -3.3537 -1.7410 -0.1351
  510TIP3   OH223164   6.460   1.705   1.773  0.0988  0.4128 -0.4147
  510TIP3    H123165   6.416   1.751   1.845 -0.3347  1.1556 -1.1320
  510TIP3    H223166   6.453   1.765   1.699  1.2773  0.0132 -0.8625
  511TIP3   OH223167   0.708   5.365   8.442  0.7063  0.0976 -0.1541
  511TIP3    H123168   0.637   5.354   8.378  0.0289  0.2678  0.5556
  511TIP3    H223169   0.719   5.279   8.481 -0.9586  0.6379  1.6276
  512TIP3   OH223170   4.295   1.113   1.030  0.2474 -0.2504 -0.5536
  512TIP3    H123171   4.209   1.148   1.056  0.7754  0.4798  0.2685
  512TIP3    H223172   4.356   1.183   1.051  0.8773 -0.0721 -2.7081
  513TIP3   OH223173   0.315   5.843   1.333 -0.2831  0.1206 -0.2513
  513TIP3    H123174   0.406   5.864   1.312 -0.1064 -0.5075 -0.1141
  513TIP3    H223175   0.304   5.871   1.424  0.4645 -1.9307  0.5309
  514TIP3   OH223176   2.918   0.648   0.532 -0.3535 -0.1208  0.2116
  514TIP3    H123177   2.846   0.603   0.575  0.6499 -1.6357  0.3718
  514TIP3    H223178   2.890   0.660   0.442 -0.4785 -1.4833  0.0560
  515TIP3   OH223179   0.118   3.029   1.728 -0.0409 -0.2944 -0.5272
  515TIP3    H123180   0.157   3.110   1.694  0.4659 -0.1590  0.3500
  515TIP3    H223181   0.193   2.973   1.747 -0.2400 -0.0212  1.2210
  516TIP3   OH223182   4.197   1.920   0.570 -0.3768  0.1397  0.0957
  516TIP3    H123183   4.265   1.854   0.556  2.3215  2.8977 -0.9267
  516TIP3    H223184   4.138   1.880   0.634  0.6375 -3.4738 -0.9742
  517TIP3   OH223185   6.058   0.612   6.950 -0.0609 -0.0992  0.0336
  517TIP3    H123186   6.149   0.584   6.939  0.4446  0.8714  1.4992
  517TIP3    H223187   6.047   0.621   7.045 -1.9461 -1.0052 -0.0529
  518TIP3   OH223188   0.519   3.809   2.342 -0.2908 -0.1781 -0.0682
  518TIP3    H123189   0.535   3.877   2.408 -0.5123  0.3227 -0.5255
  518TIP3    H223190   0.555   3.729   2.381  3.7170  0.8679 -1.1378
  519TIP3   OH223191   4.172   3.441   7.563  0.0712  0.2038 -0.0001
  519TIP3    H123192   4.140   3.525   7.595  3.1861  1.4277  0.1939
  519TIP3    H223193   4.169   3.449   7.468 -3.0685 -0.9790 -0.1209
  520TIP3   OH223194   4.035   5.378   7.700 -0.4448  0.0980  0.1818
  520TIP3    H123195   4.051   5.449   7.762 -1.2837  0.8923 -0.4747
  520TIP3    H223196   3.942   5.358   7.710 -0.3464 -0.4964 -0.0628
  521TIP3   OH223197   4.218   6.430   7.211 -0.3785 -0.4354 -0.3049
  521TIP3    H123198   4.312   6.440   7.194 -0.1416 -0.4228  0.9773
  521TIP3    H223199   4.181   6.406   7.125  0.8529 -0.8799 -0.7350
  522TIP3   OH223200   2.957   4.541   7.003 -0.4552 -0.5904  0.6135
  522TIP3    H123201   2.989   4.458   6.967 -2.9365 -0.8128 -1.3081
  522TIP3    H223202   3.002   4.549   7.087  3.6596 -1.3659 -1.2442
  523TIP3   OH223203   1.731   5.342   1.653 -0.6023 -0.1761 -0.2952
  523TIP3    H123204   1.821   5.337   1.686  0.2130  0.9272 -2.1307
  523TIP3    H223205   1.742   5.367   1.561 -2.8086  0.0421 -0.5402
  524TIP3   OH223206   3.708   3.241   6.952  0.1986 -0.2421 -0.0262
  524TIP3    H123207   3.678   3.301   6.883  1.4043  0.8694  0.3827
  524TIP3    H223208   3.798   3.267   6.968 -0.6417  1.0674  3.5394
  525TIP3   OH223209   4.121   3.209   8.856 -0.2364 -0.2450 -0.2036
  525TIP3    H123210   4.186   3.168   8.913  0.7508  1.1335 -0.2804
  525TIP3    H223211   4.064   3.137   8.829  0.8211 -1.3724  0.4514
  526TIP3   OH223212   2.103   4.886   8.121 -0.2021  0.0667 -0.6680
  526TIP3    H123213   2.088   4.792   8.123 -0.1606 -0.0497  3.4920
  526TIP3    H223214   2.015   4.924   8.112 -0.4331 -0.4012 -0.4041
  527TIP3   OH223215   2.586   0.436   7.204  0.4562 -0.1958  0.0446
  527TIP3    H123216   2.648   0.505   7.181 -0.3795  0.2019 -1.1561
  527TIP3    H223217   2.534   0.424   7.124  0.7974 -2.4657  0.1098
  528TIP3   OH223218   0.958   4.432   0.623  0.1394  0.3233  0.0721
  528TIP3    H123219   0.950   4.512   0.676 -2.9113 -0.4485  0.9622
  528TIP3    H223220   0.951   4.462   0.533 -1.8075  1.0687  0.4173
  529TIP3   OH223221   4.550   4.756   8.933 -0.5846 -0.0600 -0.7514
  529TIP3    H123222   4.588   4.676   8.970  0.1451  1.3526  1.7349
  529TIP3    H223223   4.482   4.724   8.873  0.0885 -2.5288 -0.3238
  530TIP3   OH223224   5.876   1.463   1.546  0.1993  0.2302  0.1048
  530TIP3    H123225   5.871   1.394   1.611  2.0904 -2.3773 -2.2926
  530TIP3    H223226   5.937   1.527   1.583  0.9869 -1.0152  1.0181
  531TIP3   OH223227   1.786   6.723   8.958  0.0511 -0.4280  0.8429
  531TIP3    H123228   1.746   6.641   8.929  0.2383 -0.1360 -0.3114
  531TIP3    H223229   1.864   6.732   8.904 -0.8688  1.3349 -0.2804
  532TIP3   OH223230   5.607   5.122   1.486  0.5564  0.0929 -1.0377
  532TIP3    H123231   5.600   5.192   1.421 -0.8180  0.1105 -0.9168
  532TIP3    H223232   5.516   5.094   1.500  0.7988  0.1117  0.8961
  533TIP3   OH223233   0.318   1.192   6.927 -0.1713  0.1139 -0.7422
  533TIP3    H123234   0.359   1.123   6.875  0.5257  0.6548 -0.9130
  533TIP3    H223235   0.227   1.162   6.938  0.4007 -1.4286  0.1958
  534TIP3   OH223236   2.201   4.684   2.061 -0.1277  0.1145  0.4452
  534TIP3    H123237   2.280   4.707   2.012  2.1532 -0.2881  3.6256
  534TIP3    H223238   2.178   4.597   2.031  0.4815  0.3363 -0.6972
  535TIP3   OH223239   2.775   5.768   8.964  0.0049 -0.3231 -0.0983
  535TIP3    H123240   2.850   5.784   9.021  0.2304 -0.1104 -0.4514
  535TIP3    H223241   2.754   5.854   8.928  0.2175 -0.5500 -0.7709
  536TIP3   OH223242   3.508   6.289   1.283 -0.6985 -0.0987  0.1925
  536TIP3    H123243   3.474   6.202   1.263 -0.9853  0.1661 -0.5077
  536TIP3    H223244   3.465   6.347   1.220 -2.1986  0.9076  2.0567
  537TIP3   OH223245   6.455   4.655   8.548 -1.0560 -0.0774 -0.1956
  537TIP3    H123246   6.372   4.614   8.523 -1.5810  0.6330  0.3447
  537TIP3    H223247   6.485   4.697   8.468 -1.2809 -0.2222 -0.3595
  538TIP3   OH223248   0.955   5.008   1.739  0.0734 -0.3886 -0.2985
  538TIP3    H123249   0.932   4.915   1.729 -0.9729  0.1176 -4.4313
  538TIP3    H223250   1.044   5.015   1.705  0.0262  0.1681 -0.3154
  539TIP3   OH223251   2.073   3.693   7.021  0.6311 -0.3628 -0.2761
  539TIP3    H123252   2.137   3.675   6.953  0.0912  0.6855 -1.1071
  539TIP3    H223253   1.988   3.670   6.981  0.4566 -1.6741  0.7802
  540TIP3   OH223254   6.765   5.838   1.541  0.2448 -0.2083  0.6979
  540TIP3    H123255   6.739   5.808   1.628  1.4357 -2.4523  0.3613
  540TIP3    H223256   6.745   5.932   1.541 -5.4430 -1.0628  1.2435
  541TIP3   OH223257   4.583   0.725   8.827  0.1493  0.1058  0.0029
  541TIP3    H123258   4.524   0.667   8.875  2.6399 -0.8422  2.1372
  541TIP3    H223259   4.582   0.691   8.737 -1.9979 -0.2401  0.1076
  542TIP3   OH223260   2.230   5.968   7.570 -0.7507 -0.0675 -0.0915
  542TIP3    H123261   2.163   5.994   7.507 -0.4798  1.1370  0.0934
  542TIP3    H223262   2.197   6.001   7.654 -1.1627 -1.7499  0.4382
  543TIP3   OH223263   4.490   3.586   0.491 -0.3932 -0.1967 -0.1687
  543TIP3    H123264   4.501   3.550   0.579 -0.0627 -1.0596 -0.5440
  543TIP3    H223265   4.580   3.605   0.463 -0.4418 -0.5052 -0.5421
  544TIP3   OH223266   5.943   0.611   1.297  0.0749  0.0862 -0.2572
  544TIP3    H123267   5.949   0.621   1.392 -0.5083  3.9267 -0.4652
  544TIP3    H223268   5.850   0.594   1.281 -0.1177  1.0273 -0.1923
  545TIP3   OH223269   2.579   3.756   1.214  0.5001  0.2849  0.0014
  545TIP3    H123270   2.665   3.714   1.202  0.2107 -0.6573  1.0450
  545TIP3    H223271   2.561   3.746   1.307 -1.8678 -1.8456 -0.5626
  546TIP3   OH223272   3.615   2.159   6.074 -0.2582  0.4817 -0.3499
  546TIP3    H123273   3.533   2.153   6.025  1.0496 -1.1707 -2.4902
  546TIP3    H223274   3.660   2.234   6.036 -0.4347  0.9288  0.3076
  547TIP3   OH223275   3.558   5.492   7.609  0.7231  0.1453  0.3503
  547TIP3    H123276   3.473   5.528   7.585 -0.2591 -0.3645  2.7837
  547TIP3    H223277   3.543   5.398   7.619  1.2549  0.1936  1.8707
  548TIP3   OH223278   6.099   2.552   1.098  0.1180  0.1409 -0.1391
  548TIP3    H123279   6.121   2.461   1.077 -0.6375  0.1705 -1.0676
  548TIP3    H223280   6.027   2.545   1.161 -0.6947  0.0958 -1.0565
  549TIP3   OH223281   5.123   2.623   1.093 -0.1343  0.3423  0.1477
  549TIP3    H123282   5.075   2.676   1.157 -1.8352 -0.9541  0.0241
  549TIP3    H223283   5.164   2.554   1.146 -0.1266  0.2550  0.0279
  550TIP3   OH223284   5.616   3.190   8.390  0.6474  0.1435 -0.0723
  550TIP3    H123285   5.598   3.096   8.396  1.7338 -0.1316 -0.7599
  550TIP3    H223286   5.532   3.229   8.366 -0.6235 -0.2152  3.2927
  551TIP3   OH223287   2.428   6.735   7.052 -0.2675 -0.3259  0.0139
  551TIP3    H123288   2.505   6.789   7.070 -0.3420 -0.1867 -0.0842
  551TIP3    H223289   2.441   6.656   7.105 -0.8154  0.3639  1.2193
  552TIP3   OH223290   4.187   3.327   1.137  0.2927  0.2741  0.3585
  552TIP3    H123291   4.160   3.307   1.047 -1.0229 -0.4791  0.9015
  552TIP3    H223292   4.261   3.387   1.126  0.2527  0.0870 -1.2273
  553TIP3   OH223293   1.675   1.685   7.114 -0.0424  0.6148 -0.5573
  553TIP3    H123294   1.593   1.667   7.069 -0.3045  0.0187  0.1480
  553TIP3    H223295   1.653   1.755   7.176 -0.5462 -0.9339  1.0859
  554TIP3   OH223296   3.582   5.426   0.826 -0.3238 -0.2629  0.1558
  554TIP3    H123297   3.557   5.412   0.917 -0.7130 -0.0275  0.0853
  554TIP3    H223298   3.561   5.518   0.809  1.2625  0.1618  0.3147
  555TIP3   OH223299   3.569   0.380   8.228 -0.2396  0.4223 -0.1542
  555TIP3    H123300   3.561   0.409   8.319  1.0228  0.5244 -0.0490
  555TIP3    H223301   3.484   0.344   8.206 -0.4335  0.0033  1.2135
  556TIP3   OH223302   1.555   4.672   6.812  0.0317 -0.0194 -0.2456
  556TIP3    H123303   1.497   4.749   6.812  0.8699  0.6253 -0.7934
  556TIP3    H223304   1.623   4.694   6.748  1.9921  0.0823  1.7802
  557TIP3   OH223305   6.075   3.977   0.599  0.0424  0.0915 -0.2216
  557TIP3    H123306   5.984   4.004   0.608  0.9168  2.9460  0.9004
  557TIP3    H223307   6.075   3.885   0.626 -2.7607 -0.5966 -2.1077
  558TIP3   OH223308   3.688   0.681   1.233 -0.5598 -0.0373  0.0493
  558TIP3    H123309   3.727   0.645   1.154  0.1500  0.6660  0.0767
  558TIP3    H223310   3.667   0.604   1.286 -0.4414 -0.4799 -0.5384
  559TIP3   OH223311   3.580   6.580   6.942 -0.3874 -0.0926  0.6124
  559TIP3    H123312   3.642   6.591   6.870 -0.1223 -0.0513  0.8439
  559TIP3    H223313   3.613   6.506   6.991  0.7144  1.2300  1.9753
  560TIP3   OH223314   2.204   0.020   0.364 -0.4159 -0.4725  0.2891
  560TIP3    H123315   2.289   0.051   0.333 -0.2775  0.4157  1.4883
  560TIP3    H223316   2.140   0.060   0.304 -0.1429  1.0239  0.9467
  561TIP3   OH223317   1.221   4.587   7.619  0.0122 -0.1984  0.1469
  561TIP3    H123318   1.216   4.495   7.596  0.1957 -0.3172  0.5642
  561TIP3    H223319   1.315   4.603   7.635  0.5895  0.9597 -3.4904
  562TIP3   OH223320   1.790   6.045   0.293  0.2767  0.8375  0.0139
  562TIP3    H123321   1.882   6.037   0.268  0.1168  0.2758 -0.4236
  562TIP3    H223322   1.742   6.037   0.210 -0.2079  0.1271  0.3529
  563TIP3   OH223323   2.080   5.634   7.984 -0.2831  0.6522 -0.1140
  563TIP3    H123324   2.005   5.598   7.936 -0.5451 -0.0409  0.7793
  563TIP3    H223325   2.042   5.701   8.040  0.0135  1.4223 -0.8194
  564TIP3   OH223326   6.748   5.918   7.520 -0.0571  0.4857 -0.0855
  564TIP3    H123327   6.797   5.987   7.476  1.4034 -0.0176  0.6666
  564TIP3    H223328   6.777   5.922   7.611 -1.1794 -0.0628  0.3202
  565TIP3   OH223329   6.030   4.763   8.552  0.1131  0.1257 -1.2797
  565TIP3    H123330   5.989   4.725   8.630  0.1292 -3.6314 -2.8794
  565TIP3    H223331   6.109   4.806   8.585  0.9523 -2.6636  0.7182
  566TIP3   OH223332   2.903   5.855   7.080 -0.0781  0.4064 -0.6102
  566TIP3    H123333   2.822   5.868   7.128 -0.4545 -0.4003 -1.0069
  566TIP3    H223334   2.972   5.871   7.144 -0.5676 -1.1087  0.3462
  567TIP3   OH223335   2.995   1.698   7.847  0.5037  0.7682  0.0602
  567TIP3    H123336   2.976   1.791   7.839  0.5729  0.7420 -0.4653
  567TIP3    H223337   3.091   1.693   7.848  0.5084  0.6460 -0.6919
  568TIP3   OH223338   5.890   6.611   7.150 -0.1295 -0.1225 -0.0517
  568TIP3    H123339   5.898   6.535   7.092  0.6561  1.7789 -2.5686
  568TIP3    H223340   5.796   6.616   7.169 -0.4707 -0.5693 -1.5061
  569TIP3   OH223341   3.339   3.331   8.295  0.4011 -0.1511 -0.2692
  569TIP3    H123342   3.382   3.412   8.269 -1.4336  0.6861 -0.8148
  569TIP3    H223343   3.343   3.332   8.391  0.9488  0.2567 -0.2908
  570TIP3   OH223344   6.772   0.886   1.375  0.0640  0.2498 -0.4243
  570TIP3    H123345   6.752   0.798   1.405  0.0824  0.6929  0.9623
  570TIP3    H223346   6.863   0.881   1.345  0.6052  0.1587  1.1865
  571TIP3   OH223347   1.602   6.354   7.747 -0.0538  0.3084  0.1373
  571TIP3    H123348   1.570   6.299   7.819  0.8642  1.0014  1.1109
  571TIP3    H223349   1.531   6.352   7.682 -1.1717  0.1151  1.3107
  572TIP3   OH223350   4.837   0.571   1.430 -0.1157  0.2732  0.1840
  572TIP3    H123351   4.820   0.645   1.489  0.3547 -0.8599  1.8140
  572TIP3    H223352   4.865   0.611   1.348 -1.5425  1.9348  0.4508
  573TIP3   OH223353   1.283   3.602   8.796 -0.6095 -0.4608  0.3747
  573TIP3    H123354   1.370   3.580   8.762 -1.6375 -0.5285 -2.4522
  573TIP3    H223355   1.257   3.526   8.848  1.1066 -0.2949  1.5642
  574TIP3   OH223356   5.430   2.782   1.010  0.6268 -0.0706  0.5743
  574TIP3    H123357   5.412   2.688   1.008  2.2214 -0.3972  0.4373
  574TIP3    H223358   5.485   2.797   0.933 -0.1493  1.1032  0.2236
  575TIP3   OH223359   5.108   4.423   0.268 -0.2027  0.3539  0.6384
  575TIP3    H123360   5.201   4.414   0.289 -0.1471 -2.4627 -0.4408
  575TIP3    H223361   5.105   4.496   0.207  1.4120  0.0831  0.1812
  576TIP3   OH223362   5.744   3.009   1.406 -0.3024 -0.7285  0.9814
  576TIP3    H123363   5.690   2.961   1.344 -0.5249  1.5606 -0.7304
  576TIP3    H223364   5.681   3.053   1.463 -0.3420  1.4974 -0.6665
  577TIP3   OH223365   4.091   5.276   8.198  0.4070  0.6609  0.4683
  577TIP3    H123366   4.072   5.343   8.263 -0.9931  1.1547 -0.4100
  577TIP3    H223367   4.033   5.296   8.125  1.0619 -0.6063 -0.4409
  578TIP3   OH223368   1.446   5.364   8.255 -0.4578 -0.2903  0.7710
  578TIP3    H123369   1.537   5.378   8.230 -0.3951  0.1110  1.1968
  578TIP3    H223370   1.415   5.295   8.197  0.3951 -1.0954  1.2448
  579TIP3   OH223371   0.858   4.410   8.452  0.0096  0.4833 -0.2042
  579TIP3    H123372   0.895   4.478   8.508 -0.7094 -0.5596  1.6061
  579TIP3    H223373   0.798   4.458   8.394  3.2540  2.0887 -2.6242
  580TIP3   OH223374   1.794   2.099   7.202  0.0526 -0.1203 -0.6817
  580TIP3    H123375   1.781   2.155   7.126  0.5553  1.5344  0.4146
  580TIP3    H223376   1.767   2.152   7.277  1.7071 -0.8641  0.5186
  581TIP3   OH223377   4.184   4.428   7.166  0.3460 -0.1930  0.3205
  581TIP3    H123378   4.166   4.437   7.259  0.2735  2.0329  0.1345
  581TIP3    H223379   4.235   4.506   7.143 -1.8032  0.6844 -1.9884
  582TIP3   OH223380   5.341   0.419   1.622  0.1258  0.3059  0.2265
  582TIP3    H123381   5.289   0.489   1.663 -0.2833 -0.3631  0.8812
  582TIP3    H223382   5.326   0.429   1.528  0.1792  1.1779  0.3028
  583TIP3   OH223383   5.130   2.270   1.669 -0.2809 -0.1415  0.2935
  583TIP3    H123384   5.120   2.360   1.639  1.0780  0.0723  0.4073
  583TIP3    H223385   5.201   2.273   1.733 -2.5480 -0.7259  3.0273
  584TIP3   OH223386   4.852   2.128   7.766  0.5400 -0.0591 -0.0342
  584TIP3    H123387   4.776   2.177   7.798  0.2170 -1.3374  1.2347
  584TIP3    H223388   4.847   2.044   7.811  2.3550 -0.4084 -0.4309
  585TIP3   OH223389   3.231   5.220   8.179 -0.8815  0.5171  0.1922
  585TIP3    H123390   3.223   5.233   8.084  0.2301  0.7858  0.1237
  585TIP3    H223391   3.262   5.130   8.189  0.8634  1.0772  0.1794
  586TIP3   OH223392   0.249   5.553   6.808  0.2060  0.0660  0.1958
  586TIP3    H123393   0.236   5.495   6.734 -2.2917 -0.8612  1.2376
  586TIP3    H223394   0.314   5.509   6.863 -0.3696 -0.8925  0.1284
  587TIP3   OH223395   5.063   4.037   8.228  0.0664 -0.4344  0.3790
  587TIP3    H123396   5.053   4.066   8.137  1.2163 -2.2937 -0.3956
  587TIP3    H223397   5.037   4.113   8.280 -0.8490  0.6072 -1.4885
  588TIP3   OH223398   5.040   3.756   7.112 -0.1566 -0.4347 -0.2454
  588TIP3    H123399   5.028   3.679   7.057  0.6688  0.4065 -1.6566
  588TIP3    H223400   5.065   3.721   7.197  1.4976 -1.6964 -1.1979
  589TIP3   OH223401   0.447   3.790   8.291  0.5419 -0.1757  0.2072
  589TIP3    H123402   0.527   3.807   8.241 -0.2783  1.3504 -0.6410
  589TIP3    H223403   0.378   3.834   8.242 -0.3693  1.0776  2.4583
  590TIP3   OH223404   4.754   1.071   1.366  0.0036 -0.2647  0.2143
  590TIP3    H123405   4.661   1.094   1.374  0.1868  0.4574  0.2763
  590TIP3    H223406   4.784   1.060   1.456 -0.6326 -3.0860  0.1899
  591TIP3   OH223407   4.642   4.967   0.186  0.7350 -0.4523  0.4462
  591TIP3    H123408   4.682   4.920   0.113  0.6662 -0.3854  0.3651
  591TIP3    H223409   4.713   5.022   0.220 -0.1424  2.4520 -1.9857
  592TIP3   OH223410   2.312   1.087   8.972  0.0253 -0.3915  0.4176
  592TIP3    H123411   2.301   1.095   9.067  2.9165 -0.4456  0.8489
  592TIP3    H223412   2.365   1.008   8.961 -1.8196 -1.4809 -1.4384
  593TIP3   OH223413   4.819   0.970   8.902 -0.0115  0.1515  0.0316
  593TIP3    H123414   4.896   0.965   8.959  0.0268 -0.1827 -0.0449
  593TIP3    H223415   4.832   0.899   8.839 -0.8283 -0.4970  0.5765
  594TIP3   OH223416   5.936   2.505   1.663  0.6009  0.1614  0.2534
  594TIP3    H123417   5.927   2.484   1.755 -1.3297 -1.0149 -0.1469
  594TIP3    H223418   5.879   2.443   1.618  0.0825  1.8407 -1.5856
  595TIP3   OH223419   0.945   0.017   0.630 -0.1190 -0.2932  0.0920
  595TIP3    H123420   0.915  -0.006   0.719 -1.5537 -1.1369 -0.5767
  595TIP3    H223421   1.040   0.010   0.635 -0.2364 -1.8774  1.1925
  596TIP3   OH223422   3.468   5.576   8.372 -0.2263  0.3470  0.4268
  596TIP3    H123423   3.474   5.651   8.432 -1.7677 -0.7592  2.0898
  596TIP3    H223424   3.489   5.500   8.426 -0.5621 -0.6030 -0.7264
  597TIP3   OH223425   0.496   1.262   1.987  0.2737 -0.0221  0.4674
  597TIP3    H123426   0.502   1.334   1.925 -0.0328 -0.3746  0.0171
  597TIP3    H223427   0.586   1.243   2.012  0.2628  1.5856  1.8684
  598TIP3   OH223428   2.946   3.490   0.506 -0.6404  0.1371  0.1780
  598TIP3    H123429   3.011   3.493   0.576 -0.6366  2.6664  0.1512
  598TIP3    H223430   2.864   3.465   0.550 -0.4811  0.9392  0.9520
  599TIP3   OH223431   3.729   1.949   0.601  0.0431 -0.4897  0.0002
  599TIP3    H123432   3.634   1.941   0.611  0.0773 -0.8257  0.0780
  599TIP3    H223433   3.764   1.914   0.682  0.1778  1.8040  1.0051
  600TIP3   OH223434   5.908   5.129   7.614  0.0460  0.0832  0.6961
  600TIP3    H123435   5.818   5.097   7.611 -0.3031  0.9811  1.4094
  600TIP3    H223436   5.932   5.141   7.522  0.3238 -2.5427  0.3473
  601TIP3   OH223437   5.556   1.331   1.285  0.0349 -0.3007 -0.5448
  601TIP3    H123438   5.474   1.300   1.322 -0.5530  1.3234 -0.3692
  601TIP3    H223439   5.624   1.291   1.339 -0.6171 -1.7270 -0.7393
  602TIP3   OH223440   2.709   3.700   6.550 -0.1190  0.5513  0.1743
  602TIP3    H123441   2.788   3.646   6.545  0.2794  1.0208  1.1049
  602TIP3    H223442   2.637   3.638   6.540  0.3506 -0.0254  0.2926
  603TIP3   OH223443   0.290   0.198   1.371  0.1228 -0.6907  0.1316
  603TIP3    H123444   0.359   0.218   1.307  0.6446  0.5399  1.0280
  603TIP3    H223445   0.223   0.265   1.355 -0.2279 -1.0297  0.1744
  604TIP3   OH223446   3.847   0.237   0.813  0.0026 -0.1741  0.0863
  604TIP3    H123447   3.802   0.309   0.858 -0.3571  0.5738 -1.3986
  604TIP3    H223448   3.833   0.161   0.869  1.0609  1.0439  2.1287
  605TIP3   OH223449   1.935   0.832   8.654 -0.2039  0.3458  0.8906
  605TIP3    H123450   1.894   0.861   8.735 -1.1098  0.6454  0.3510
  605TIP3    H223451   2.029   0.840   8.669 -0.3847  2.8803  1.0319
  606TIP3   OH223452   2.822   4.388   0.189 -0.1357 -0.1001 -1.0443
  606TIP3    H123453   2.799   4.298   0.214  0.9220 -0.4287 -1.2025
  606TIP3    H223454   2.807   4.390   0.094 -0.0564 -0.1415 -1.0578
  607TIP3   OH223455   3.440   1.880   1.225 -0.3153 -0.4798  0.9229
  607TIP3    H123456   3.359   1.844   1.189  0.0549 -2.2579  1.8019
  607TIP3    H223457   3.427   1.881   1.319  0.8102 -1.1093  1.0982
  608TIP3   OH223458   0.537   4.587   8.906 -0.0865  0.0570  0.6472
  608TIP3    H123459   0.511   4.514   8.961  2.1021 -0.9116  0.5055
  608TIP3    H223460   0.622   4.562   8.870  0.2725  2.2323 -0.2439
  609TIP3   OH223461   5.596   4.103   2.612  0.1541  0.0676  0.1080
  609TIP3    H123462   5.567   4.164   2.544 -1.4888 -0.4161  0.3296
  609TIP3    H223463   5.567   4.017   2.582  1.6742 -0.5152  0.2192
  610TIP3   OH223464   0.002   0.293   0.383  0.4746 -0.0688 -0.3466
  610TIP3    H123465   0.092   0.261   0.390  0.1071 -1.5145 -1.6131
  610TIP3    H223466   0.008   0.374   0.332  1.0235 -0.3886 -0.7976
  611TIP3   OH223467   5.198   3.364   1.350 -0.1245  0.1239  0.6018
  611TIP3    H123468   5.124   3.308   1.326 -1.7866  1.6496  1.8310
  611TIP3    H223469   5.179   3.391   1.440  1.8395  0.7613  0.8796
  612TIP3   OH223470   3.462   2.360   2.152 -0.1831  0.5882 -0.5800
  612TIP3    H123471   3.483   2.432   2.211 -1.4141  0.4004  0.1454
  612TIP3    H223472   3.496   2.282   2.197  2.9588  0.8120 -2.2879
  613TIP3   OH223473   4.531   1.485   7.552 -0.3862  0.5584  0.2981
  613TIP3    H123474   4.494   1.404   7.518 -1.1982  1.2288 -0.4716
  613TIP3    H223475   4.549   1.538   7.474 -2.7496  2.3320  0.8233
  614TIP3   OH223476   4.805   1.889   0.820 -0.2271 -0.6258 -0.2304
  614TIP3    H123477   4.828   1.846   0.903  3.2677  0.2036 -0.6450
  614TIP3    H223478   4.778   1.817   0.763  0.5393 -1.6394  0.6467
  615TIP3   OH223479   1.562   6.064   8.429  0.4424  0.0144 -0.3742
  615TIP3    H123480   1.543   6.146   8.474  2.1002 -0.9474  2.3451
  615TIP3    H223481   1.656   6.069   8.410  0.2669 -0.6739 -1.5227
  616TIP3   OH223482   4.538   5.433   6.550  0.3757  0.3295  0.0461
  616TIP3    H123483   4.532   5.382   6.470  0.3478  1.7606 -0.9043
  616TIP3    H223484   4.625   5.415   6.585  1.5002  1.7945 -1.8257
  617TIP3   OH223485   2.920   4.203   6.583  0.2873 -0.4452  0.0238
  617TIP3    H123486   2.913   4.254   6.664 -0.2748  0.3652 -0.5205
  617TIP3    H223487   2.853   4.240   6.526 -0.5378 -2.1819 -0.1990
  618TIP3   OH223488   1.836   3.950   0.504 -0.5978  0.7746  0.0143
  618TIP3    H123489   1.905   4.009   0.536 -1.3466  1.0991  1.0925
  618TIP3    H223490   1.851   3.945   0.410  0.7209  1.0678  0.1786
  619TIP3   OH223491   4.863   1.266   1.186 -0.5286  0.6400 -0.4946
  619TIP3    H123492   4.860   1.241   1.278 -1.5494 -0.6426 -0.8579
  619TIP3    H223493   4.786   1.322   1.174 -1.1364 -0.2516 -0.8474
  620TIP3   OH223494   2.705   1.433   2.205 -0.2441 -0.1546 -0.3315
  620TIP3    H123495   2.701   1.513   2.258 -0.8034 -0.0019 -0.5892
  620TIP3    H223496   2.642   1.374   2.247 -0.8425  0.0418 -0.9355
  621TIP3   OH223497   2.782   2.140   6.971 -1.1127 -0.6654  0.0993
  621TIP3    H123498   2.769   2.084   6.895 -1.4796  0.8350 -0.9874
  621TIP3    H223499   2.761   2.228   6.940 -1.4030 -0.0267  1.9778
  622TIP3   OH223500   6.106   1.830   8.316 -0.6526 -0.3739 -0.2562
  622TIP3    H123501   6.161   1.907   8.328  0.7141 -1.6051  2.2560
  622TIP3    H223502   6.115   1.808   8.223  3.6800 -0.8159  0.0751
  623TIP3   OH223503   5.496   5.695   7.427  0.0554  0.0642  0.1867
  623TIP3    H123504   5.446   5.615   7.440 -1.4797  0.7574 -1.1778
  623TIP3    H223505   5.457   5.758   7.488 -1.6719  0.9550 -1.7066
  624TIP3   OH223506   6.235   0.450   0.003  0.0494 -0.3793 -0.3007
  624TIP3    H123507   6.257   0.446   0.096 -0.3507  0.3606 -0.1656
  624TIP3    H223508   6.287   0.380  -0.037 -0.3230 -1.1900  0.5809
  625TIP3   OH223509   3.018   3.371   1.063 -0.4365 -0.0599  0.5806
  625TIP3    H123510   3.032   3.391   1.155  0.6621  0.1724  0.3852
  625TIP3    H223511   2.944   3.425   1.036 -1.2804 -0.7186  1.5074
  626TIP3   OH223512   4.868   0.781   1.621  0.4075  0.5007  0.7519
  626TIP3    H123513   4.957   0.777   1.657 -0.1840 -0.4472  2.1930
  626TIP3    H223514   4.848   0.875   1.616  1.2380  0.7003  1.0598
  627TIP3   OH223515   4.679   1.991   8.001 -0.2657  0.3514  0.3557
  627TIP3    H123516   4.664   1.908   8.046  0.0731 -0.5482 -1.1380
  627TIP3    H223517   4.617   1.990   7.928 -1.1086  1.9783  0.9898
  628TIP3   OH223518   1.316   5.607   1.738 -0.3703  1.0566  0.4601
  628TIP3    H123519   1.363   5.524   1.740 -0.1520  1.1832  0.9242
  628TIP3    H223520   1.266   5.608   1.820 -0.1589  1.4985  0.5883
  629TIP3   OH223521   2.789   2.698   0.365  0.3908 -0.0252 -0.3587
  629TIP3    H123522   2.854   2.631   0.347 -0.1189 -0.2490 -1.4638
  629TIP3    H223523   2.707   2.661   0.333 -0.4965 -0.1313  1.8232
  630TIP3   OH223524   6.685   6.165   2.354  0.0478 -0.1981 -0.1775
  630TIP3    H123525   6.759   6.215   2.318  0.7160 -1.4794 -0.6732
  630TIP3    H223526   6.695   6.077   2.316 -3.0344  0.1320 -2.1281
  631TIP3   OH223527   0.304   0.524   1.904 -0.2800  0.2310 -0.6283
  631TIP3    H123528   0.274   0.436   1.926 -0.1425 -0.0377 -1.4847
  631TIP3    H223529   0.399   0.516   1.893 -0.0861  0.7509  0.5105
  632TIP3   OH223530   1.230   2.101   1.660 -0.2270 -0.3307 -0.1258
  632TIP3    H123531   1.182   2.024   1.692 -1.1715  0.7493  1.1734
  632TIP3    H223532   1.305   2.108   1.719 -0.7242  0.3453  0.4360
  633TIP3   OH223533   5.136   1.946   7.693  0.4961 -0.3551 -0.6903
  633TIP3    H123534   5.101   1.907   7.773  0.3675  0.8731 -0.1262
  633TIP3    H223535   5.085   1.906   7.622 -0.8606  0.1076 -0.0107
  634TIP3   OH223536   0.136   4.935   7.719  0.0446  0.0522  0.6487
  634TIP3    H123537   0.056   4.921   7.768 -0.3367 -0.2494 -0.0531
  634TIP3    H223538   0.144   5.030   7.712 -0.2754  0.0813  0.6833
  635TIP3   OH223539   5.582   2.302   1.635  0.2965  0.4165 -0.2172
  635TIP3    H123540   5.658   2.288   1.691 -0.1622  0.6607  0.4702
  635TIP3    H223541   5.619   2.313   1.547  1.0956  1.1324  0.1978
  636TIP3   OH223542   1.126   0.942   8.885 -0.5415 -0.0753 -0.3111
  636TIP3    H123543   1.138   1.031   8.919  0.1471  0.0778 -0.9302
  636TIP3    H223544   1.164   0.945   8.797 -1.4558 -0.7048 -0.7439
  637TIP3   OH223545   3.806   4.645   7.761 -0.3890 -0.0158  0.1686
  637TIP3    H123546   3.822   4.717   7.823  1.0372 -1.2486  1.3267
  637TIP3    H223547   3.729   4.600   7.796  0.1752 -0.4699  0.8605
  638TIP3   OH223548   4.821   1.202   8.047  0.6583 -0.1398  0.3767
  638TIP3    H123549   4.901   1.208   7.995  0.7753  2.0290  0.7249
  638TIP3    H223550   4.829   1.118   8.093  0.8549 -1.8504 -2.4844
  639TIP3   OH223551   3.055   5.459   8.141 -0.1901 -0.5744  0.5888
  639TIP3    H123552   3.104   5.386   8.104  1.4039  0.7264  0.0252
  639TIP3    H223553   3.047   5.438   8.234  1.2911 -0.9252  0.6648
  640TIP3   OH223554   0.897   0.426   8.584  0.6910 -0.0153 -0.0246
  640TIP3    H123555   0.881   0.332   8.586  1.7531 -0.2023  0.7239
  640TIP3    H223556   0.984   0.434   8.545  1.0543  0.5748  0.8732
  641TIP3   OH223557   5.170   6.719   0.191 -0.9821 -0.3521 -0.0852
  641TIP3    H123558   5.236   6.730   0.259  0.6968 -2.0600 -1.3351
  641TIP3    H223559   5.105   6.660   0.231  0.5133 -2.1968 -0.2025
  642TIP3   OH223560   2.878   1.551   6.987  0.4356 -0.1358  0.1529
  642TIP3    H123561   2.792   1.528   7.020  1.2218 -1.2033  1.5729
  642TIP3    H223562   2.861   1.618   6.920 -1.5023 -0.7201  0.0046
  643TIP3   OH223563   2.903   0.111   0.649 -0.1829 -0.1478  0.8065
  643TIP3    H123564   2.859   0.064   0.720  1.7581  0.5397  2.6118
  643TIP3    H223565   2.921   0.198   0.686 -0.4873  0.7927 -1.1313
  644TIP3   OH223566   2.597   0.421   8.887  0.2516  0.0866  0.2806
  644TIP3    H123567   2.678   0.463   8.916  0.3902 -0.4317  0.6654
  644TIP3    H223568   2.528   0.465   8.936  0.3105  0.4473  0.0423
  645TIP3   OH223569   5.412   5.448   7.523 -0.6193 -0.6390  0.5092
  645TIP3    H123570   5.507   5.437   7.529 -0.0968  2.5370 -0.1924
  645TIP3    H223571   5.383   5.447   7.614  0.4013  0.2832  0.8721
  646TIP3   OH223572   0.690   1.598   0.759 -0.3712 -0.4706  0.1895
  646TIP3    H123573   0.604   1.606   0.717  0.0921 -0.8873 -0.8678
  646TIP3    H223574   0.739   1.674   0.728 -0.3403 -0.2598  0.7532
  647TIP3   OH223575   5.561   0.860   2.211  0.0633 -0.1439 -0.4349
  647TIP3    H123576   5.618   0.919   2.262  1.8615 -1.1508 -1.1784
  647TIP3    H223577   5.526   0.799   2.275 -0.2847  0.5646  0.0604
  648TIP3   OH223578   3.476   5.909   7.789 -0.0819 -0.0167 -0.2406
  648TIP3    H123579   3.501   5.828   7.834 -0.2421 -0.6032 -1.1687
  648TIP3    H223580   3.480   5.977   7.856  0.5525 -0.7115  0.4371
  649TIP3   OH223581   2.885   4.131   1.602 -0.3022 -0.1169  0.1149
  649TIP3    H123582   2.806   4.149   1.551 -0.1821  0.0934  0.0026
  649TIP3    H223583   2.903   4.038   1.586 -0.8465 -0.3118  0.5905
  650TIP3   OH223584   1.141   4.278   7.923  0.0319  0.0131 -0.0257
  650TIP3    H123585   1.184   4.288   7.838 -0.8874  0.0618 -0.4898
  650TIP3    H223586   1.148   4.184   7.942  0.7676  0.0944  0.1371
  651TIP3   OH223587   5.874   4.581   8.748  0.3338  0.1421  0.2316
  651TIP3    H123588   5.793   4.574   8.798 -0.4945 -0.6643 -1.1308
  651TIP3    H223589   5.939   4.533   8.799 -0.1386  0.4657  1.1556
  652TIP3   OH223590   0.741   1.097   8.402 -0.1960  0.1225 -0.1506
  652TIP3    H123591   0.706   1.149   8.329 -1.2446 -0.0597  0.2084
  652TIP3    H223592   0.792   1.028   8.359 -2.2972 -1.1101 -0.8660
  653TIP3   OH223593   5.673   2.235   7.356  0.5910 -0.2000 -0.2805
  653TIP3    H123594   5.713   2.183   7.287  0.0024 -1.0115 -0.0198
  653TIP3    H223595   5.635   2.171   7.416 -1.5461  0.5291 -0.7616
  654TIP3   OH223596   2.700   1.156   6.782  1.2467  0.3565  0.3976
  654TIP3    H123597   2.694   1.234   6.727 -3.8345  0.3853  0.5105
  654TIP3    H223598   2.700   1.189   6.872 -0.6396  0.3454  0.4406
  655TIP3   OH223599   1.702   5.453   8.099 -0.0609 -0.2658 -0.9321
  655TIP3    H123600   1.750   5.377   8.065 -1.2188 -1.4959  0.0858
  655TIP3    H223601   1.770   5.509   8.138  1.0074  0.0515 -3.0927
  656TIP3   OH223602   6.159   1.130   2.593  0.3561  0.1686 -0.1333
  656TIP3    H123603   6.139   1.217   2.559  1.4633  0.4364 -0.1341
  656TIP3    H223604   6.255   1.123   2.587  0.5110 -0.1540  1.9803
  657TIP3   OH223605   0.730   4.672   1.255  0.5006  0.0724 -0.4234
  657TIP3    H123606   0.810   4.707   1.296  1.2183 -1.5693 -0.3520
  657TIP3    H223607   0.659   4.711   1.305  1.3270 -1.7062  2.3697
  658TIP3   OH223608   0.294   5.960   2.397  0.0143 -0.5038  0.0133
  658TIP3    H123609   0.270   6.029   2.335 -1.4472 -1.0713 -0.0999
  658TIP3    H223610   0.304   6.006   2.481  0.6526  0.0624 -0.3622
  659TIP3   OH223611   4.939   1.419   0.590 -0.5843  0.3997  0.5095
  659TIP3    H123612   4.947   1.358   0.516  2.8586  0.1853  0.8766
  659TIP3    H223613   4.870   1.480   0.564 -0.0947 -0.1683 -2.5297
  660TIP3   OH223614   6.651   3.983   8.374 -0.4963  0.1431  0.8708
  660TIP3    H123615   6.629   4.076   8.376  1.8040  0.9377 -2.1940
  660TIP3    H223616   6.729   3.975   8.430  1.4007  0.9310 -1.4522
  661TIP3   OH223617   3.395   2.519   7.023 -0.6427  0.1085  0.2145
  661TIP3    H123618   3.362   2.606   7.043  1.2435  0.5972  1.4500
  661TIP3    H223619   3.376   2.506   6.930 -0.1842  2.1923 -0.2090
  662TIP3   OH223620   0.848   4.248   1.087 -0.3470 -0.2703  0.1477
  662TIP3    H123621   0.882   4.240   0.998  1.4561 -2.8569  0.9416
  662TIP3    H223622   0.922   4.281   1.138 -1.2358  0.8063  0.7770
  663TIP3   OH223623   4.932   0.549   7.951 -0.0500 -0.1719 -0.1247
  663TIP3    H123624   5.020   0.510   7.958  0.8799  1.5174 -1.5328
  663TIP3    H223625   4.883   0.488   7.895  0.7202 -0.3915 -0.5773
  664TIP3   OH223626   5.762   1.977   1.803 -0.0838  0.2781  0.6083
  664TIP3    H123627   5.671   2.007   1.796 -0.7116 -1.5689  0.0842
  664TIP3    H223628   5.757   1.901   1.861  0.7712 -1.0140 -0.9178
  665TIP3   OH223629   0.022   5.590   8.117 -0.5157  0.0272 -0.4034
  665TIP3    H123630   0.030   5.667   8.060  0.1967 -0.2444 -0.6817
  665TIP3    H223631  -0.060   5.549   8.091 -0.7210  0.4924 -0.5040
  666TIP3   OH223632   1.718   5.768   8.008  0.6067 -0.2961  0.2889
  666TIP3    H123633   1.796   5.768   7.952  0.7069 -1.4376  0.3951
  666TIP3    H223634   1.681   5.680   7.997 -1.1635  0.4874 -0.4079
  667TIP3   OH223635   1.311   5.375   0.557  0.0713  0.6568 -0.1427
  667TIP3    H123636   1.243   5.377   0.625  1.2034 -0.9445  1.1303
  667TIP3    H223637   1.373   5.443   0.584 -0.0479  0.7888 -0.2014
  668TIP3   OH223638   5.788   5.881   1.484 -0.1847 -0.7045  0.2908
  668TIP3    H123639   5.873   5.837   1.483 -0.1126 -0.5629  0.1998
  668TIP3    H223640   5.725   5.811   1.503  0.0270 -0.6838  1.0929
  669TIP3   OH223641   0.823   5.094   1.477  0.4787 -0.0088  0.3524
  669TIP3    H123642   0.848   5.100   1.569 -1.7786 -0.2460  1.0279
  669TIP3    H223643   0.800   5.001   1.465 -0.3771  0.2535 -0.1110
  670TIP3   OH223644   4.030   3.820   8.244  0.1295 -0.1293  0.2544
  670TIP3    H123645   3.950   3.844   8.197 -1.1755 -2.5163  1.0740
  670TIP3    H223646   4.065   3.903   8.275 -2.1126  1.0044 -0.0200
  671TIP3   OH223647   1.883   4.560   1.149 -0.5961  0.3898  0.2915
  671TIP3    H123648   1.909   4.601   1.232 -1.3741 -1.1583  1.3559
  671TIP3    H223649   1.900   4.627   1.083  2.2353  0.8938  1.3756
  672TIP3   OH223650   2.361   0.203   1.381 -0.1439 -0.1984  0.2885
  672TIP3    H123651   2.301   0.201   1.456  0.0238 -0.4401  0.4162
  672TIP3    H223652   2.417   0.279   1.398 -0.7452  0.3525 -0.0963
  673TIP3   OH223653   2.915   2.579   1.119 -0.0001 -0.1347 -0.3616
  673TIP3    H123654   2.909   2.486   1.095 -1.4634 -0.0751 -0.3098
  673TIP3    H223655   2.888   2.582   1.210 -0.9793  0.4597 -0.6577
  674TIP3   OH223656   4.382   3.866   8.635 -0.5816 -0.0812 -0.5175
  674TIP3    H123657   4.402   3.842   8.545  0.6364 -0.1269 -0.2488
  674TIP3    H223658   4.286   3.859   8.641 -0.9761  2.3709 -2.4741
  675TIP3   OH223659   4.077   2.475   7.844  0.1576  0.1456 -0.1457
  675TIP3    H123660   4.000   2.450   7.792  1.1758 -2.2830 -0.6046
  675TIP3    H223661   4.128   2.531   7.786  0.6405 -1.4727 -1.3600
  676TIP3   OH223662   6.296   0.974   0.044 -0.4519 -0.4167  1.0284
  676TIP3    H123663   6.265   1.049  -0.006  1.4679  1.6861  2.7179
  676TIP3    H223664   6.308   0.904  -0.020 -0.7032  1.2481 -0.9144
  677TIP3   OH223665   3.123   2.206   8.363 -0.3019 -0.5288  0.1710
  677TIP3    H123666   3.095   2.259   8.438 -3.2384  0.3194 -1.3386
  677TIP3    H223667   3.211   2.236   8.342 -1.1180  2.4053  0.6078
  678TIP3   OH223668   3.538   3.143   8.218 -0.1729  0.2884 -0.0850
  678TIP3    H123669   3.579   3.168   8.135 -0.5199 -0.1881 -0.4120
  678TIP3    H223670   3.476   3.213   8.237 -0.2935  0.2608 -0.3758
  679TIP3   OH223671   6.411   4.062   0.003  0.6991 -0.3807 -0.2278
  679TIP3    H123672   6.482   4.108  -0.041  0.6529 -0.2119 -0.1268
  679TIP3    H223673   6.422   3.970  -0.023  2.0751 -0.6785  1.2444
  680TIP3   OH223674   0.574   6.287   1.317  0.6643 -0.0472 -0.1183
  680TIP3    H123675   0.551   6.210   1.370  1.3570  0.9784  1.7639
  680TIP3    H223676   0.506   6.291   1.251 -0.1608 -1.4966  0.5809
  681TIP3   OH223677   3.450   1.283   0.658 -0.2616  0.0745  0.0805
  681TIP3    H123678   3.481   1.204   0.614  1.3179  0.3165  0.7192
  681TIP3    H223679   3.529   1.324   0.694 -1.1876  1.3314  0.7675
  682TIP3   OH223680   1.026   5.812   8.543  0.0293 -0.0920  0.1855
  682TIP3    H123681   0.986   5.749   8.482 -0.2458 -0.5660  0.8457
  682TIP3    H223682   1.087   5.862   8.489  0.0897 -0.7789 -0.3966
  683TIP3   OH223683   2.481   6.696   6.458  0.3026 -0.2115 -0.0831
  683TIP3    H123684   2.494   6.601   6.459  0.3842 -0.2536 -2.2363
  683TIP3    H223685   2.392   6.708   6.490  0.5246 -0.9363  0.8861
  684TIP3   OH223686   4.505   4.236   1.895  0.5228 -0.5941 -0.6038
  684TIP3    H123687   4.506   4.175   1.969  0.5227 -0.7298 -0.7172
  684TIP3    H223688   4.590   4.279   1.899  0.0402  0.3482  0.2733
  685TIP3   OH223689   3.666   2.633   7.144  0.2576 -0.1356 -0.3648
  685TIP3    H123690   3.739   2.611   7.085  0.1727 -3.4611  0.5631
  685TIP3    H223691   3.589   2.597   7.101 -0.2610 -0.0019  0.4475
  686TIP3   OH223692   1.124   3.206   0.311 -0.4835  0.0981 -0.0397
  686TIP3    H123693   1.176   3.242   0.382 -0.3367  0.8273 -0.5068
  686TIP3    H223694   1.034   3.227   0.334 -0.4865 -0.2096  0.2335
  687TIP3   OH223695   6.617   1.513   8.458  0.3350  1.1510 -0.1991
  687TIP3    H123696   6.575   1.471   8.533  0.5976  1.1675 -0.0390
  687TIP3    H223697   6.701   1.543   8.492  1.1648 -0.2726 -0.9046
  688TIP3   OH223698   4.380   5.084   1.872 -0.1684  0.1704 -0.0752
  688TIP3    H123699   4.390   5.179   1.877 -0.0894  0.1659 -0.1675
  688TIP3    H223700   4.362   5.058   1.962 -2.7533  0.5723 -0.4010
  689TIP3   OH223701   5.121   5.434   0.114 -0.1350 -0.0717 -0.2774
  689TIP3    H123702   5.040   5.385   0.104 -0.3504  0.3395 -0.5328
  689TIP3    H223703   5.188   5.379   0.073 -0.3354 -0.2568 -0.3550
  690TIP3   OH223704   5.002   5.090   7.380 -0.0447 -0.0023  0.1092
  690TIP3    H123705   5.023   5.060   7.469 -0.0342  0.4747  0.2704
  690TIP3    H223706   5.086   5.115   7.342 -0.1898  1.0361  0.4325
  691TIP3   OH223707   1.082   5.954   7.651 -0.4576 -0.0073 -0.6878
  691TIP3    H123708   1.107   6.012   7.723 -1.3066  0.8212 -1.0432
  691TIP3    H223709   1.144   5.881   7.657 -0.7110 -0.1358  1.0759
  692TIP3   OH223710   0.169   3.645   0.215  0.3933 -0.1737  0.1036
  692TIP3    H123711   0.121   3.658   0.133 -1.2952 -1.2518  0.8636
  692TIP3    H223712   0.208   3.730   0.233 -0.3663  0.4663 -1.0931
  693TIP3   OH223713   6.426   2.729   8.357 -0.1477 -0.3645  0.5494
  693TIP3    H123714   6.403   2.670   8.284  0.4745 -0.5097  0.4696
  693TIP3    H223715   6.358   2.796   8.355  0.4916  0.2957 -0.9135
  694TIP3   OH223716   4.325   2.653   0.114 -0.2118  0.2680 -0.6884
  694TIP3    H123717   4.284   2.726   0.162 -0.7868 -0.8266  0.5647
  694TIP3    H223718   4.319   2.579   0.175  2.6520 -0.2355 -0.9113
  695TIP3   OH223719   4.209   4.778   0.483 -0.1508 -0.2400  0.1233
  695TIP3    H123720   4.231   4.848   0.421  1.2807  0.6774  1.5772
  695TIP3    H223721   4.196   4.700   0.428 -0.0812  0.7740 -1.4015
  696TIP3   OH223722   5.500   3.761   8.039  0.3770  0.3141 -0.1285
  696TIP3    H123723   5.435   3.799   8.097 -0.9374 -1.5871 -0.2727
  696TIP3    H223724   5.479   3.796   7.952 -1.7494 -1.7274 -0.5245
  697TIP3   OH223725   0.514   1.596   1.030 -0.0067 -0.2728  0.2768
  697TIP3    H123726   0.435   1.586   1.083  0.3062  0.3891  0.8943
  697TIP3    H223727   0.548   1.507   1.020 -0.1241 -0.4230  1.1197
  698TIP3   OH223728   5.641   4.802   8.554  0.5230 -1.1023  0.2012
  698TIP3    H123729   5.704   4.770   8.491  1.0347 -0.1714  0.2291
  698TIP3    H223730   5.555   4.779   8.517  0.8054 -0.2455 -0.9956
  699TIP3   OH223731   6.656   3.386   1.628 -0.4992  0.2669 -0.6516
  699TIP3    H123732   6.702   3.468   1.646 -0.8723  0.4615 -0.5736
  699TIP3    H223733   6.664   3.374   1.533  0.8162 -0.3691 -0.4760
  700TIP3   OH223734   2.913   3.109   8.004  0.1164  0.1671 -0.4441
  700TIP3    H123735   2.993   3.135   8.049  0.8210 -0.9104 -1.0236
  700TIP3    H223736   2.850   3.179   8.022  0.4813 -0.0328  1.8616
  701TIP3   OH223737   6.722   1.101   0.033 -0.3865 -0.2710 -0.3123
  701TIP3    H123738   6.686   1.024  -0.012 -1.5854 -0.7544  1.3818
  701TIP3    H223739   6.645   1.147   0.066  0.4229 -0.8831  2.7032
  702TIP3   OH223740   0.515   3.827   2.082 -0.7020 -0.2074  0.6701
  702TIP3    H123741   0.514   3.839   2.177 -1.0391 -0.2328  0.6725
  702TIP3    H223742   0.463   3.748   2.068 -2.4916  0.9650  0.3194
  703TIP3   OH223743   4.874   0.456   7.083  0.1637 -0.1841  0.5826
  703TIP3    H123744   4.812   0.389   7.055  0.0836  0.0897  0.0894
  703TIP3    H223745   4.939   0.408   7.134  1.5699 -1.1300 -1.9002
  704TIP3   OH223746   5.157   2.837   8.008  0.3383  0.4576 -0.1669
  704TIP3    H123747   5.138   2.753   8.048  0.4994  0.2038 -0.6156
  704TIP3    H223748   5.071   2.871   7.982  0.3108  0.2330 -0.3748
  705TIP3   OH223749   1.779   2.129   0.535 -0.5133 -0.0229  0.3359
  705TIP3    H123750   1.855   2.102   0.484 -2.0074  0.2409 -2.1782
  705TIP3    H223751   1.812   2.197   0.594  1.0953  0.4332 -1.0372
  706TIP3   OH223752   5.577   5.392   1.608  0.1896 -0.3632 -0.4873
  706TIP3    H123753   5.639   5.337   1.655  0.6864  0.3316 -0.3144
  706TIP3    H223754   5.494   5.344   1.612  0.3190 -0.5097  0.7393
  707TIP3   OH223755   6.205   5.260   8.539  0.7164 -0.2280  0.8874
  707TIP3    H123756   6.187   5.352   8.518  0.9138 -0.7244 -1.8159
  707TIP3    H223757   6.285   5.264   8.592 -0.0482  1.2000  2.0264
  708TIP3   OH223758   0.659   1.694   7.715  0.0991 -0.4834  0.0335
  708TIP3    H123759   0.692   1.772   7.670  0.0464 -0.1652  0.5474
  708TIP3    H223760   0.631   1.637   7.644  1.8385 -0.8192 -0.4449
  709TIP3   OH223761   1.748   5.316   0.583  0.0382 -0.3100  0.3270
  709TIP3    H123762   1.718   5.248   0.523 -1.5083 -0.6670  1.4444
  709TIP3    H223763   1.836   5.288   0.609  0.0454 -1.0388 -0.4423
  710TIP3   OH223764   0.317   2.993   8.377  0.0930  0.0629  0.4987
  710TIP3    H123765   0.356   3.080   8.390 -1.5393  0.6382  2.0585
  710TIP3    H223766   0.283   2.996   8.287 -0.1027  1.1147  0.5877
  711TIP3   OH223767   5.087   5.649   8.463  0.1060 -0.3707 -0.1437
  711TIP3    H123768   5.173   5.643   8.503  0.5125  0.7637 -0.7822
  711TIP3    H223769   5.028   5.602   8.522  0.7249  0.9522  1.6023
  712TIP3   OH223770   6.276   6.262   0.354 -0.5692 -0.1531  0.2286
  712TIP3    H123771   6.349   6.252   0.294  0.2935  0.2719  1.1846
  712TIP3    H223772   6.205   6.212   0.314  0.1799 -0.4190 -0.8033
  713TIP3   OH223773   2.782   6.174   1.211 -0.0190 -0.4487 -0.2041
  713TIP3    H123774   2.728   6.253   1.199 -2.1407 -1.0757  3.5827
  713TIP3    H223775   2.863   6.206   1.251  0.0205 -0.0320 -0.6063
  714TIP3   OH223776   3.865   5.329   0.486  0.1106 -0.3544  0.5029
  714TIP3    H123777   3.817   5.403   0.448 -0.4314 -0.2249  1.4151
  714TIP3    H223778   3.957   5.355   0.483 -0.0516  0.2212  0.5290
  715TIP3   OH223779   2.878   0.120   8.083 -0.3553  0.1340 -0.8358
  715TIP3    H123780   2.915   0.036   8.111  0.4483  0.1671 -1.7290
  715TIP3    H223781   2.951   0.182   8.094 -1.2480  0.9678  0.8564
  716TIP3   OH223782   3.193   5.515   7.802 -0.9840  0.0827 -0.4493
  716TIP3    H123783   3.233   5.589   7.848 -0.0037 -0.9205  0.3759
  716TIP3    H223784   3.234   5.516   7.715  0.4622 -0.5939  0.1994
  717TIP3   OH223785   6.080   2.064   2.128 -0.0830 -0.4011 -0.6399
  717TIP3    H123786   6.174   2.049   2.120 -0.0010 -0.2825  0.0530
  717TIP3    H223787   6.072   2.158   2.144 -0.2042 -0.6486  0.8875
  718TIP3   OH223788   5.976   3.911   8.862 -0.3180  0.5274 -0.2383
  718TIP3    H123789   6.024   3.990   8.886  0.8730  0.1982 -1.4137
  718TIP3    H223790   6.004   3.846   8.926 -3.3075  1.5980  2.4504
  719TIP3   OH223791   0.241   2.924   0.575 -0.0540  0.1813  0.5901
  719TIP3    H123792   0.200   3.011   0.567 -0.2344  0.0291 -0.2567
  719TIP3    H223793   0.180   2.875   0.630  0.0616  0.5941  1.1001
  720TIP3   OH223794   5.877   6.049   7.485 -0.3656  0.3377  0.3300
  720TIP3    H123795   5.840   5.966   7.514 -2.0398  0.9791  0.1517
  720TIP3    H223796   5.940   6.073   7.553 -0.8451 -0.4265  1.0544
  721TIP3   OH223797   5.295   5.010   7.973  0.1732  0.6209  0.1681
  721TIP3    H123798   5.276   4.916   7.974 -2.0337  1.0209  0.1622
  721TIP3    H223799   5.211   5.052   7.957  1.2932  2.5822 -1.0623
  722TIP3   OH223800   1.953   6.053   1.612 -0.2554 -0.7365 -0.4967
  722TIP3    H123801   2.015   6.086   1.677 -1.8173  2.7078 -0.5036
  722TIP3    H223802   2.004   6.047   1.532  0.4376  0.6940 -0.2086
  723TIP3   OH223803   3.249   5.091   0.048  0.0852  0.1784  0.4968
  723TIP3    H123804   3.340   5.066   0.066  0.6458  1.2670 -0.6895
  723TIP3    H223805   3.248   5.186   0.059 -0.5607  0.3533 -0.8731
  724TIP3   OH223806   1.006   5.854   0.066  0.9075 -0.6371 -0.4213
  724TIP3    H123807   1.000   5.840  -0.028  0.9375  0.0263 -0.5241
  724TIP3    H223808   1.033   5.945   0.076 -0.0600 -0.4013  0.2420
  725TIP3   OH223809   2.415   2.043   0.461 -0.1583  0.1803 -0.0043
  725TIP3    H123810   2.493   2.032   0.406  0.0657  0.4889  0.2472
  725TIP3    H223811   2.450   2.045   0.551 -0.4156  0.7145  0.0863
  726TIP3   OH223812   1.923   1.180   1.270  0.0686  0.0586  0.0777
  726TIP3    H123813   1.957   1.176   1.181  0.2254  0.9190  0.0888
  726TIP3    H223814   1.888   1.269   1.278 -0.3424 -0.1600  0.7272
  727TIP3   OH223815   1.005   4.262   0.838 -0.1592  0.2214 -0.5880
  727TIP3    H123816   0.947   4.331   0.805  0.8492  2.0115  1.1392
  727TIP3    H223817   0.977   4.183   0.792 -1.6506  1.6755 -2.3663
  728TIP3   OH223818   4.345   0.112   0.020  0.1343  0.3162 -0.0527
  728TIP3    H123819   4.391   0.155  -0.052  2.0383  0.6497  1.2889
  728TIP3    H223820   4.330   0.182   0.084  0.1573 -0.3264  0.6634
  729TIP3   OH223821   3.966   1.897   0.410 -0.0577  0.9352  0.4308
  729TIP3    H123822   4.055   1.922   0.435 -0.1229  0.5140  1.0860
  729TIP3    H223823   3.918   1.889   0.492 -0.6728  1.0232  0.0919
  730TIP3   OH223824   4.703   6.667   0.984  0.0362  0.3135 -0.3555
  730TIP3    H123825   4.713   6.586   1.035 -0.7321  0.0898 -0.5351
  730TIP3    H223826   4.640   6.719   1.033  0.3030  0.6768 -0.3944
  731TIP3   OH223827   1.027   2.087   0.270 -0.1493 -0.2520  0.2305
  731TIP3    H123828   1.104   2.042   0.237 -0.2733 -0.3233  0.0387
  731TIP3    H223829   1.048   2.180   0.262 -0.0546 -0.2723  0.2466
  732TIP3   OH223830   4.102   1.535   6.824 -0.5592  0.1657 -0.3639
  732TIP3    H123831   4.017   1.546   6.782 -0.5860  2.3150  0.1085
  732TIP3    H223832   4.088   1.565   6.914  0.4057 -0.6386  0.0718
  733TIP3   OH223833   0.434   0.953   7.738 -0.3613  0.4287  0.1109
  733TIP3    H123834   0.442   1.027   7.798 -0.4896  0.1478  0.4813
  733TIP3    H223835   0.518   0.907   7.747 -0.9777 -0.5316  1.3234
  734TIP3   OH223836   0.289   4.177   1.854  0.5357 -0.4002  0.0243
  734TIP3    H123837   0.336   4.098   1.828 -3.0513 -2.4311 -0.9875
  734TIP3    H223838   0.300   4.181   1.949  0.8524 -2.0804  0.0867
  735TIP3   OH223839   0.050   6.226   0.889  0.3183 -0.7093  0.0758
  735TIP3    H123840   0.142   6.232   0.861  0.4420 -1.6956  0.2263
  735TIP3    H223841   0.000   6.223   0.807  0.3458  0.5366 -0.0117
  736TIP3   OH223842   6.212   4.922   2.209  0.1672 -0.2276 -0.3495
  736TIP3    H123843   6.217   4.894   2.118  1.4183 -1.6293  0.1079
  736TIP3    H223844   6.233   4.844   2.260 -2.1330  0.0996  1.2398
  737TIP3   OH223845   3.924   6.695   0.619 -0.0102  0.8489 -0.2591
  737TIP3    H123846   3.905   6.763   0.555 -2.1300  0.0297 -0.5954
  737TIP3    H223847   3.838   6.665   0.649  0.8683 -0.7908  0.8204
  738TIP3   OH223848   6.251   5.390   0.990 -0.1442 -0.1231  1.0928
  738TIP3    H123849   6.344   5.411   1.005  0.5014 -2.8407  1.5113
  738TIP3    H223850   6.237   5.310   1.041 -2.3862 -0.4993 -0.0153
  739TIP3   OH223851   0.313   4.492   0.431  0.4571 -0.1310 -0.0251
  739TIP3    H123852   0.336   4.477   0.522  0.1255  0.9883  0.2590
  739TIP3    H223853   0.236   4.549   0.435 -1.9004 -3.0348 -0.9495
  740TIP3   OH223854   0.574   1.991   1.569 -0.1321  0.1265 -0.4088
  740TIP3    H123855   0.529   2.072   1.547 -0.1684  0.2460  0.0938
  740TIP3    H223856   0.554   1.977   1.662 -0.3498 -0.5919 -0.5523
  741TIP3   OH223857   1.169   3.597   7.116 -0.2730 -0.1126  0.8218
  741TIP3    H123858   1.173   3.691   7.131 -1.7962  0.3661 -1.3381
  741TIP3    H223859   1.175   3.587   7.021  1.4852 -2.3421  1.0700
  742TIP3   OH223860   5.100   4.430   2.879 -0.5348  0.0848 -0.3652
  742TIP3    H123861   5.017   4.433   2.831  0.9630 -2.0018 -3.4443
  742TIP3    H223862   5.149   4.504   2.846 -0.8224  0.8348  0.8390
  743TIP3   OH223863   0.958   5.399   1.471 -0.1230 -0.0484  0.2280
  743TIP3    H123864   0.886   5.441   1.518 -0.5972 -1.0329  0.4174
  743TIP3    H223865   1.022   5.378   1.539  0.5605  1.2218 -0.0009
  744TIP3   OH223866   2.920   4.894   7.081  0.3656 -0.5933 -0.0305
  744TIP3    H123867   3.012   4.881   7.103 -0.0159 -0.7458  1.5504
  744TIP3    H223868   2.899   4.820   7.023  1.2607 -0.4573 -0.5572
  745TIP3   OH223869   4.158   3.299   0.429 -0.1165 -0.5965  0.1877
  745TIP3    H123870   4.089   3.363   0.410  0.6964  0.4727  0.7489
  745TIP3    H223871   4.111   3.217   0.441 -1.2860  0.0775  0.4384
  746TIP3   OH223872   0.733   2.694   1.123  0.0665  0.5353  0.2436
  746TIP3    H123873   0.664   2.679   1.058 -0.2560  2.9874 -0.0882
  746TIP3    H223874   0.698   2.764   1.178  1.7728  0.9360  0.8704
  747TIP3   OH223875   5.145   2.073   8.390 -0.1657  0.1266  0.1481
  747TIP3    H123876   5.098   2.097   8.470  0.3240 -1.2347  0.8649
  747TIP3    H223877   5.230   2.114   8.398 -0.5512  1.0450 -0.2880
  748TIP3   OH223878   5.553   3.495   0.816 -0.1469 -0.8152  0.1572
  748TIP3    H123879   5.483   3.539   0.866  0.1548 -1.3574  1.0919
  748TIP3    H223880   5.627   3.491   0.877  1.5314  1.7730 -1.5297
  749TIP3   OH223881   1.436   1.609   7.330 -0.7026 -0.3715  0.5017
  749TIP3    H123882   1.467   1.531   7.284  0.3110  0.1715  0.2296
  749TIP3    H223883   1.416   1.672   7.260  1.4870  0.7011  0.7504
  750TIP3   OH223884   4.038   5.311   6.673 -0.5237  0.3561  0.0910
  750TIP3    H123885   4.044   5.347   6.762  1.1374  1.8861 -0.5805
  750TIP3    H223886   4.109   5.246   6.669 -0.6287  0.2522 -0.1101
  751TIP3   OH223887   4.204   0.015   1.039  0.2650 -0.1335  0.0172
  751TIP3    H123888   4.249  -0.065   1.013  1.6191  0.5724  0.1168
  751TIP3    H223889   4.168   0.050   0.957  2.0347  0.5686 -0.5088
  752TIP3   OH223890   5.154   0.230   8.543 -0.2371 -0.2099  0.5895
  752TIP3    H123891   5.235   0.277   8.563 -1.5565  2.7232 -0.3759
  752TIP3    H223892   5.167   0.143   8.580  2.8664  0.5095  1.4945
  753TIP3   OH223893   3.022   2.593   2.250 -0.3028 -0.2241 -0.1357
  753TIP3    H123894   2.980   2.514   2.285 -0.8644  0.5335  0.9386
  753TIP3    H223895   2.949   2.651   2.228  0.1177  0.1276 -0.6189
  754TIP3   OH223896   4.272   4.462   0.143 -0.1202 -0.1525  0.2860
  754TIP3    H123897   4.330   4.530   0.178 -0.3539  0.1786  0.0362
  754TIP3    H223898   4.257   4.403   0.217 -0.8922  0.7244  0.8659
  755TIP3   OH223899   2.871   2.870   7.828 -0.3370 -0.3302  0.4646
  755TIP3    H123900   2.849   2.930   7.900 -1.9198  0.2940 -0.4870
  755TIP3    H223901   2.843   2.784   7.858  0.7006 -0.3980  1.2990
  756TIP3   OH223902   1.728   0.848   0.231 -0.4676 -0.4466  0.3691
  756TIP3    H123903   1.643   0.851   0.276  0.8223 -0.4911  2.9906
  756TIP3    H223904   1.765   0.935   0.242  1.1932 -1.3108  2.2412
  757TIP3   OH223905   3.086   1.418   6.883  0.0346 -0.1566 -0.0744
  757TIP3    H123906   3.016   1.476   6.915 -0.6055  1.2234 -3.5201
  757TIP3    H223907   3.109   1.454   6.797  2.4701 -2.7308 -0.6352
  758TIP3   OH223908   4.903   0.028   7.871  0.1504  0.0868 -0.7950
  758TIP3    H123909   4.829   0.086   7.856 -0.3704 -0.1512  0.7264
  758TIP3    H223910   4.976   0.087   7.889 -0.2620  0.3101  0.2255
  759TIP3   OH223911   5.845   3.443   0.384 -0.0542 -0.1636  0.2905
  759TIP3    H123912   5.940   3.450   0.369 -0.1912 -0.2958 -0.7795
  759TIP3    H223913   5.836   3.435   0.478  1.2317 -3.0411  0.2956
  760TIP3   OH223914   5.332   1.049   7.212  0.1130  0.5730 -0.2073
  760TIP3    H123915   5.364   1.068   7.124 -1.0329  1.2332 -0.5124
  760TIP3    H223916   5.410   1.047   7.267  0.9267 -0.7352 -1.3819
  761TIP3   OH223917   0.722   4.276   0.738  0.6129  0.2381  0.1183
  761TIP3    H123918   0.741   4.262   0.645 -2.2982 -1.1353 -0.3738
  761TIP3    H223919   0.696   4.189   0.770 -1.3214  1.2443  1.4378
  762TIP3   OH223920   4.544   1.775   1.316  0.4384 -0.7475  0.3623
  762TIP3    H123921   4.581   1.738   1.395  4.6006  1.3532 -0.2866
  762TIP3    H223922   4.538   1.869   1.334 -3.7841 -0.7433 -0.1079
  763TIP3   OH223923   3.732   2.562   7.924 -0.0478  0.2979  0.2511
  763TIP3    H123924   3.827   2.572   7.926  0.0962 -0.6816 -0.8925
  763TIP3    H223925   3.699   2.642   7.966  1.2339  1.2026 -0.3888
  764TIP3   OH223926   0.420   4.369   0.042  0.3389 -0.0941 -0.4382
  764TIP3    H123927   0.482   4.364   0.114  2.2248  0.4050 -1.9414
  764TIP3    H223928   0.402   4.277   0.020 -2.2657 -0.3636  2.1686
  765TIP3   OH223929   2.787   3.764   7.736  0.3132 -0.3686 -0.2112
  765TIP3    H123930   2.880   3.784   7.731  0.3476 -0.4023  0.2696
  765TIP3    H223931   2.773   3.733   7.825 -0.0787 -0.7717 -0.4036
  766TIP3   OH223932   6.567   0.620   8.662 -0.4258  0.3914  0.2912
  766TIP3    H123933   6.637   0.560   8.635  0.5591  1.8328 -0.4888
  766TIP3    H223934   6.558   0.681   8.589 -1.4195  1.1847  1.0503
  767TIP3   OH223935   3.908   2.160   7.514  0.2860 -0.5554  0.2325
  767TIP3    H123936   3.917   2.099   7.441  1.4084 -0.8696  0.6178
  767TIP3    H223937   3.861   2.110   7.581  1.1473 -0.9963  0.5229
  768TIP3   OH223938   6.618   6.459   1.295  1.0314  1.4091  0.5464
  768TIP3    H123939   6.689   6.439   1.235 -0.7908 -1.7606 -0.8071
  768TIP3    H223940   6.640   6.412   1.375 -0.7502 -2.1998 -0.8769
  769TIP3   OH223941   2.078   0.193   7.961  0.1870 -0.0710  0.0855
  769TIP3    H123942   2.157   0.191   7.907 -1.0889 -1.0500 -1.8189
  769TIP3    H223943   2.042   0.281   7.949 -1.1108 -0.8519 -2.2965
  770TIP3   OH223944   0.620   4.075   7.849 -0.2362 -0.1993 -0.4621
  770TIP3    H123945   0.688   4.135   7.879  1.5298 -2.7984  1.2396
  770TIP3    H223946   0.644   4.055   7.759  0.8898 -0.5067 -0.1157
  771TIP3   OH223947   6.310   1.779   1.021 -0.4975  0.5296  0.2434
  771TIP3    H123948   6.357   1.802   1.101 -0.0895 -0.4120  0.2963
  771TIP3    H223949   6.243   1.717   1.050  0.2908 -0.5920 -0.2596
  772TIP3   OH223950   0.623   6.113   6.580 -0.4976  0.1544 -0.0975
  772TIP3    H123951   0.689   6.136   6.514  0.4231  0.6241  0.9448
  772TIP3    H223952   0.540   6.122   6.535  0.1324  0.0340 -1.3159
  773TIP3   OH223953   2.972   2.104   8.138  0.3685 -0.1860 -0.1753
  773TIP3    H123954   3.041   2.134   8.197 -0.2978 -0.2172  0.6356
  773TIP3    H223955   2.969   2.009   8.151 -0.0239 -0.1510  0.0289
  774TIP3   OH223956   0.264   2.407   1.669  0.4161  0.3314 -0.2075
  774TIP3    H123957   0.176   2.403   1.633 -0.1541 -0.1512  1.1546
  774TIP3    H223958   0.266   2.488   1.719 -1.8488 -2.5871  5.7010
  775TIP3   OH223959   4.851   5.073   0.302  0.4921  0.1029  0.0672
  775TIP3    H123960   4.901   4.998   0.335  2.9056  1.8167  0.5697
  775TIP3    H223961   4.913   5.146   0.303 -0.4593  1.2689 -4.4187
  776TIP3   OH223962   0.580   0.321   0.919 -0.2463  0.3044  0.9882
  776TIP3    H123963   0.628   0.404   0.929  0.4576  0.2558 -1.4885
  776TIP3    H223964   0.526   0.334   0.841 -0.3505 -1.4818  0.7374
  777TIP3   OH223965   3.684   3.496   7.834 -0.0897 -0.0128 -0.3855
  777TIP3    H123966   3.718   3.523   7.919 -2.9483 -0.4590  1.0204
  777TIP3    H223967   3.695   3.400   7.833  2.1860  0.1870 -1.6733
  778TIP3   OH223968   2.351   1.528   0.748 -0.6254 -0.1460 -0.1931
  778TIP3    H123969   2.357   1.554   0.656  0.6244  0.3981  0.0255
  778TIP3    H223970   2.338   1.433   0.745  1.3953 -0.4499 -0.9344
  779TIP3   OH223971   3.112   5.687   7.524 -0.2833  0.0421  0.6621
  779TIP3    H123972   3.147   5.751   7.585 -0.7337  1.1223 -0.1610
  779TIP3    H223973   3.165   5.608   7.537 -1.1471 -0.2022  3.2814
  780TIP3   OH223974   5.898   4.366   7.568 -0.3145  0.0241  0.6322
  780TIP3    H123975   5.844   4.387   7.645 -0.6935 -0.9503  0.6386
  780TIP3    H223976   5.934   4.280   7.587  0.4835  0.2595  0.1991
  781TIP3   OH223977   4.067   2.173   0.164  0.5108  0.2535 -0.2280
  781TIP3    H123978   4.009   2.160   0.239  0.4460 -1.8270 -0.5654
  781TIP3    H223979   4.049   2.262   0.134 -1.0269  0.3628  0.9001
  782TIP3   OH223980   1.506   6.021   8.824  0.1087  0.0425  0.0955
  782TIP3    H123981   1.537   5.935   8.795 -0.5723 -0.1224 -0.1541
  782TIP3    H223982   1.565   6.045   8.896  1.0033 -0.1304 -0.5592
  783TIP3   OH223983   3.938   4.308   0.297 -0.6206  0.3590 -0.6016
  783TIP3    H123984   4.004   4.239   0.298 -0.0188  0.9169  1.0833
  783TIP3    H223985   3.886   4.290   0.219  0.0228 -1.5159 -0.6443
  784TIP3   OH223986   3.140   2.801   1.206  0.9086  0.0819  0.0343
  784TIP3    H123987   3.100   2.852   1.135  1.0857  0.0326 -0.1001
  784TIP3    H223988   3.097   2.834   1.285  0.1821 -0.3735 -0.1602
  785TIP3   OH223989   6.157   4.152   8.255  0.3868  0.1183  0.4291
  785TIP3    H123990   6.224   4.084   8.262 -0.2159 -0.3703  1.6607
  785TIP3    H223991   6.206   4.234   8.262  1.2004 -0.1043 -1.7019
  786TIP3   OH223992   2.656   3.948   1.547  0.3207  0.0419 -0.2504
  786TIP3    H123993   2.581   3.889   1.553  0.1431  0.0959 -1.6130
  786TIP3    H223994   2.729   3.891   1.523  0.1090  0.3714 -1.7688
  787TIP3   OH223995   1.269   3.352   6.264  0.3392  0.1939 -0.1091
  787TIP3    H123996   1.260   3.435   6.312 -0.3962  0.0514  0.0050
  787TIP3    H223997   1.179   3.323   6.249  0.5951 -1.2436  0.9899
  788TIP3   OH223998   6.296   3.209   0.423  0.5899 -0.0585 -0.6432
  788TIP3    H123999   6.304   3.189   0.516 -1.3968 -1.3779 -0.6877
  788TIP3    H224000   6.212   3.255   0.416  2.5913  3.9253 -1.2867
  789TIP3   OH224001   5.335   6.313   8.963  0.1907 -0.5712 -0.0010
  789TIP3    H124002   5.367   6.280   9.047 -1.0118 -0.6159  0.4602
  789TIP3    H224003   5.386   6.392   8.947  0.2216 -0.3963  0.9220
  790TIP3   OH224004   4.703   1.133   7.023 -0.4560  0.2271 -0.2532
  790TIP3    H124005   4.645   1.196   7.066 -1.2519  0.2930 -1.3783
  790TIP3    H224006   4.653   1.104   6.947  0.4781 -0.7089 -0.5181
  791TIP3   OH224007   6.740   3.824   8.166 -0.6884 -0.8212  0.0724
  791TIP3    H124008   6.664   3.842   8.111  0.1250 -0.4034 -0.9450
  791TIP3    H224009   6.723   3.871   8.247 -0.3322  1.5036 -1.1237
  792TIP3   OH224010   3.367   3.613   8.516  0.6249  0.0918 -0.0328
  792TIP3    H124011   3.452   3.609   8.560  0.6359  0.6681  0.0114
  792TIP3    H224012   3.389   3.617   8.423  0.6219 -0.4966 -0.0595
  793TIP3   OH224013   2.941   5.501   6.788  0.0933 -0.2419  0.1758
  793TIP3    H124014   2.848   5.496   6.769 -0.0907  1.4570  0.4993
  793TIP3    H224015   2.980   5.544   6.711  0.5599 -0.6296  0.1885
  794TIP3   OH224016   0.511   3.199   1.188  0.0088 -0.1024 -0.1140
  794TIP3    H124017   0.454   3.153   1.249 -0.2596 -0.2680 -0.4841
  794TIP3    H224018   0.453   3.261   1.143  0.1180 -0.2890 -0.5101
  795TIP3   OH224019   1.843   6.041   8.987 -0.0789 -0.5191 -0.0099
  795TIP3    H124020   1.878   6.129   8.970  0.5830 -0.9280 -0.8138
  795TIP3    H224021   1.749   6.055   8.998 -0.1679  0.1513 -1.3677
  796TIP3   OH224022   1.736   4.183   8.127  0.5924 -0.2821  0.4481
  796TIP3    H124023   1.652   4.166   8.168 -0.1032  0.8673 -0.4304
  796TIP3    H224024   1.765   4.266   8.164  0.0686  0.6515 -1.1198
  797TIP3   OH224025   1.694   0.429   2.462  0.1018 -0.2870  0.0293
  797TIP3    H124026   1.598   0.423   2.468  0.1220 -2.3294 -0.8198
  797TIP3    H224027   1.723   0.433   2.553 -0.7394 -1.2604  0.3631
  798TIP3   OH224028   6.711   5.745   1.806  0.0202 -0.5184 -0.2828
  798TIP3    H124029   6.743   5.785   1.887  2.5871 -0.8040 -1.0681
  798TIP3    H224030   6.669   5.664   1.834  0.4612 -0.3906  0.8013
  799TIP3   OH224031   5.182   5.970   0.458 -0.0622  0.1227  0.3805
  799TIP3    H124032   5.150   6.059   0.468  0.0459  0.6106 -2.5955
  799TIP3    H224033   5.111   5.924   0.413  0.0575 -1.2159  1.4840
  800TIP3   OH224034   2.534   2.560   1.485  0.6056 -0.1156 -0.3088
  800TIP3    H124035   2.565   2.539   1.396 -2.2334  2.0501 -2.0064
  800TIP3    H224036   2.528   2.475   1.528  1.4311 -1.3421 -2.4282
  801TIP3   OH224037   0.089   0.864   7.405  0.0050  0.4570 -0.2520
  801TIP3    H124038   0.128   0.789   7.359 -0.5600  1.7106 -3.0205
  801TIP3    H224039   0.164   0.908   7.445  0.2012 -2.2684  2.7564
  802TIP3   OH224040   0.664   5.189   7.275 -0.2404 -0.2495  0.2417
  802TIP3    H124041   0.623   5.272   7.297 -0.1620 -0.2014  0.2067
  802TIP3    H224042   0.641   5.174   7.184 -2.4601 -1.5523  0.9377
  803TIP3   OH224043   1.318   2.672   0.391 -0.5093  0.3818 -0.2953
  803TIP3    H124044   1.337   2.673   0.297 -1.3491  0.2539 -0.4760
  803TIP3    H224045   1.252   2.741   0.403  0.2152  0.9722  0.3411
  804TIP3   OH224046   6.444   1.744   8.755 -0.8164  0.3870  0.1226
  804TIP3    H124047   6.377   1.738   8.687 -1.1799  1.1345  0.3980
  804TIP3    H224048   6.395   1.738   8.837 -0.7361  2.2721  0.3536
  805TIP3   OH224049   1.750   3.643   6.553 -0.0537 -0.2936 -0.0135
  805TIP3    H124050   1.806   3.574   6.589  0.3025  0.1857  0.3709
  805TIP3    H224051   1.810   3.716   6.538 -0.2666 -0.3530 -1.2408
  806TIP3   OH224052   2.275   0.166   7.120 -0.2176 -0.1157  0.4247
  806TIP3    H124053   2.329   0.153   7.198  1.1313  0.7782 -0.3111
  806TIP3    H224054   2.293   0.090   7.065 -1.4136 -0.9091  1.0721
  807TIP3   OH224055   5.960   5.571   8.837 -0.2996  0.0772  0.2878
  807TIP3    H124056   5.924   5.483   8.847  0.3147 -0.3289 -0.9453
  807TIP3    H224057   6.022   5.580   8.909 -2.5052  0.6568  2.2395
  808TIP3   OH224058   6.288   5.944   1.463 -0.3218 -0.6050 -0.2380
  808TIP3    H124059   6.365   5.951   1.518 -1.8687 -0.3863  2.0498
  808TIP3    H224060   6.255   6.034   1.457 -1.2881 -0.9132  0.2142
  809TIP3   OH224061   5.667   5.645   1.559  0.8613  0.3240 -0.1438
  809TIP3    H124062   5.627   5.558   1.553  1.3203 -0.0352  1.4946
  809TIP3    H224063   5.740   5.633   1.621  1.3485  1.7259 -0.4263
  810TIP3   OH224064   5.097   2.359   0.751 -0.6999  0.0676  0.4439
  810TIP3    H124065   5.032   2.346   0.682  0.8936  0.1874 -1.1307
  810TIP3    H224066   5.114   2.453   0.752 -0.5612  0.0417  0.8757
  811TIP3   OH224067   5.499   0.296   0.647 -0.9379  0.0409 -0.2404
  811TIP3    H124068   5.499   0.390   0.634 -0.6172  0.1527  0.4926
  811TIP3    H224069   5.585   0.267   0.617 -0.6194  0.1445  0.5431
  812TIP3   OH224070   0.179   4.398   1.445  0.3152 -0.7972  0.5596
  812TIP3    H124071   0.116   4.331   1.418 -0.6365 -0.5741  2.0913
  812TIP3    H224072   0.256   4.349   1.473  0.9055 -1.0751 -1.3563
  813TIP3   OH224073   2.319   3.549   7.430  0.4024 -0.6240  0.3488
  813TIP3    H124074   2.316   3.573   7.522 -0.2516  0.2292  0.1178
  813TIP3    H224075   2.250   3.602   7.389  0.4333 -1.2629 -0.5626
  814TIP3   OH224076   0.742   6.702   1.139 -0.6131  0.7544  0.3235
  814TIP3    H124077   0.817   6.736   1.188 -1.1134  1.3614  0.6922
  814TIP3    H224078   0.749   6.744   1.053  1.9222 -2.5086 -1.3037
  815TIP3   OH224079   2.190   3.928   0.055  0.4923 -0.4496  0.0257
  815TIP3    H124080   2.274   3.886   0.033  0.3164 -1.3045  0.9205
  815TIP3    H224081   2.128   3.891  -0.008  0.8585  0.5390 -0.9456
  816TIP3   OH224082   3.499   0.437   6.507 -0.8457  0.0296 -0.4697
  816TIP3    H124083   3.501   0.512   6.448 -1.1119  0.3930 -0.0262
  816TIP3    H224084   3.420   0.389   6.482 -2.5661  1.7035  1.3960
  817TIP3   OH224085   4.718   3.323   8.951  0.6562 -0.2781 -0.3975
  817TIP3    H124086   4.752   3.397   8.899  0.2553 -0.0377 -0.3251
  817TIP3    H224087   4.659   3.278   8.891 -0.4422  0.4714  0.0792
  818TIP3   OH224088   4.237   0.100   7.607  0.0580 -0.3488 -0.3496
  818TIP3    H124089   4.212   0.173   7.551  1.9370  0.4807 -0.1781
  818TIP3    H224090   4.281   0.038   7.548  1.1245  0.0559 -0.0068
  819TIP3   OH224091   4.177   0.626   7.541 -0.1354 -0.4175 -0.1933
  819TIP3    H124092   4.093   0.588   7.564 -0.1322 -0.0554  0.4487
  819TIP3    H224093   4.158   0.683   7.466 -0.1722 -1.4984 -1.0260
  820TIP3   OH224094   5.466   4.468   0.851  0.1933  0.4839  0.4608
  820TIP3    H124095   5.422   4.479   0.935  0.6754 -1.0050  0.9452
  820TIP3    H224096   5.503   4.379   0.855  1.0803  0.7609 -0.9175
  821TIP3   OH224097   5.710   1.861   8.372 -0.0357  0.4234  0.1123
  821TIP3    H124098   5.621   1.845   8.404  0.0703  0.9575  0.6904
  821TIP3    H224099   5.745   1.927   8.431  0.8278  0.0560  0.0209
  822TIP3   OH224100   0.756   2.840   6.149 -0.0638  0.4015  0.2007
  822TIP3    H124101   0.749   2.910   6.213 -0.6669 -0.9653  1.7045
  822TIP3    H224102   0.708   2.767   6.188 -1.3407 -0.2090 -2.2377
  823TIP3   OH224103   0.859   5.713   7.965  0.1245 -0.0723  0.0342
  823TIP3    H124104   0.892   5.740   8.052 -1.5778 -0.8148  0.9535
  823TIP3    H224105   0.848   5.618   7.972  0.7009 -0.2557 -1.2847
  824TIP3   OH224106   6.543   0.614   0.801  0.1322  0.3764 -0.0380
  824TIP3    H124107   6.604   0.665   0.748 -2.2687  3.5435 -0.0482
  824TIP3    H224108   6.502   0.554   0.738  0.9049  0.5100 -0.6927
  825TIP3   OH224109   2.837   6.371   1.836  0.2610  0.3009  0.1652
  825TIP3    H124110   2.914   6.314   1.830 -1.0040 -1.5354  0.4099
  825TIP3    H224111   2.851   6.422   1.916  1.9085  1.1324 -0.6090
  826TIP3   OH224112   5.342   3.707   1.747 -0.1026  0.7907 -0.7238
  826TIP3    H124113   5.301   3.783   1.790 -0.5247  0.5009 -0.6087
  826TIP3    H224114   5.433   3.733   1.734  0.7355  0.0280  2.5947
  827TIP3   OH224115   1.517   6.359   8.981 -0.1020  0.0976 -0.3624
  827TIP3    H124116   1.587   6.404   8.933 -1.2502  2.4206 -0.0044
  827TIP3    H224117   1.442   6.418   8.974 -1.5851 -1.5958  0.5712
  828TIP3   OH224118   1.456   4.867   0.323 -0.5779 -0.0410 -0.4473
  828TIP3    H124119   1.410   4.869   0.407  0.3291 -0.8234  0.0856
  828TIP3    H224120   1.419   4.940   0.274 -1.3234  0.2558  0.5262
  829TIP3   OH224121   6.636   5.325   0.278  0.6507  0.5526 -0.4518
  829TIP3    H124122   6.556   5.374   0.298  0.6603 -0.2849  1.9043
  829TIP3    H224123   6.681   5.379   0.213 -1.7516  1.0846 -1.7943
  830TIP3   OH224124   4.978   6.347   8.124  0.1958  0.3766  0.2534
  830TIP3    H124125   4.920   6.407   8.078 -1.3968 -0.0579  1.5829
  830TIP3    H224126   5.032   6.308   8.056 -0.9027  1.0122 -1.0165
  831TIP3   OH224127   6.146   3.022   7.047  0.1473 -0.5217 -0.5344
  831TIP3    H124128   6.239   3.045   7.036  0.6893 -1.4349  1.5792
  831TIP3    H224129   6.115   3.003   6.959  1.4119  1.7760 -1.5362
  832TIP3   OH224130   5.750   4.368   0.903 -0.7282 -0.0741 -0.1177
  832TIP3    H124131   5.814   4.437   0.919 -0.3831 -0.8114  2.1168
  832TIP3    H224132   5.801   4.287   0.909 -1.6088 -0.6143  0.2878
  833TIP3   OH224133   1.149   1.197   0.862 -0.1923 -0.0876  0.1518
  833TIP3    H124134   1.120   1.118   0.816 -0.2130  0.1058 -0.1738
  833TIP3    H224135   1.204   1.165   0.933 -0.2578 -0.3986  0.0639
  834TIP3   OH224136   0.735   3.388   8.314 -0.4073 -0.9790  0.0781
  834TIP3    H124137   0.712   3.473   8.275 -0.5727 -0.3073  1.5865
  834TIP3    H224138   0.802   3.408   8.378 -0.5367 -1.9831  0.5442
  835TIP3   OH224139   1.434   3.729   7.708  0.3892  0.2843 -0.0471
  835TIP3    H124140   1.435   3.781   7.789 -1.0471 -1.1193  0.9312
  835TIP3    H224141   1.489   3.778   7.647  0.3161  2.1410  1.3076
  836TIP3   OH224142   4.967   2.582   1.897 -0.4389 -0.7062  0.3988
  836TIP3    H124143   4.897   2.602   1.834 -0.8322 -1.7401  0.4867
  836TIP3    H224144   4.941   2.630   1.976 -0.5868 -0.3765  0.1539
  837TIP3   OH224145   4.133   2.248   1.770  0.5516 -0.3009  0.7601
  837TIP3    H124146   4.067   2.220   1.707  1.0541 -0.8503  0.4641
  837TIP3    H224147   4.156   2.337   1.744  0.1794 -0.2384  0.6520
  838TIP3   OH224148   4.381   1.067   6.902 -0.3015 -0.4250 -0.2127
  838TIP3    H124149   4.364   1.131   6.972  0.2634  0.4590 -0.8632
  838TIP3    H224150   4.331   1.099   6.828  1.8328  0.6509 -1.2881
  839TIP3   OH224151   6.108   3.915   0.145  0.1126 -0.0857  0.4136
  839TIP3    H124152   6.022   3.943   0.176  1.0054  0.8913  2.1814
  839TIP3    H224153   6.169   3.944   0.213  1.9897  0.2350 -1.2927
  840TIP3   OH224154   3.863   4.835   7.261 -0.2652 -0.0535 -0.1845
  840TIP3    H124155   3.873   4.783   7.341  2.9506  0.2648 -0.2483
  840TIP3    H224156   3.829   4.773   7.196  0.9505 -1.3941  0.4174
  841TIP3   OH224157   0.779   1.066   8.825 -0.1201 -0.7501  0.0707
  841TIP3    H124158   0.733   0.982   8.832  2.1193 -2.0749 -0.1135
  841TIP3    H224159   0.866   1.043   8.791  0.2383  1.7737 -0.9469
  842TIP3   OH224160   5.182   0.593   7.732 -0.3824 -0.1989  0.0651
  842TIP3    H124161   5.097   0.613   7.692 -0.4534 -1.3487 -0.4001
  842TIP3    H224162   5.232   0.674   7.723 -1.0034  0.1174 -0.7587
  843TIP3   OH224163   5.626   2.408   8.210  0.0732 -0.1150  0.4559
  843TIP3    H124164   5.579   2.328   8.188 -1.4993  0.5486  1.2450
  843TIP3    H224165   5.706   2.379   8.255  0.9812 -1.2993 -1.7934
  844TIP3   OH224166   6.428   5.852   8.030  0.5775 -0.4640  0.8261
  844TIP3    H124167   6.367   5.785   7.999 -0.5821  0.5489  0.8651
  844TIP3    H224168   6.424   5.920   7.963 -0.1617  0.6950  2.0260
  845TIP3   OH224169   1.489   3.345   7.965  1.4901 -0.9638  0.3725
  845TIP3    H124170   1.408   3.317   8.007  0.7167  1.4457  0.6632
  845TIP3    H224171   1.464   3.368   7.876  1.3326  1.6418  0.9966
  846TIP3   OH224172   4.736   4.658   7.272 -0.1636 -1.0238  0.8616
  846TIP3    H124173   4.767   4.679   7.184 -0.1363  0.4726  1.1847
  846TIP3    H224174   4.663   4.598   7.259 -1.7534  1.0158 -0.3852
  847TIP3   OH224175   1.727   2.055   7.518 -0.0141 -0.5056  0.4098
  847TIP3    H124176   1.776   1.976   7.496  2.6056  1.3695 -1.1371
  847TIP3    H224177   1.720   2.053   7.613 -0.3367 -2.7311  0.3848
  848TIP3   OH224178   2.992   4.765   7.974 -0.0084  0.2108 -0.0646
  848TIP3    H124179   3.042   4.685   7.991 -0.6898 -0.6334 -1.8072
  848TIP3    H224180   2.903   4.734   7.959 -0.1063  1.1980 -1.6734
  849TIP3   OH224181   0.343   4.185   0.880  0.3534 -0.1254 -0.1378
  849TIP3    H124182   0.255   4.190   0.843  0.1618 -0.8711  0.2083
  849TIP3    H224183   0.394   4.137   0.815 -0.2061 -2.2592  0.9369
  850TIP3   OH224184   3.350   1.738   7.470 -0.2511  0.2527  0.0970
  850TIP3    H124185   3.399   1.808   7.427 -3.3025  1.6226 -1.4567
  850TIP3    H224186   3.371   1.660   7.419 -0.0160  0.8982 -0.8188
  851TIP3   OH224187   4.917   5.380   7.897 -0.0143 -0.2024  0.1448
  851TIP3    H124188   4.950   5.447   7.956  0.4614  0.7822 -1.1861
  851TIP3    H224189   4.837   5.347   7.939  1.9483 -1.8638  2.9255
  852TIP3   OH224190   1.743   3.059   2.184  0.2500  0.1445 -0.4265
  852TIP3    H124191   1.734   3.109   2.264 -0.0797  1.0809 -1.0305
  852TIP3    H224192   1.838   3.044   2.175  0.2453 -0.4119  0.3828
  853TIP3   OH224193   0.280   5.160   0.521 -0.4859  0.6110  0.1515
  853TIP3    H124194   0.337   5.135   0.594 -1.2209  0.7894  0.8035
  853TIP3    H224195   0.339   5.176   0.448  0.2911  0.7199  0.7949
  854TIP3   OH224196   3.027   0.632   7.912 -0.5061 -0.1072  0.1434
  854TIP3    H124197   3.103   0.667   7.960 -0.3488 -0.8828  0.4746
  854TIP3    H224198   2.962   0.701   7.917 -0.0649  0.2944  0.4589
  855TIP3   OH224199   5.474   2.076   7.010  0.5633  0.1061  0.6925
  855TIP3    H124200   5.497   2.055   6.919 -0.6338  1.8575 -0.0622
  855TIP3    H224201   5.547   2.127   7.043  1.1092 -0.7333  0.8269
  856TIP3   OH224202   3.583   6.370   2.293 -0.6276  0.4409  0.5668
  856TIP3    H124203   3.583   6.275   2.284  0.6664  0.6429 -2.7905
  856TIP3    H224204   3.669   6.391   2.330 -0.0102  0.3805 -0.7825
  857TIP3   OH224205   4.081   4.972   7.133 -0.2665  0.1551  0.6479
  857TIP3    H124206   4.034   4.957   7.051 -2.8410  0.5063  1.9536
  857TIP3    H224207   4.035   4.918   7.198  0.7389  1.0202  2.1580
  858TIP3   OH224208   6.619   6.532   0.221  0.1197 -0.2324 -0.0682
  858TIP3    H124209   6.678   6.488   0.283  1.0514  0.4390 -0.4564
  858TIP3    H224210   6.634   6.486   0.138 -1.4979 -1.4651  0.2765
  859TIP3   OH224211   1.146   5.374   1.664 -0.0043 -0.6490 -0.1064
  859TIP3    H124212   1.113   5.385   1.754 -0.2578 -0.9405 -0.1619
  859TIP3    H224213   1.240   5.359   1.675  0.1879  0.5275  0.0348
  860TIP3   OH224214   6.395   5.701   0.954  0.0209  0.3431 -0.1317
  860TIP3    H124215   6.424   5.672   1.041 -1.2087 -1.5380 -0.2864
  860TIP3    H224216   6.438   5.641   0.893 -0.0600  0.8911 -0.7393
  861TIP3   OH224217   2.505   0.784   0.776  0.2135 -0.3459 -0.2148
  861TIP3    H124218   2.599   0.800   0.781  0.2993 -0.2289 -1.7229
  861TIP3    H224219   2.492   0.704   0.827  1.1856 -0.5574 -0.2761
  862TIP3   OH224220   6.752   1.253   6.576 -0.0489 -0.3144 -0.2601
  862TIP3    H124221   6.823   1.193   6.556  0.7531  0.7925 -0.8421
  862TIP3    H224222   6.715   1.220   6.658  4.0547  1.5981  2.7011
  863TIP3   OH224223   5.540   0.837   6.760  0.0874 -0.0090 -1.0249
  863TIP3    H124224   5.474   0.906   6.753 -0.4587 -0.2474  1.0715
  863TIP3    H224225   5.624   0.883   6.756 -0.2527  0.6269 -0.9138
  864TIP3   OH224226   5.374   2.420   8.462  0.0940  0.3871  0.4084
  864TIP3    H124227   5.336   2.426   8.550  0.9034 -0.9216  0.8770
  864TIP3    H224228   5.355   2.331   8.433 -1.5056  1.2541 -1.4187
  865TIP3   OH224229   6.235   3.943   1.561  0.2655  0.5125 -0.2273
  865TIP3    H124230   6.176   3.868   1.561 -0.0057  0.7157  0.5676
  865TIP3    H224231   6.240   3.970   1.469 -1.8643  1.2676 -0.1705
  866TIP3   OH224232   3.443   5.150   0.727 -0.5975 -0.4978 -0.1217
  866TIP3    H124233   3.513   5.107   0.679  0.6963  0.1325  1.1408
  866TIP3    H224234   3.363   5.115   0.688  0.3997 -1.6820 -1.1990
  867TIP3   OH224235   4.122   5.280   0.724 -0.0130 -0.5186  0.1941
  867TIP3    H124236   4.119   5.185   0.725  1.1379 -0.5766  1.6559
  867TIP3    H224237   4.163   5.302   0.641  0.9576 -1.3732  0.4292
  868TIP3   OH224238   1.563   2.613   8.108 -0.6958  0.5566  0.4887
  868TIP3    H124239   1.485   2.614   8.053 -0.4271 -0.8587  0.0289
  868TIP3    H224240   1.629   2.659   8.056 -1.0894  1.4010  0.7093
  869TIP3   OH224241   0.827   1.870   0.229 -0.3232 -0.8498 -0.5158
  869TIP3    H124242   0.815   1.850   0.136 -1.0386  0.6401 -0.7696
  869TIP3    H224243   0.888   1.944   0.230 -2.6563  1.1751 -0.0200
  870TIP3   OH224244   3.358   3.120   0.117  0.1345 -0.2825 -0.2864
  870TIP3    H124245   3.342   3.214   0.131  1.1769  0.0152 -1.0009
  870TIP3    H224246   3.271   3.081   0.118 -0.2306  0.5229  1.1915
  871TIP3   OH224247   1.739   4.824   0.606  0.3369 -0.0616 -0.0325
  871TIP3    H124248   1.812   4.809   0.546 -0.0666  0.3190 -0.6353
  871TIP3    H224249   1.673   4.760   0.579 -0.6636  1.4694 -1.3988
  872TIP3   OH224250   6.483   5.113   7.307  0.4080  0.2200 -0.2017
  872TIP3    H124251   6.554   5.166   7.344 -0.4645  1.1726  0.1436
  872TIP3    H224252   6.513   5.092   7.219  0.9900  0.8821 -0.1775
  873TIP3   OH224253   3.773   0.063   8.038 -0.1826  0.0133 -0.1248
  873TIP3    H124254   3.817   0.115   7.971  0.3026  0.6636  0.6834
  873TIP3    H224255   3.680   0.081   8.026  0.0234  1.7088  0.6600
  874TIP3   OH224256   5.594   5.672   8.947 -0.1739  0.0020  0.1562
  874TIP3    H124257   5.569   5.609   8.879 -1.6443  0.7617 -0.0400
  874TIP3    H224258   5.515   5.723   8.963  0.6589  1.0294  1.1635
  875TIP3   OH224259   0.039   0.913   2.183 -0.3454 -0.6032 -0.6652
  875TIP3    H124260   0.037   0.943   2.092  0.0257 -1.6828 -1.0465
  875TIP3    H224261   0.052   0.819   2.177  3.1650 -0.3202  0.5688
  876TIP3   OH224262   0.277   0.785   6.831 -0.3730  0.1257 -0.2015
  876TIP3    H124263   0.297   0.830   6.749  0.1206 -0.3956 -0.3797
  876TIP3    H224264   0.187   0.808   6.851 -0.4889  0.2724 -0.8864
  877TIP3   OH224265   2.700   5.972   8.287 -0.2396  0.2937  0.0613
  877TIP3    H124266   2.698   6.065   8.311  0.2026  0.5258 -0.7550
  877TIP3    H224267   2.622   5.960   8.233 -0.1917  0.2376  0.0047
  878TIP3   OH224268   6.447   0.466   1.479  0.3542  0.4873  0.6987
  878TIP3    H124269   6.406   0.451   1.564 -1.6759 -2.2417 -0.6179
  878TIP3    H224270   6.509   0.394   1.468  1.6710  1.6076  0.4016
  879TIP3   OH224271   4.268   5.194   7.040 -0.6435 -0.6840  0.1671
  879TIP3    H124272   4.344   5.155   6.997 -1.2621 -0.6441 -1.0019
  879TIP3    H224273   4.217   5.120   7.070 -1.7558 -0.8423 -1.9438
  880TIP3   OH224274   4.108   2.350   0.478  0.0648  0.0155 -0.4871
  880TIP3    H124275   4.190   2.309   0.451  0.1783 -0.9194  1.1371
  880TIP3    H224276   4.044   2.322   0.412  0.8619  0.0851 -1.3073
  881TIP3   OH224277   1.390   5.195   0.810  0.2763  0.5041 -0.5795
  881TIP3    H124278   1.325   5.266   0.804  0.2562  0.4171 -1.5497
  881TIP3    H224279   1.474   5.238   0.794  0.4067  0.5182  0.1097
  882TIP3   OH224280   0.843   2.284   1.583 -0.4159 -0.1663  0.9510
  882TIP3    H124281   0.833   2.244   1.497  0.7573 -1.3922  1.3550
  882TIP3    H224282   0.863   2.211   1.642  1.7191  0.9522  1.7242
  883TIP3   OH224283   4.166   1.796   7.413  0.2994 -0.4858 -0.1371
  883TIP3    H124284   4.129   1.785   7.500  0.0650 -0.6405 -0.2569
  883TIP3    H224285   4.110   1.863   7.372  0.7510  0.0048  0.0291
  884TIP3   OH224286   0.949   5.562   6.917  0.3926  0.9563 -0.2748
  884TIP3    H124287   0.872   5.538   6.865  0.8152  0.3340 -0.6278
  884TIP3    H224288   0.978   5.645   6.880  0.0196  1.0845 -0.2827
  885TIP3   OH224289   0.087   0.344   1.154  0.2453  0.5201 -0.4095
  885TIP3    H124290   0.154   0.288   1.116  1.1044 -0.3435  2.2048
  885TIP3    H224291   0.009   0.327   1.101  1.3513 -0.5582 -1.7664
  886TIP3   OH224292   0.144   2.840   8.777 -0.4501 -1.0215 -0.1659
  886TIP3    H124293   0.186   2.820   8.860  1.1656  0.0633 -0.6555
  886TIP3    H224294   0.112   2.930   8.787 -0.3750 -0.9357 -0.6445
  887TIP3   OH224295   6.199   0.071   6.661 -0.7953 -0.1128 -0.3345
  887TIP3    H124296   6.136   0.137   6.690  0.1708  0.9635 -0.5891
  887TIP3    H224297   6.243   0.111   6.586 -0.2364 -1.0830 -0.5467
  888TIP3   OH224298   0.851   5.932   6.005  0.5157  0.2741  0.4132
  888TIP3    H124299   0.870   5.852   5.956  0.0843 -0.2023  1.0071
  888TIP3    H224300   0.796   5.983   5.946  2.2133  0.9437 -0.6704
  889TIP3   OH224301   6.120   0.137   8.372 -0.1663  0.4305  0.0561
  889TIP3    H124302   6.037   0.133   8.419 -0.2622 -1.5174 -0.1992
  889TIP3    H224303   6.186   0.120   8.439  0.0623  1.9011  0.2435
  890TIP3   OH224304   0.304   5.608   8.922  0.1935 -0.0373  0.3481
  890TIP3    H124305   0.326   5.665   8.848  0.3425  1.5487  1.5805
  890TIP3    H224306   0.279   5.525   8.881  0.7660  0.6356 -1.4554
  891TIP3   OH224307   3.206   0.878   0.979  0.0903 -0.1130 -0.3621
  891TIP3    H124308   3.132   0.888   1.038  0.1960  2.9182 -0.6044
  891TIP3    H224309   3.179   0.808   0.919 -1.6429 -0.5311  0.8219
  892TIP3   OH224310   1.458   4.919   0.737  0.4113  0.1759  0.2617
  892TIP3    H124311   1.546   4.908   0.700  0.0574  0.2343 -0.6322
  892TIP3    H224312   1.436   5.010   0.720  0.3275  0.2626  0.8307
  893TIP3   OH224313   5.934   6.057   0.553 -0.0991 -0.5302 -0.1578
  893TIP3    H124314   5.935   6.067   0.458  0.5600 -0.4094 -0.1395
  893TIP3    H224315   5.940   6.146   0.586  2.4323 -0.6794 -0.0077
  894TIP3   OH224316   4.442   6.787   0.426  0.2493  0.2044  0.0558
  894TIP3    H124317   4.401   6.864   0.465 -0.1422 -0.9416  2.0812
  894TIP3    H224318   4.471   6.735   0.501  2.1790 -0.7607 -1.2676
  895TIP3   OH224319   4.423   4.609   0.362 -0.1256  0.6990 -1.0708
  895TIP3    H124320   4.430   4.656   0.446  0.0196  1.8822 -1.7152
  895TIP3    H224321   4.480   4.533   0.373  1.0873  1.6323 -0.5991
  896TIP3   OH224322   1.426   5.131   0.476 -0.0423 -0.2719 -0.0203
  896TIP3    H124323   1.340   5.100   0.446  0.2915 -0.6424 -0.6058
  896TIP3    H224324   1.407   5.214   0.521 -0.4951  0.7347 -1.9284
  897TIP3   OH224325   3.910   2.149   6.870  0.4340 -0.0921 -0.2951
  897TIP3    H124326   3.887   2.124   6.780 -1.4106  0.2661  0.0234
  897TIP3    H224327   3.995   2.191   6.863  0.7588 -0.9332 -1.7307
  898TIP3   OH224328   0.316   1.676   1.469  0.0326 -0.4358  0.1074
  898TIP3    H124329   0.401   1.702   1.505  1.0081 -0.5022 -2.0043
  898TIP3    H224330   0.294   1.745   1.407 -2.5158  0.6547  2.0195
  899TIP3   OH224331   2.322   2.957   0.853 -0.1569  0.0751  0.6208
  899TIP3    H124332   2.234   2.919   0.848  0.5874 -1.8846  1.3982
  899TIP3    H224333   2.355   2.951   0.763 -0.7733  0.7295  0.3445
  900TIP3   OH224334   3.574   3.334   1.296  0.4100  0.5616  0.1811
  900TIP3    H124335   3.610   3.246   1.307 -0.1869  0.2335 -0.3957
  900TIP3    H224336   3.481   3.320   1.279  0.4049  1.2711 -0.4300
  901TIP3   OH224337   3.569   6.117   7.934  0.3157 -0.2000 -0.5599
  901TIP3    H124338   3.660   6.103   7.958  0.0886 -1.3498 -0.3271
  901TIP3    H224339   3.566   6.208   7.904  1.0460  0.6400  1.7067
  902TIP3   OH224340   1.021   6.672   8.350  0.0420  0.0129  0.3819
  902TIP3    H124341   1.099   6.727   8.342 -0.1814  0.0622 -2.5494
  902TIP3    H224342   0.973   6.688   8.269 -2.0426 -1.5163  1.2448
  903TIP3   OH224343   5.685   3.173   0.970  0.3814  0.5619  0.2356
  903TIP3    H124344   5.739   3.099   0.997 -1.2597 -0.6445  0.3609
  903TIP3    H224345   5.728   3.249   1.010  0.1627 -0.7087  3.2019
  904TIP3   OH224346   6.537   4.734   8.300  0.1766 -0.0431 -0.3318
  904TIP3    H124347   6.632   4.727   8.298  0.1344 -0.8164  0.1107
  904TIP3    H224348   6.519   4.820   8.262  1.0913  0.5111  0.4345
  905TIP3   OH224349   5.271   2.698   6.496 -0.2241 -0.2605  0.2997
  905TIP3    H124350   5.341   2.762   6.483 -1.7872  1.1053 -2.2230
  905TIP3    H224351   5.310   2.614   6.473  0.6023  0.4773 -1.0934
  906TIP3   OH224352   2.413   5.252   0.834 -0.5078  0.2465 -0.0383
  906TIP3    H124353   2.491   5.284   0.880 -0.3823  1.0073 -0.7683
  906TIP3    H224354   2.356   5.220   0.904  1.2903 -2.3035  0.4116
  907TIP3   OH224355   5.264   4.049   8.529 -0.0911 -0.1928  0.3612
  907TIP3    H124356   5.339   4.098   8.495  0.2534 -0.6623  0.4332
  907TIP3    H224357   5.188   4.096   8.496  0.2167  0.8489  1.0548
  908TIP3   OH224358   2.000   2.009   1.648  0.0623 -0.2186 -0.5122
  908TIP3    H124359   1.997   1.918   1.619  0.0370 -0.2333 -0.4623
  908TIP3    H224360   1.908   2.035   1.657 -0.0242  0.5281 -2.7981
  909TIP3   OH224361   4.269   5.004   1.108  0.0194  0.3108  0.4841
  909TIP3    H124362   4.296   4.933   1.166 -0.7611 -0.3072  0.1174
  909TIP3    H224363   4.288   4.972   1.020  0.1472  0.7754  0.3405
  910TIP3   OH224364   1.432   0.130   6.763  0.6833  0.4095 -0.1525
  910TIP3    H124365   1.433   0.055   6.704 -0.5869 -0.0427  0.3633
  910TIP3    H224366   1.517   0.173   6.750  0.4970  0.2416 -2.1596
  911TIP3   OH224367   5.852   3.176   8.516  0.3759  0.4965 -0.3562
  911TIP3    H124368   5.805   3.171   8.599  2.0824  2.2039  0.8017
  911TIP3    H224369   5.785   3.197   8.451 -0.8868 -0.1461  0.7027
  912TIP3   OH224370   5.161   4.693   8.574  0.1201 -0.5796 -0.0066
  912TIP3    H124371   5.103   4.637   8.523 -0.1260 -0.5453  0.2397
  912TIP3    H224372   5.120   4.779   8.571  0.1460 -0.5609  0.1879
  913TIP3   OH224373   3.538   0.438   0.458 -0.1936 -0.0037 -0.1427
  913TIP3    H124374   3.476   0.423   0.387  0.2632  0.7117 -0.7127
  913TIP3    H224375   3.530   0.360   0.513 -0.5887 -0.5593 -0.9493
  914TIP3   OH224376   6.389   6.265   8.670  0.4469  0.3291  0.5115
  914TIP3    H124377   6.458   6.202   8.693  0.8411  1.0533  1.3447
  914TIP3    H224378   6.434   6.349   8.664  0.2245  0.3570 -2.1328
  915TIP3   OH224379   0.481   2.550   0.718 -0.8254 -0.6197 -0.6788
  915TIP3    H124380   0.529   2.556   0.635  1.7080 -0.0104  0.7079
  915TIP3    H224381   0.408   2.492   0.700 -0.7595  0.0328 -3.4925
  916TIP3   OH224382   5.089   0.306   6.745  0.2898  0.2309 -0.0137
  916TIP3    H124383   5.118   0.312   6.654  0.8011 -0.0320  0.1283
  916TIP3    H224384   4.993   0.312   6.741  0.3401  0.7559 -0.5206
  917TIP3   OH224385   0.223   0.637   0.371 -0.6374  0.1382 -0.4016
  917TIP3    H124386   0.201   0.623   0.463 -0.6186  0.0624 -0.4085
  917TIP3    H224387   0.164   0.708   0.343 -1.7313 -0.8630 -0.7342
  918TIP3   OH224388   0.936   0.280   0.264 -0.6796  0.1814 -0.3793
  918TIP3    H124389   0.862   0.341   0.253  1.0903  2.4874 -0.1338
  918TIP3    H224390   0.996   0.302   0.192  0.3694 -0.7463  0.1906
  919TIP3   OH224391   3.608   3.427   6.761 -0.9356  0.3398  0.6920
  919TIP3    H124392   3.658   3.499   6.722 -1.0876  1.0357  1.7307
  919TIP3    H224393   3.520   3.437   6.724 -0.4505 -0.6467 -0.8288
  920TIP3   OH224394   6.534   6.631   1.509 -0.1519 -0.1622  0.0809
  920TIP3    H124395   6.580   6.570   1.566  0.4529  0.3949  0.1947
  920TIP3    H224396   6.550   6.597   1.421 -1.4096 -1.2450  0.2368
  921TIP3   OH224397   6.371   1.333   8.968 -0.2735 -0.0996  0.1112
  921TIP3    H124398   6.369   1.425   8.944 -0.6083 -0.3349 -0.8251
  921TIP3    H224399   6.387   1.287   8.886 -0.7842 -0.9110  0.4482
  922TIP3   OH224400   6.506   6.042   0.515 -0.1306  0.0000  0.1542
  922TIP3    H124401   6.412   6.037   0.499  0.0736 -1.2447 -0.7662
  922TIP3    H224402   6.523   6.135   0.529 -1.0724  0.6762 -2.5289
  923TIP3   OH224403   0.283   6.786   7.775  0.1289 -0.1549  0.4527
  923TIP3    H124404   0.281   6.800   7.680 -0.3992  1.3141  0.6564
  923TIP3    H224405   0.191   6.785   7.801  0.3014  1.6158  1.2207
  924TIP3   OH224406   2.602   0.842   1.241  0.1798 -0.1760 -0.2046
  924TIP3    H124407   2.692   0.861   1.269  0.0379  2.0368 -1.0313
  924TIP3    H224408   2.548   0.864   1.317  0.1976  0.5768 -0.4008
  925TIP3   OH224409   2.573   4.591   0.474  0.8629  0.7173 -0.2027
  925TIP3    H124410   2.665   4.593   0.500  0.0739  0.4155  2.9792
  925TIP3    H224411   2.536   4.518   0.523 -0.9949  0.4224 -1.9142
  926TIP3   OH224412   0.063   4.062   0.564 -0.0377 -0.1465  0.0674
  926TIP3    H124413   0.130   4.007   0.604 -0.2583  1.3214  2.6718
  926TIP3    H224414  -0.008   4.001   0.542 -0.2095 -1.0307  2.6954
  927TIP3   OH224415   1.444   3.854   1.606  0.3505 -0.1520 -0.1568
  927TIP3    H124416   1.517   3.807   1.566  1.0332  0.1148  0.7505
  927TIP3    H224417   1.441   3.822   1.697  1.4590  2.2123  0.7857
  928TIP3   OH224418   3.703   1.452   0.109 -0.1793 -0.7684 -0.0665
  928TIP3    H124419   3.650   1.423   0.035  1.4551 -1.9746 -0.8187
  928TIP3    H224420   3.743   1.534   0.080  0.0124 -0.9499 -0.3200
  929TIP3   OH224421   0.882   1.582   6.391  0.0844 -0.2232  0.3490
  929TIP3    H124422   0.951   1.648   6.400 -0.8655  1.1095 -1.3710
  929TIP3    H224423   0.828   1.592   6.470  0.4915  0.4190  0.5531
  930TIP3   OH224424   1.472   2.109   0.803  0.8494 -0.4746 -0.1364
  930TIP3    H124425   1.434   2.156   0.729  3.8085  3.2905  0.3916
  930TIP3    H224426   1.550   2.066   0.768  1.5851  0.2962  0.5101
  931TIP3   OH224427   4.383   5.498   0.956  0.2424  0.4779  0.5876
  931TIP3    H124428   4.462   5.448   0.934  0.5692  0.0853  2.4963
  931TIP3    H224429   4.324   5.434   0.996 -1.3087  0.6518 -1.2428
  932TIP3   OH224430   1.313   2.212   0.586  0.3795  0.5791 -0.1315
  932TIP3    H124431   1.382   2.229   0.522 -0.4388 -0.4917 -1.3492
  932TIP3    H224432   1.236   2.257   0.551 -0.5043 -1.3636 -0.7924
  933TIP3   OH224433   5.316   5.359   0.386  0.0540 -0.1476  0.1439
  933TIP3    H124434   5.309   5.436   0.443 -0.6020 -0.1993  0.1456
  933TIP3    H224435   5.238   5.307   0.408  0.8195 -1.1219  0.6042
  934TIP3   OH224436   4.417   3.655   7.386  0.9020 -0.4167 -0.7696
  934TIP3    H124437   4.457   3.572   7.359  2.4256 -0.5468  1.6083
  934TIP3    H224438   4.358   3.631   7.458  1.3262  0.5253 -0.0817
  935TIP3   OH224439   4.230   5.874   8.956 -0.3248 -0.5137  0.1121
  935TIP3    H124440   4.223   5.822   8.876 -1.5321  0.4119 -0.4144
  935TIP3    H224441   4.273   5.954   8.929 -1.6106  0.2165  0.1526
  936TIP3   OH224442   0.336   4.933   6.616  0.3751 -0.3170 -0.6679
  936TIP3    H124443   0.368   5.009   6.568  2.1531  0.7084  1.8871
  936TIP3    H224444   0.261   4.966   6.665  0.9459 -0.2544  0.1884
  937TIP3   OH224445   6.054   3.554   7.019  0.0704 -0.4836  0.5826
  937TIP3    H124446   6.016   3.554   7.107  1.2445 -0.3562  1.1077
  937TIP3    H224447   5.979   3.538   6.961 -0.7742 -0.2607  1.5717
  938TIP3   OH224448   0.522   5.280   0.799  0.0617  0.2810  0.1561
  938TIP3    H124449   0.493   5.342   0.733 -0.5283  1.0651  1.1139
  938TIP3    H224450   0.596   5.235   0.760 -1.5219 -0.7427 -1.8314
  939TIP3   OH224451   0.636   4.312   8.236  0.0620  0.1040 -0.1007
  939TIP3    H124452   0.649   4.217   8.244  0.1864 -0.0080 -1.4668
  939TIP3    H224453   0.547   4.326   8.268 -0.1043 -0.5298 -0.2614
  940TIP3   OH224454   6.635   3.045   7.511 -0.3297 -0.5892  0.1793
  940TIP3    H124455   6.606   3.019   7.598  1.6729 -1.5313  0.6382
  940TIP3    H224456   6.677   3.131   7.525  3.9801 -2.5666  1.2081
  941TIP3   OH224457   0.624   0.712   0.672 -0.2438  0.6009  0.0896
  941TIP3    H124458   0.641   0.686   0.762 -1.7082 -0.1243  0.1771
  941TIP3    H224459   0.626   0.630   0.622 -1.6635  0.7097 -0.1659
  942TIP3   OH224460   3.125   3.680   8.909 -0.3489 -0.6383  0.1059
  942TIP3    H124461   3.197   3.697   8.970 -0.1612  0.4787 -0.3961
  942TIP3    H224462   3.071   3.614   8.953  0.3299 -0.6018  1.0206
  943TIP3   OH224463   4.693   6.480   1.220 -0.2002 -0.4847  0.1598
  943TIP3    H124464   4.748   6.474   1.298 -0.1284 -0.3721  0.1183
  943TIP3    H224465   4.723   6.410   1.163 -0.5832 -0.8842  0.4402
  944TIP3   OH224466   4.082   3.572   8.350 -0.0221 -0.5342  0.4648
  944TIP3    H124467   4.051   3.652   8.307  0.7514 -0.4328  0.0751
  944TIP3    H224468   4.076   3.505   8.282 -2.7984 -1.3686  1.3935
  945TIP3   OH224469   5.564   1.967   7.264 -0.1987 -0.1334 -0.0863
  945TIP3    H124470   5.491   2.011   7.219  0.8348  1.3705 -0.3596
  945TIP3    H224471   5.525   1.935   7.346 -1.3778 -0.1928 -0.6429
  946TIP3   OH224472   2.396   2.151   1.210 -0.5880  1.0210  0.5063
  946TIP3    H124473   2.318   2.179   1.163 -1.2683 -1.7151 -0.1656
  946TIP3    H224474   2.452   2.112   1.142 -1.2937 -2.4065  1.6951
  947TIP3   OH224475   3.879   0.358   8.264  0.0367 -0.2603  0.1369
  947TIP3    H124476   3.785   0.345   8.275  0.0080  0.0621  0.2668
  947TIP3    H224477   3.887   0.417   8.189  0.0906  0.7107  0.9059
  948TIP3   OH224478   2.151   6.536   0.314  0.5090 -0.0030  0.9839
  948TIP3    H124479   2.063   6.558   0.342  0.5124  1.7373 -0.2060
  948TIP3    H224480   2.181   6.614   0.266  1.9345 -1.3171 -0.3599
  949TIP3   OH224481   6.500   4.338   0.451  0.7340  0.2464 -0.0632
  949TIP3    H124482   6.595   4.331   0.436  0.7542 -2.7464  0.7304
  949TIP3    H224483   6.460   4.287   0.380 -0.3068  1.4912 -0.3953
  950TIP3   OH224484   4.858   3.604   0.094 -0.0714 -0.2713  0.2700
  950TIP3    H124485   4.810   3.534   0.138  0.4157 -0.6555  0.1971
  950TIP3    H224486   4.795   3.676   0.088 -0.8718 -0.9942 -0.4361
  951TIP3   OH224487   5.923   4.824   1.661 -0.3547  0.2560  0.3076
  951TIP3    H124488   5.851   4.833   1.723 -0.6202 -1.3117  0.2580
  951TIP3    H224489   5.893   4.871   1.583 -1.9929 -1.5956 -0.2516
  952TIP3   OH224490   4.872   3.716   8.084  0.5708  0.3318 -0.1734
  952TIP3    H124491   4.964   3.737   8.076  0.8681 -0.9320 -0.3865
  952TIP3    H224492   4.858   3.703   8.178  0.5077  0.9401 -0.0984
  953TIP3   OH224493   4.634   4.599   1.153 -0.2341  0.1706  0.2912
  953TIP3    H124494   4.699   4.669   1.146  1.2941 -1.2159 -0.1434
  953TIP3    H224495   4.639   4.571   1.244 -0.1291 -0.0139  0.2293
  954TIP3   OH224496   1.173   5.692   1.463 -0.1326  0.0670  0.4082
  954TIP3    H124497   1.262   5.710   1.430 -0.4429 -1.0123 -1.1190
  954TIP3    H224498   1.187   5.632   1.536  0.4705  0.9498  1.0312
  955TIP3   OH224499   1.996   5.260   1.458  0.0412 -0.2860  0.1413
  955TIP3    H124500   1.982   5.279   1.550  0.2597 -2.5549  0.7093
  955TIP3    H224501   1.941   5.183   1.440 -1.6502  1.3049 -2.2111
  956TIP3   OH224502   3.750   4.650   8.111  0.1485  0.7682  0.1445
  956TIP3    H124503   3.733   4.570   8.061 -1.8085  0.5604  1.0369
  956TIP3    H224504   3.670   4.663   8.162  1.0919  2.3742  1.2924
  957TIP3   OH224505   2.709   5.327   8.213  1.1180  0.1442  0.0964
  957TIP3    H124506   2.781   5.298   8.157  0.3991 -0.7883 -0.3783
  957TIP3    H224507   2.645   5.364   8.153  0.8895  0.2940  0.4297
  958TIP3   OH224508   0.232   2.599   7.540  0.4520  0.1290 -0.0186
  958TIP3    H124509   0.175   2.651   7.483 -0.9344 -1.1023  0.1704
  958TIP3    H224510   0.311   2.584   7.488  0.0094  0.6607 -0.8629
  959TIP3   OH224511   1.373   4.433   1.790  0.0751 -0.1206 -0.0598
  959TIP3    H124512   1.320   4.375   1.844 -0.2099 -1.6945 -1.9228
  959TIP3    H224513   1.464   4.408   1.811  0.0349  0.5891  1.0280
  960TIP3   OH224514   5.351   1.966   0.010 -0.0634  0.6308 -0.5957
  960TIP3    H124515   5.415   1.900  -0.016  0.1272  0.0921  1.1121
  960TIP3    H224516   5.314   1.933   0.092 -2.0354  1.2839 -1.1687
  961TIP3   OH224517   4.371   3.735   8.374 -0.6237  0.0018 -0.6203
  961TIP3    H124518   4.451   3.683   8.383 -0.7029 -0.2160 -1.1527
  961TIP3    H224519   4.310   3.678   8.326 -0.7883  0.4960 -1.0103
  962TIP3   OH224520   3.847   4.730   7.517  0.2645  0.6643  0.2410
  962TIP3    H124521   3.850   4.660   7.583 -1.8989  0.3639  0.0907
  962TIP3    H224522   3.881   4.807   7.563  0.8236 -0.0201  1.0207
  963TIP3   OH224523   4.542   5.095   1.111 -0.3359 -0.5981  0.1326
  963TIP3    H124524   4.448   5.092   1.127 -0.0609 -2.5023  1.7829
  963TIP3    H224525   4.580   5.048   1.185  1.9700  0.6467 -0.1830
  964TIP3   OH224526   6.466   3.846   8.806 -0.0685 -0.3093 -0.1681
  964TIP3    H124527   6.557   3.856   8.779 -0.3045 -2.4570 -2.0621
  964TIP3    H224528   6.416   3.901   8.746 -0.1554 -0.6910 -0.4513
  965TIP3   OH224529   2.043   1.680   1.853 -0.1679  0.5398 -0.2004
  965TIP3    H124530   1.955   1.717   1.846 -0.8834 -0.8118  0.9803
  965TIP3    H224531   2.087   1.736   1.918 -1.0984 -0.3432  1.2568
  966TIP3   OH224532   2.228   5.302   6.724 -0.1785 -0.3984  0.6709
  966TIP3    H124533   2.273   5.229   6.680 -0.6470 -0.6026  0.5233
  966TIP3    H224534   2.283   5.321   6.800  0.5170 -0.1997  0.1360
  967TIP3   OH224535   5.884   4.231   1.225  0.1340  0.3591  0.0791
  967TIP3    H124536   5.904   4.176   1.301 -1.4500  0.3489  0.5384
  967TIP3    H224537   5.799   4.269   1.246 -0.4234  0.2099 -1.7690
  968TIP3   OH224538   6.713   5.313   0.750  0.2595  0.1367 -0.8487
  968TIP3    H124539   6.650   5.375   0.714  0.6304  1.2331  0.3175
  968TIP3    H224540   6.795   5.333   0.703 -0.3323 -1.7125 -2.8242
  969TIP3   OH224541   0.485   5.626   1.533  0.0689  0.0833 -0.4031
  969TIP3    H124542   0.392   5.651   1.543  0.0297  0.0331 -0.6515
  969TIP3    H224543   0.530   5.680   1.598 -0.1910 -0.2256  0.0386
  970TIP3   OH224544   3.218   1.873   7.247  0.3367 -0.5145 -0.0301
  970TIP3    H124545   3.289   1.930   7.218  1.8302 -1.8996  0.7338
  970TIP3    H224546   3.250   1.785   7.231 -0.9134 -1.1968  1.0265
  971TIP3   OH224547   0.245   3.012   6.963  0.1980  0.8398 -0.1221
  971TIP3    H124548   0.259   3.104   6.983 -4.1659  1.7631 -0.4409
  971TIP3    H224549   0.180   3.011   6.893 -0.0276 -2.4576 -0.0400
  972TIP3   OH224550   5.032   3.170   7.359 -0.0779 -0.0907 -0.2234
  972TIP3    H124551   5.006   3.131   7.276  0.6582 -0.8656 -0.1138
  972TIP3    H224552   5.040   3.263   7.341 -4.1544  0.4895  0.0604
  973TIP3   OH224553   3.151   2.557   0.959  0.0228  0.3209  0.3759
  973TIP3    H124554   3.224   2.544   1.020 -0.1522 -1.2934  0.2703
  973TIP3    H224555   3.077   2.578   1.016  0.1581  0.1427  0.6233
  974TIP3   OH224556   3.954   5.733   0.866 -0.1147 -0.1706 -0.0984
  974TIP3    H124557   3.905   5.653   0.846  1.5460 -1.6757  1.4376
  974TIP3    H224558   4.022   5.704   0.926 -0.3207  2.6771  1.6848
  975TIP3   OH224559   6.571   2.692   8.891  0.4762  0.4480  0.0337
  975TIP3    H124560   6.607   2.776   8.918  2.0356 -0.6867  1.6847
  975TIP3    H224561   6.503   2.673   8.956  0.6188  0.1066  0.0832
  976TIP3   OH224562   0.949   3.513   8.434 -0.5002  0.9008 -0.1784
  976TIP3    H124563   0.993   3.440   8.477 -2.0957  0.0534  0.0772
  976TIP3    H224564   0.991   3.518   8.348  1.1119  1.1075  0.5924
  977TIP3   OH224565   3.533   1.319   1.429  0.1636 -0.2431  0.5913
  977TIP3    H124566   3.546   1.384   1.498  0.0828 -2.1876  2.5479
  977TIP3    H224567   3.510   1.238   1.475 -1.3895 -1.3022 -1.7952
  978TIP3   OH224568   4.437   6.127   8.896  0.0809  0.6370  0.5701
  978TIP3    H124569   4.509   6.189   8.883  0.8551 -0.8384 -4.2328
  978TIP3    H224570   4.478   6.050   8.935  0.4769  0.8927  0.6602
  979TIP3   OH224571   2.312   1.270   1.908  0.2233 -0.2693  0.0393
  979TIP3    H124572   2.227   1.311   1.891 -0.1593 -0.7665  0.6874
  979TIP3    H224573   2.292   1.200   1.970  1.3995  0.8244  1.7213
  980TIP3   OH224574   1.767   4.948   7.829 -0.4682  0.2397 -0.2362
  980TIP3    H124575   1.811   4.934   7.912 -0.3075 -1.1105 -0.5354
  980TIP3    H224576   1.819   5.016   7.785  0.7707 -0.6487 -0.1862
  981TIP3   OH224577   5.548   5.954   6.973 -0.3784  0.1323 -0.0981
  981TIP3    H124578   5.604   5.883   6.943  0.1565  0.0381  1.0649
  981TIP3    H224579   5.525   6.002   6.893 -0.5468 -1.1871 -0.8548
  982TIP3   OH224580   5.458   0.752   1.007  0.2771 -0.2743  0.9544
  982TIP3    H124581   5.437   0.836   1.049 -0.6577  0.7344 -1.3994
  982TIP3    H224582   5.389   0.693   1.036 -0.0020  0.2204  1.3209
  983TIP3   OH224583   0.201   1.556   8.987 -0.0305  0.2224  0.2171
  983TIP3    H124584   0.267   1.585   8.924 -0.7304  1.7216  0.1405
  983TIP3    H224585   0.216   1.610   9.065 -0.1672 -0.5323  0.7803
  984TIP3   OH224586   0.944   1.650   1.513  0.3649  0.3092  0.3579
  984TIP3    H124587   0.928   1.744   1.503  2.1125  0.6092  0.1465
  984TIP3    H224588   0.943   1.636   1.608  0.8457  0.6855  0.4222
  985TIP3   OH224589   0.638   1.541   8.780 -0.1945 -0.1233 -0.2373
  985TIP3    H124590   0.641   1.450   8.808 -0.8115  0.2992  1.2669
  985TIP3    H224591   0.636   1.536   8.684  0.2780 -1.6588 -0.1966
  986TIP3   OH224592   1.058   6.540   1.696 -0.3171  0.3928 -0.2615
  986TIP3    H124593   1.077   6.488   1.618  2.0488  3.0517 -1.6715
  986TIP3    H224594   0.997   6.608   1.666 -0.0442  0.9365  0.3844
  987TIP3   OH224595   1.412   3.071   0.403  0.1968  0.2002 -0.4359
  987TIP3    H124596   1.396   3.066   0.308  2.1560 -0.6982 -0.7613
  987TIP3    H224597   1.389   3.161   0.426 -0.9510  0.2384 -1.6234
  988TIP3   OH224598   6.099   2.873   0.335 -0.3939 -0.1044  0.4866
  988TIP3    H124599   6.048   2.898   0.257  1.1807 -0.5441 -0.7418
  988TIP3    H224600   6.190   2.874   0.305  0.1450 -1.7977  1.9278
  989TIP3   OH224601   6.394   0.859   7.324 -0.2980  0.1051 -0.1283
  989TIP3    H124602   6.480   0.883   7.292  0.1442 -2.2748 -0.9141
  989TIP3    H224603   6.378   0.772   7.288 -2.8368  0.2794  0.3807
  990TIP3   OH224604   2.972   5.069   8.306 -0.0159  0.6275 -0.0964
  990TIP3    H124605   2.939   5.105   8.388  1.2807 -0.3995  0.9163
  990TIP3    H224606   3.019   5.141   8.265  1.0216  0.6138  1.0328
  991TIP3   OH224607   4.427   2.217   6.766  0.3631 -0.1725  0.1110
  991TIP3    H124608   4.392   2.263   6.689  1.2360  0.1180 -0.1228
  991TIP3    H224609   4.514   2.256   6.779 -0.1594  0.4910  1.8440
  992TIP3   OH224610   6.557   2.384   0.195 -0.3350  0.3853 -0.2405
  992TIP3    H124611   6.484   2.407   0.138 -0.9542 -0.4373  0.2016
  992TIP3    H224612   6.629   2.440   0.166 -1.1004  1.1136 -0.7664
  993TIP3   OH224613   6.668   1.410   0.523  0.4011  0.1811  0.9545
  993TIP3    H124614   6.597   1.468   0.551  0.2408  0.4935 -0.0490
  993TIP3    H224615   6.628   1.322   0.522 -1.2020  0.7036 -3.0834
  994TIP3   OH224616   2.658   1.570   7.170  0.1816 -0.3545 -0.7140
  994TIP3    H124617   2.586   1.555   7.231  1.3327 -2.9801  0.1213
  994TIP3    H224618   2.616   1.610   7.094 -1.4398  2.0968  1.3262
  995TIP3   OH224619   5.968   5.108   8.569 -0.3427  0.7014  0.3639
  995TIP3    H124620   6.055   5.116   8.530  0.0388 -0.7495  0.8648
  995TIP3    H224621   5.945   5.197   8.595  0.3571  1.3428 -1.0754
  996TIP3   OH224622   2.089   2.936   1.043 -0.0447  0.2494 -0.5292
  996TIP3    H124623   2.046   3.004   0.991  1.4735  0.2047 -1.9335
  996TIP3    H224624   2.151   2.985   1.098  1.3467  0.0363 -1.8387
  997TIP3   OH224625   5.676   0.542   8.018 -0.1206 -0.2134 -0.4236
  997TIP3    H124626   5.732   0.466   8.033  0.6612  0.2611 -0.8711
  997TIP3    H224627   5.718   0.589   7.946  1.6332  2.7619  2.2839
  998TIP3   OH224628   6.576   6.468   8.667 -0.3821  0.1014 -0.1678
  998TIP3    H124629   6.610   6.558   8.674  1.0823  0.0238 -3.7676
  998TIP3    H224630   6.653   6.412   8.675 -0.5321 -0.4845 -2.2293
  999TIP3   OH224631   3.443   6.621   7.614 -0.1942  0.1729  0.0337
  999TIP3    H124632   3.358   6.652   7.645 -1.0013  0.5660 -2.3474
  999TIP3    H224633   3.439   6.526   7.622 -1.5804  0.0595 -1.6497
 1000TIP3   OH224634   5.935   5.089   1.922 -0.6483  0.3358 -0.5423
 1000TIP3    H124635   5.872   5.131   1.863 -1.0983  1.6130  0.7685
 1000TIP3    H224636   5.887   5.015   1.960 -0.3951 -0.4185 -1.6382
 1001TIP3   OH224637   4.821   3.710   1.916 -0.6714  0.3336  0.5025
 1001TIP3    H124638   4.733   3.746   1.926  0.1561  2.6017  0.0041
 1001TIP3    H224639   4.839   3.714   1.822  0.7567  1.9373  0.8112
 1002TIP3   OH224640   5.652   3.179   1.820  0.3390 -0.2703 -0.2361
 1002TIP3    H124641   5.626   3.097   1.862  2.0397 -0.0782  1.3454
 1002TIP3    H224642   5.646   3.244   1.890  0.7378  0.6113 -1.0025
 1003TIP3   OH224643   4.449   5.484   0.536  0.6940 -0.1816 -0.7471
 1003TIP3    H124644   4.455   5.404   0.484  1.6505  0.9895 -2.5128
 1003TIP3    H224645   4.380   5.535   0.493  0.2213  0.0508  0.2560
 1004TIP3   OH224646   5.854   2.966   6.771 -0.3636  0.7311 -0.0725
 1004TIP3    H124647   5.798   2.896   6.736  0.1218 -0.2578  1.0454
 1004TIP3    H224648   5.800   3.044   6.768 -1.7070 -0.1267  0.6593
 1005TIP3   OH224649   5.190   2.938   8.285  0.4407 -0.2485  0.2793
 1005TIP3    H124650   5.210   2.904   8.198  0.0772 -1.2231  0.5640
 1005TIP3    H224651   5.181   3.033   8.273  0.6145 -0.3500 -0.6938
 1006TIP3   OH224652   4.055   5.095   6.314  0.2544 -0.4191 -0.0227
 1006TIP3    H124653   3.974   5.049   6.337 -0.9599  1.1078 -1.0573
 1006TIP3    H224654   4.057   5.094   6.218  0.9771  0.3514 -0.0282
 1007TIP3   OH224655   3.164   3.044   8.863  0.0490  0.0125 -0.4058
 1007TIP3    H124656   3.194   3.025   8.774 -0.0544  0.2903 -0.4989
 1007TIP3    H224657   3.137   2.958   8.897  0.2828 -0.1267 -0.5672
 1008TIP3   OH224658   6.090   5.426   1.788 -0.1660  0.8407  0.1122
 1008TIP3    H124659   6.121   5.368   1.857 -0.6511  1.4099  0.8282
 1008TIP3    H224660   6.169   5.468   1.754  0.3525 -1.0965 -1.2687
 1009TIP3   OH224661   5.943   3.248   8.203  0.9465  0.2387  0.9313
 1009TIP3    H124662   5.892   3.173   8.172 -0.2636  0.7200  1.6839
 1009TIP3    H224663   5.992   3.277   8.125  1.9591 -1.6946  0.7827
 1010TIP3   OH224664   1.420   3.678   2.220  0.0740  0.1397 -0.0789
 1010TIP3    H124665   1.345   3.729   2.249 -0.4863 -0.6265 -0.1667
 1010TIP3    H224666   1.460   3.646   2.301  0.1345  0.3087 -0.0427
 1011TIP3   OH224667   5.712   5.755   0.465 -0.0351 -0.0022 -0.0555
 1011TIP3    H124668   5.748   5.668   0.484  1.0251  1.0211  3.1112
 1011TIP3    H224669   5.620   5.737   0.442  0.2986 -1.9873 -0.0666
 1012TIP3   OH224670   3.217   2.215   1.965  0.2343 -0.2447  0.3046
 1012TIP3    H124671   3.263   2.141   1.927 -0.5566 -0.3808 -0.4338
 1012TIP3    H224672   3.265   2.236   2.045  1.5115 -0.4167 -0.3951
 1013TIP3   OH224673   0.568   6.035   0.341 -0.3808 -0.2640 -1.4292
 1013TIP3    H124674   0.492   6.084   0.372 -0.1933 -1.4846  1.2981
 1013TIP3    H224675   0.531   5.964   0.289 -1.0698 -0.3068 -0.9021
 1014TIP3   OH224676   5.744   1.175   1.391 -0.6980  0.1941  0.3927
 1014TIP3    H124677   5.829   1.217   1.404 -0.0366 -1.1239  0.4772
 1014TIP3    H224678   5.762   1.082   1.395 -1.9131 -0.1515 -1.0858
 1015TIP3   OH224679   3.068   6.437   7.233  0.1376  0.3452 -0.0838
 1015TIP3    H124680   3.026   6.378   7.170  1.8225  0.3073 -1.2381
 1015TIP3    H224681   3.091   6.514   7.181 -0.6732  1.4062  1.0810
 1016TIP3   OH224682   6.455   1.848   2.529 -0.1202  0.8863  0.3754
 1016TIP3    H124683   6.410   1.932   2.541 -2.0469  0.3172 -1.9576
 1016TIP3    H224684   6.499   1.856   2.444 -1.4915 -0.8443 -0.5823
 1017TIP3   OH224685   6.025   1.346   1.853  0.2805  0.1980  0.0305
 1017TIP3    H124686   6.075   1.422   1.881 -0.6070  0.7353  0.1871
 1017TIP3    H224687   6.077   1.309   1.782  1.7587 -0.2693  1.2989
 1018TIP3   OH224688   6.596   5.500   1.888  0.4238 -0.0791 -0.1129
 1018TIP3    H124689   6.531   5.430   1.900  0.5695 -0.3920 -1.0446
 1018TIP3    H224690   6.646   5.500   1.969  0.0675 -0.6959  0.1178
 1019TIP3   OH224691   0.525   3.237   0.760 -0.5171  0.0925  0.3213
 1019TIP3    H124692   0.553   3.172   0.825  0.2319 -0.8214 -0.8639
 1019TIP3    H224693   0.435   3.258   0.785 -1.2583 -2.3900  0.0538
 1020TIP3   OH224694   0.117   5.936   7.753  0.6532 -0.0572 -0.1976
 1020TIP3    H124695   0.070   5.985   7.820 -0.5203 -0.7361 -0.5070
 1020TIP3    H224696   0.198   5.986   7.739  0.0035  1.1636  0.2947
 1021TIP3   OH224697   2.573   3.254   0.280 -1.1511 -0.2524 -0.1484
 1021TIP3    H124698   2.535   3.333   0.319  0.8908 -0.0728  1.6614
 1021TIP3    H224699   2.655   3.240   0.328  0.9030 -0.8632 -3.4282
 1022TIP3   OH224700   1.352   6.081   8.222 -0.0144 -0.5477  0.2607
 1022TIP3    H124701   1.359   6.002   8.168  0.1420 -0.3185 -0.0563
 1022TIP3    H224702   1.434   6.085   8.270 -0.8071 -1.6749  1.8078
 1023TIP3   OH224703   1.472   5.662   0.748 -0.2510 -0.0727  0.2848
 1023TIP3    H124704   1.444   5.748   0.717 -1.0301 -0.4265 -0.0446
 1023TIP3    H224705   1.489   5.674   0.841 -0.7817  0.3434  0.3328
 1024TIP3   OH224706   1.468   4.871   8.109 -0.3749  0.1411 -0.3057
 1024TIP3    H124707   1.384   4.897   8.146 -0.8495 -1.1221 -0.4387
 1024TIP3    H224708   1.513   4.825   8.181 -0.9312 -1.5287 -0.9701
 1025TIP3   OH224709   5.560   3.511   1.507  0.2882  0.1208  1.2166
 1025TIP3    H124710   5.627   3.454   1.545  2.4721  1.7178  0.0215
 1025TIP3    H224711   5.565   3.591   1.559  1.0019  1.1180 -0.3376
 1026TIP3   OH224712   4.518   2.217   8.133  0.5950  0.4371  0.9810
 1026TIP3    H124713   4.479   2.135   8.103 -0.4006  1.0140  0.6683
 1026TIP3    H224714   4.480   2.232   8.219 -2.2014  2.4353 -0.4387
 1027TIP3   OH224715   4.348   5.395   8.582  0.1282 -0.5672 -0.2263
 1027TIP3    H124716   4.331   5.353   8.498  0.7814  1.4993 -1.4595
 1027TIP3    H224717   4.267   5.382   8.632 -1.0950 -0.0210 -1.9858
 1028TIP3   OH224718   0.538   6.079   1.500  0.9054  0.2265  0.5091
 1028TIP3    H124719   0.524   6.163   1.544 -2.9396  1.0543 -1.8407
 1028TIP3    H224720   0.470   6.022   1.534  1.7756 -1.1151  0.0886
 1029TIP3   OH224721   6.580   0.170   8.181 -0.3857 -0.4176  0.4700
 1029TIP3    H124722   6.648   0.159   8.248 -1.3380 -0.9738  1.3754
 1029TIP3    H224723   6.607   0.247   8.132  0.5179 -0.2019  1.2682
 1030TIP3   OH224724   5.550   2.668   8.195  0.2121 -0.0971 -0.3823
 1030TIP3    H124725   5.583   2.581   8.216 -1.4967 -0.1045  2.9406
 1030TIP3    H224726   5.627   2.718   8.169  1.3204 -2.3477 -1.7881
 1031TIP3   OH224727   3.863   3.561   1.794 -0.3693  0.4570 -0.2129
 1031TIP3    H124728   3.935   3.498   1.804  0.4185  0.9009 -2.4582
 1031TIP3    H224729   3.817   3.559   1.878  1.6606 -0.5936  0.9499
 1032TIP3   OH224730   2.261   5.497   1.697 -0.2472  0.4783  0.5108
 1032TIP3    H124731   2.303   5.537   1.773 -0.4577  1.2568  0.2241
 1032TIP3    H224732   2.250   5.568   1.634  0.3488 -0.2539 -0.4494
 1033TIP3   OH224733   4.023   6.611   2.310 -0.2016  0.1303  0.0539
 1033TIP3    H124734   4.078   6.569   2.244 -1.3730 -1.0913 -0.1931
 1033TIP3    H224735   4.079   6.678   2.350  0.8498  0.1781 -1.4458
 1034TIP3   OH224736   0.356   5.484   2.271  0.1629  0.2626 -0.3406
 1034TIP3    H124737   0.347   5.507   2.178  2.3574 -0.8792 -0.9086
 1034TIP3    H224738   0.372   5.567   2.315  0.0054  0.7225 -1.1347
 1035TIP3   OH224739   2.481   5.775   0.688  0.0957  0.4477 -0.1066
 1035TIP3    H124740   2.538   5.852   0.682 -0.5865  0.9222 -0.7776
 1035TIP3    H224741   2.459   5.768   0.780  1.8024 -0.1754  0.2927
 1036TIP3   OH224742   0.726   1.703   6.590  0.2484  0.6383 -0.8432
 1036TIP3    H124743   0.649   1.692   6.645  0.2102 -0.9234 -1.1651
 1036TIP3    H224744   0.733   1.797   6.576  1.7419  1.5418  3.9861
 1037TIP3   OH224745   3.501   1.644   8.091 -0.4807 -0.6929  0.3352
 1037TIP3    H124746   3.451   1.564   8.105 -1.1587 -0.2518  0.4911
 1037TIP3    H224747   3.522   1.643   7.998 -0.0273 -1.3103  0.4390
 1038TIP3   OH224748   2.280   4.219   0.314  0.0391 -0.5460 -0.3784
 1038TIP3    H124749   2.320   4.213   0.401 -1.4801  0.1203  0.4010
 1038TIP3    H224750   2.281   4.312   0.293 -1.3082 -0.4686 -0.2044
 1039TIP3   OH224751   3.410   2.374   0.267 -0.0614 -0.6228 -0.1754
 1039TIP3    H124752   3.429   2.332   0.351  0.2516  0.6147  0.3873
 1039TIP3    H224753   3.391   2.465   0.288  0.3162 -0.2095 -1.4691
 1040TIP3   OH224754   0.441   2.307   7.816  0.3616 -0.2782  0.5589
 1040TIP3    H124755   0.370   2.344   7.764 -0.1457 -1.6017  0.2637
 1040TIP3    H224756   0.469   2.230   7.767  1.0124 -0.6002  1.4069
 1041TIP3   OH224757   2.323   1.060   7.492 -0.0165  0.4268  0.2208
 1041TIP3    H124758   2.276   1.020   7.418  2.1509 -0.2077 -0.9076
 1041TIP3    H224759   2.296   1.009   7.568  1.2074 -2.0941 -0.9000
 1042TIP3   OH224760   4.153   0.028   0.354 -0.0749  0.5568  0.5315
 1042TIP3    H124761   4.175   0.116   0.323 -0.7472  0.3014 -0.7328
 1042TIP3    H224762   4.237  -0.019   0.355 -0.1525  0.2198 -2.1624
 1043TIP3   OH224763   4.831   6.448   1.468 -0.1517 -0.1245 -0.2783
 1043TIP3    H124764   4.763   6.405   1.519 -0.7649 -0.3820 -1.2769
 1043TIP3    H224765   4.913   6.419   1.508 -0.6107  0.6227  1.2780
 1044TIP3   OH224766   3.432   4.066   0.659 -0.5841  0.1618 -0.1617
 1044TIP3    H124767   3.409   4.050   0.567 -0.6335 -0.6407 -0.0122
 1044TIP3    H224768   3.522   4.098   0.656 -0.5296 -0.0207 -0.4760
 1045TIP3   OH224769   4.756   5.737   6.796  0.3284  0.3830  0.1605
 1045TIP3    H124770   4.678   5.706   6.749  0.8761 -0.2967 -0.3232
 1045TIP3    H224771   4.733   5.826   6.823 -1.1447 -0.2815  1.2585
 1046TIP3   OH224772   1.033   4.430   1.591  0.1095  0.1712 -0.8087
 1046TIP3    H124773   0.945   4.439   1.628 -0.0546 -1.1269 -0.8350
 1046TIP3    H224774   1.088   4.484   1.647 -0.3156 -0.8907  0.6983
 1047TIP3   OH224775   4.582   3.839   1.906  0.2800 -0.3234  0.0127
 1047TIP3    H124776   4.550   3.914   1.957  0.6476 -0.8274  1.0266
 1047TIP3    H224777   4.625   3.878   1.830  0.9840  0.5412  0.8180
 1048TIP3   OH224778   2.619   0.688   2.107  0.2409  0.8221 -0.4583
 1048TIP3    H124779   2.597   0.692   2.200  1.7113  1.4335 -0.1106
 1048TIP3    H224780   2.713   0.674   2.105  0.1597  0.3312 -1.8702
 1049TIP3   OH224781   1.641   5.729   2.484  0.2774  0.2803 -0.7512
 1049TIP3    H124782   1.723   5.770   2.457  2.2217 -2.6062  0.3485
 1049TIP3    H224783   1.586   5.734   2.405  1.2765  2.5986 -1.4117
 1050TIP3   OH224784   6.389   5.329   7.461 -0.1154  0.0373  0.1467
 1050TIP3    H124785   6.381   5.263   7.393 -1.5429  1.2235 -0.9222
 1050TIP3    H224786   6.392   5.412   7.414  1.6064  0.7711  1.4445
 1051TIP3   OH224787   1.177   2.976   0.165 -0.2380  0.1464 -0.1731
 1051TIP3    H124788   1.171   3.034   0.242  0.4411 -2.0629  1.6562
 1051TIP3    H224789   1.262   2.997   0.127  0.1444  0.1633  0.6517
 1052TIP3   OH224790   1.580   5.429   0.256  0.7700  0.1290 -0.1126
 1052TIP3    H124791   1.583   5.457   0.347  0.0439 -1.0071  0.2663
 1052TIP3    H224792   1.672   5.417   0.232  0.9547  0.2969  0.4951
 1053TIP3   OH224793   2.498   6.774   1.280 -0.9898 -0.0594 -0.6550
 1053TIP3    H124794   2.458   6.850   1.323 -0.9653 -0.5174  0.1855
 1053TIP3    H224795   2.442   6.700   1.305 -0.0735 -0.5871 -0.1045
 1054TIP3   OH224796   4.207   4.727   1.916 -0.1370  0.0712 -0.1903
 1054TIP3    H124797   4.297   4.755   1.903 -0.1872  1.0802  1.3559
 1054TIP3    H224798   4.215   4.639   1.954  0.1419 -0.2334 -0.9257
 1055TIP3   OH224799   0.517   3.249   8.434  0.1939 -0.6846 -0.3915
 1055TIP3    H124800   0.568   3.302   8.373  0.5705 -0.6224 -0.0200
 1055TIP3    H224801   0.579   3.223   8.501 -0.2925 -0.4785  0.1456
 1056TIP3   OH224802   5.555   2.929   8.453  0.1445 -0.0840  0.2433
 1056TIP3    H124803   5.557   2.833   8.457  0.9080 -0.2267 -2.1807
 1056TIP3    H224804   5.497   2.954   8.525 -0.7246 -2.4000  0.4422
 1057TIP3   OH224805   0.659   5.709   6.902  0.3330  0.2905 -0.7592
 1057TIP3    H124806   0.704   5.786   6.866 -0.7520  0.3169 -2.1893
 1057TIP3    H224807   0.588   5.746   6.954 -1.7238  0.4112 -3.4054
 1058TIP3   OH224808   3.471   0.971   7.069  0.2701 -0.7056 -0.0292
 1058TIP3    H124809   3.378   0.970   7.092 -0.1646  0.2137 -1.6132
 1058TIP3    H224810   3.508   0.896   7.115 -1.1225 -0.7132  1.1378
 1059TIP3   OH224811   2.518   3.156   7.044 -0.0495  0.3973  0.4486
 1059TIP3    H124812   2.505   3.191   7.132  1.7077  0.2733  0.7942
 1059TIP3    H224813   2.479   3.221   6.986  2.3213  2.5928  1.1131
 1060TIP3   OH224814   5.849   6.551   1.774 -0.2461  0.2423 -0.5754
 1060TIP3    H124815   5.853   6.616   1.845  0.7116  0.4240 -0.7864
 1060TIP3    H224816   5.899   6.591   1.703 -1.1805  0.0509 -1.3593
 1061TIP3   OH224817   2.552   0.510   8.620  0.5085  0.0225 -0.7057
 1061TIP3    H124818   2.578   0.482   8.708 -0.9271  0.3587 -0.1448
 1061TIP3    H224819   2.462   0.541   8.630  0.8145  1.4532 -2.0091
 1062TIP3   OH224820   1.291   1.673   1.062  0.4020 -0.2088  0.4104
 1062TIP3    H124821   1.245   1.723   1.130  1.2850  0.9447  0.2050
 1062TIP3    H224822   1.242   1.592   1.054 -0.6703  0.3253  1.2780
 1063TIP3   OH224823   0.073   2.454   0.497  0.1015 -0.2634 -0.9073
 1063TIP3    H124824   0.126   2.389   0.450 -0.6293 -2.0017  0.5393
 1063TIP3    H224825  -0.013   2.450   0.454 -0.2723 -1.1202 -0.1144
 1064TIP3   OH224826   6.201   0.344   8.654 -0.3888  0.3925  0.3751
 1064TIP3    H124827   6.161   0.312   8.735 -0.2564  4.0051  2.0552
 1064TIP3    H224828   6.291   0.313   8.658 -0.1814  1.0928  2.0533
 1065TIP3   OH224829   3.530   1.474   8.887 -0.4565 -0.0367  0.0471
 1065TIP3    H124830   3.615   1.461   8.845 -0.4105  0.7426 -0.1169
 1065TIP3    H224831   3.498   1.557   8.850 -1.3695 -0.4202 -0.0303
 1066TIP3   OH224832   6.545   2.374   8.826  0.6691 -0.4065  0.2016
 1066TIP3    H124833   6.456   2.406   8.810  1.2308  0.7206 -0.8385
 1066TIP3    H224834   6.533   2.292   8.874 -0.9336 -0.3934 -0.1260
 1067TIP3   OH224835   1.899   5.838   1.820 -0.2638 -0.2595 -0.4303
 1067TIP3    H124836   1.987   5.867   1.840 -1.2014  1.6549  1.2846
 1067TIP3    H224837   1.848   5.858   1.899 -1.8799 -3.0451 -0.6109
 1068TIP3   OH224838   3.911   5.698   1.539  0.3667  0.1579 -0.1343
 1068TIP3    H124839   3.872   5.622   1.583 -1.3684  1.6122  1.0227
 1068TIP3    H224840   3.920   5.672   1.448  1.1433 -1.8989  0.4876
 1069TIP3   OH224841   1.552   1.869   1.345 -0.1318 -0.2623 -0.1598
 1069TIP3    H124842   1.546   1.800   1.280  0.6034  0.9475 -1.5796
 1069TIP3    H224843   1.483   1.931   1.321  0.4077  0.3991 -0.0505
 1070TIP3   OH224844   1.236   5.238   0.274 -0.3666 -0.2463  0.4613
 1070TIP3    H124845   1.280   5.295   0.338 -1.5192  0.0792  0.9760
 1070TIP3    H224846   1.155   5.212   0.317 -1.1773  0.0018 -0.8805
 1071TIP3   OH224847   1.274   3.319   8.508  0.1247 -0.4030 -0.1027
 1071TIP3    H124848   1.325   3.273   8.575 -0.7294 -0.0229  0.8447
 1071TIP3    H224849   1.314   3.293   8.425  1.5592 -0.4785  0.5660
 1072TIP3   OH224850   1.653   5.140   1.001 -0.4050 -0.1766 -0.1883
 1072TIP3    H124851   1.693   5.075   0.943 -1.3577 -0.2416 -0.7889
 1072TIP3    H224852   1.616   5.089   1.072 -0.9684 -0.2827 -0.5516
 1073TIP3   OH224853   1.430   6.093   0.683  0.1347  0.3057  0.3782
 1073TIP3    H124854   1.406   6.106   0.591 -1.3183 -2.6236  0.2323
 1073TIP3    H224855   1.521   6.063   0.680  0.0221 -0.0016 -0.1485
 1074TIP3   OH224856   0.411   6.046   1.824  0.4559  0.3524  0.0669
 1074TIP3    H124857   0.324   6.058   1.785  0.3023 -1.0897 -0.0713
 1074TIP3    H224858   0.397   5.986   1.897  1.0517  1.5886  1.2631
 1075TIP3   OH224859   6.494   6.636   7.809 -0.3528 -0.9233 -0.2170
 1075TIP3    H124860   6.451   6.632   7.894 -0.4920  0.4664 -0.2026
 1075TIP3    H224861   6.423   6.651   7.747 -0.1214 -0.6209 -0.4165
 1076TIP3   OH224862   2.561   2.523   7.826 -0.4509  0.0253  0.1975
 1076TIP3    H124863   2.471   2.507   7.856 -0.2084  2.2243  2.4478
 1076TIP3    H224864   2.610   2.446   7.857 -1.1722 -0.0950  1.0964
 1077TIP3   OH224865   5.420   5.709   6.924 -0.1478  0.2216  0.8003
 1077TIP3    H124866   5.413   5.703   7.020  2.0150 -2.2891  0.9037
 1077TIP3    H224867   5.513   5.716   6.907 -0.5350  1.3128 -1.1773
 1078TIP3   OH224868   3.824   0.744   0.849  0.5482 -0.2762 -0.3306
 1078TIP3    H124869   3.766   0.669   0.864  0.1708 -0.0703 -0.7204
 1078TIP3    H224870   3.765   0.813   0.817  0.8193  0.3319  0.4749
 1079TIP3   OH224871   0.368   5.792   0.156 -0.1563 -0.0564  0.2488
 1079TIP3    H124872   0.321   5.733   0.098  0.5684 -0.9418  0.5392
 1079TIP3    H224873   0.453   5.750   0.169  0.7942  1.5890 -0.3929
 1080TIP3   OH224874   2.359   2.963   6.727  0.0934  0.3505 -0.3970
 1080TIP3    H124875   2.344   3.052   6.759  0.1087  0.7128 -1.3766
 1080TIP3    H224876   2.450   2.945   6.748 -0.3120 -0.0263  1.1846
 1081TIP3   OH224877   1.383   2.033   1.077 -0.0348  0.5439  0.8659
 1081TIP3    H124878   1.302   2.026   1.027 -0.3010  0.5138  1.2938
 1081TIP3    H224879   1.452   2.037   1.011 -0.4235  1.1098  0.4868
 1082TIP3   OH224880   1.212   1.532   0.227  0.2043  0.4182  0.1714
 1082TIP3    H124881   1.278   1.538   0.296  1.1564 -0.3562 -0.6563
 1082TIP3    H224882   1.150   1.467   0.259  0.2996  0.5134  0.5628
 1083TIP3   OH224883   5.029   5.085   1.703  0.1357  0.0680 -0.3456
 1083TIP3    H124884   5.044   5.000   1.745  0.9443  0.0426 -0.6636
 1083TIP3    H224885   5.117   5.115   1.679 -0.2211  0.5705 -1.0521
 1084TIP3   OH224886   3.074   6.786   1.856  0.1090  0.1727 -0.2799
 1084TIP3    H124887   2.987   6.779   1.895  0.8806 -0.9969  1.3666
 1084TIP3    H224888   3.131   6.737   1.916  2.1142  1.9187 -0.6465
 1085TIP3   OH224889   2.012   4.445   7.716  0.4689  0.0921 -0.5502
 1085TIP3    H124890   2.083   4.397   7.672 -0.9044 -1.1274 -1.5222
 1085TIP3    H224891   1.976   4.382   7.778  1.1765  1.2067  1.0580
 1086TIP3   OH224892   0.896   6.074   8.050  0.0914  0.3662 -0.7038
 1086TIP3    H124893   0.858   6.152   8.092  0.1937  0.5908 -1.0305
 1086TIP3    H224894   0.869   6.002   8.107  2.9000  0.9638  1.5720
 1087TIP3   OH224895   2.637   2.975   7.358  0.7121 -1.0878 -0.4803
 1087TIP3    H124896   2.691   2.972   7.278  2.3133  0.3256  0.4673
 1087TIP3    H224897   2.699   2.960   7.429 -0.2653 -0.1356  0.6249
 1088TIP3   OH224898   6.292   1.141   7.701  0.0665  0.1126 -0.1441
 1088TIP3    H124899   6.346   1.207   7.744 -1.1984  1.2729 -0.2896
 1088TIP3    H224900   6.355   1.074   7.673  1.0853 -0.1629  2.4681
 1089TIP3   OH224901   6.077   5.249   2.900 -1.0036  0.6182 -0.0398
 1089TIP3    H124902   6.109   5.170   2.857 -1.3126  0.8065 -0.6435
 1089TIP3    H224903   6.151   5.281   2.951 -1.8511 -1.9650  3.1138
 1090TIP3   OH224904   3.381   4.313   8.957  0.1693  0.7335  0.1958
 1090TIP3    H124905   3.362   4.220   8.969  2.2462  0.0990 -0.9491
 1090TIP3    H224906   3.297   4.352   8.932 -0.7871 -0.7614  0.9767
 1091TIP3   OH224907   0.196   1.616   7.779 -0.3163 -0.1938  0.2882
 1091TIP3    H124908   0.263   1.566   7.734  0.1300  2.3947 -2.2699
 1091TIP3    H224909   0.114   1.569   7.760  0.3926 -1.7199  0.8705
 1092TIP3   OH224910   6.328   2.064   0.921 -0.4339  0.1116 -0.4857
 1092TIP3    H124911   6.289   1.978   0.904  0.6908 -0.4938 -0.1117
 1092TIP3    H224912   6.422   2.050   0.910 -0.2819  1.4694 -1.1035
 1093TIP3   OH224913   4.005   4.204   2.186  0.3312 -0.2776 -0.4697
 1093TIP3    H124914   3.959   4.270   2.239  1.6524  1.3088 -1.1981
 1093TIP3    H224915   3.952   4.196   2.107  0.2897  0.0889 -0.4805
 1094TIP3   OH224916   3.822   4.702   7.026 -0.1618 -0.1638 -0.0037
 1094TIP3    H124917   3.774   4.655   6.958 -2.1370  1.3659  0.2438
 1094TIP3    H224918   3.876   4.765   6.979 -0.7624  0.1970 -0.2315
 1095TIP3   OH224919   1.492   4.567   0.854 -0.1455  0.5033  0.1141
 1095TIP3    H124920   1.420   4.505   0.838 -0.7557  1.2947 -0.2680
 1095TIP3    H224921   1.497   4.619   0.774  1.1095  0.2274 -0.0062
 1096TIP3   OH224922   5.049   3.812   8.438  0.7082 -0.0635  0.1012
 1096TIP3    H124923   5.036   3.896   8.393  0.4978  1.0743  2.1383
 1096TIP3    H224924   5.144   3.801   8.440  0.8205  0.9358  1.1594
 1097TIP3   OH224925   3.341   2.973   1.384 -0.5154  0.1867  0.1133
 1097TIP3    H124926   3.417   2.914   1.379 -1.8807 -1.6834  0.1674
 1097TIP3    H224927   3.338   3.015   1.299 -0.3573 -1.0025 -0.5112
 1098TIP3   OH224928   4.687   4.996   0.533 -0.2862 -0.3742  0.3036
 1098TIP3    H124929   4.598   4.976   0.507  0.0715  0.7131 -1.9623
 1098TIP3    H224930   4.734   5.011   0.451  1.1605  2.4320  1.4922
 1099TIP3   OH224931   3.015   5.341   7.532 -0.4407 -0.4425 -0.0104
 1099TIP3    H124932   2.989   5.271   7.472 -1.8360  2.0701 -2.5730
 1099TIP3    H224933   2.941   5.402   7.530  1.0605  1.5207  1.4224
 1100TIP3   OH224934   4.460   2.306   0.831 -0.0272  0.2350  0.6857
 1100TIP3    H124935   4.494   2.298   0.919 -0.3667 -1.4276  0.7015
 1100TIP3    H224936   4.367   2.285   0.839  0.1342 -0.8972 -0.2021
 1101TIP3   OH224937   0.920   2.411   8.369  0.1360  0.0457 -0.1762
 1101TIP3    H124938   0.885   2.351   8.303  0.0598  0.2756 -0.3476
 1101TIP3    H224939   0.882   2.496   8.346  2.0192  0.6418 -1.3324
 1102TIP3   OH224940   2.205   1.086   1.681 -0.3733 -0.1579  0.2578
 1102TIP3    H124941   2.192   1.056   1.591 -1.5063 -0.7564  0.5988
 1102TIP3    H224942   2.272   1.154   1.674  0.9244 -1.4867 -0.7699
 1103TIP3   OH224943   2.712   2.649   7.081 -0.2831 -0.3972 -0.6659
 1103TIP3    H124944   2.684   2.615   7.166  1.5892 -0.1653  0.0847
 1103TIP3    H224945   2.639   2.630   7.023 -1.6929 -0.3989  1.0256
 1104TIP3   OH224946   1.210   4.342   0.536  0.4582 -0.1124  0.1823
 1104TIP3    H124947   1.269   4.283   0.583  1.9581  3.0095  2.4865
 1104TIP3    H224948   1.125   4.330   0.579  1.0201  0.2178  1.4138
 1105TIP3   OH224949   2.543   5.903   8.790  0.4432 -0.2910  0.6360
 1105TIP3    H124950   2.463   5.851   8.802 -0.2947  0.2243 -1.6004
 1105TIP3    H224951   2.604   5.844   8.745  0.6980 -0.1591  0.8074
 1106TIP3   OH224952   4.873   2.789   0.203  0.0844  0.0968  0.4581
 1106TIP3    H124953   4.892   2.703   0.164  0.6649  0.2166  0.4693
 1106TIP3    H224954   4.779   2.800   0.191  0.1070 -0.2662 -0.1052
 1107TIP3   OH224955   5.905   0.410   8.566  0.2252  0.0175  0.6769
 1107TIP3    H124956   5.977   0.349   8.549  2.4550  2.5248  0.6501
 1107TIP3    H224957   5.931   0.491   8.523 -2.7945  0.9526  0.4201
 1108TIP3   OH224958   4.527   6.032   0.795 -0.2442  0.1587  0.4418
 1108TIP3    H124959   4.445   5.997   0.829 -0.4778  1.2551  1.0549
 1108TIP3    H224960   4.593   6.007   0.859 -0.5657  1.5968  1.3821
 1109TIP3   OH224961   5.960   2.477   0.665 -0.2813  0.5981 -0.3552
 1109TIP3    H124962   6.011   2.470   0.584  2.2211 -0.6474  1.2044
 1109TIP3    H224963   5.933   2.387   0.684  0.0530  0.7085  0.6986
 1110TIP3   OH224964   5.773   6.162   1.892  0.0700 -0.0155 -0.2415
 1110TIP3    H124965   5.854   6.210   1.876  0.0484  0.0379 -0.1904
 1110TIP3    H224966   5.750   6.182   1.982  0.8408 -1.2831  0.2690
 1111TIP3   OH224967   5.734   6.209   1.173  0.1160  0.2492 -0.3448
 1111TIP3    H124968   5.684   6.244   1.247  0.1846 -0.2968 -0.0350
 1111TIP3    H224969   5.808   6.163   1.214  0.1786 -0.0141 -0.7535
 1112TIP3   OH224970   4.053   0.228   2.347  0.4666  0.0958  0.2630
 1112TIP3    H124971   4.082   0.138   2.363 -0.4502 -0.6607 -1.9465
 1112TIP3    H224972   4.134   0.276   2.330  0.8419 -0.7358 -0.3680
 1113TIP3   OH224973   3.443   1.490   7.389 -0.0982  0.6688 -0.2702
 1113TIP3    H124974   3.415   1.409   7.347 -1.7891 -0.3798  2.6090
 1113TIP3    H224975   3.535   1.475   7.410 -0.5852 -0.8818  0.9191
 1114TIP3   OH224976   4.079   6.768   1.505 -0.5200 -0.0045 -0.5396
 1114TIP3    H124977   4.054   6.738   1.418  0.6008  0.4190 -1.0362
 1114TIP3    H224978   4.175   6.762   1.506 -0.5068  0.0216  0.6581
 1115TIP3   OH224979   2.847   4.555   0.574 -0.0665  0.1254  0.7410
 1115TIP3    H124980   2.865   4.482   0.632 -0.6721 -1.0165 -0.4623
 1115TIP3    H224981   2.859   4.633   0.629 -0.4148 -0.8955  2.3161
 1116TIP3   OH224982   1.587   4.669   8.683 -0.0642  0.1239 -0.3490
 1116TIP3    H124983   1.659   4.657   8.744  0.5832  2.9492 -0.3869
 1116TIP3    H224984   1.577   4.765   8.677 -1.1207 -0.0717 -3.4751
 1117TIP3   OH224985   2.804   5.343   0.273 -0.3143  0.5195 -0.0458
 1117TIP3    H124986   2.759   5.260   0.258  1.3755 -0.7066  1.2562
 1117TIP3    H224987   2.895   5.325   0.248  0.2805  1.6923  1.1686
 1118TIP3   OH224988   2.184   0.674   1.312 -0.3476 -0.4753 -0.0134
 1118TIP3    H124989   2.103   0.724   1.296  0.8533  2.6996  2.6593
 1118TIP3    H224990   2.165   0.623   1.391  0.0539 -0.2165  0.2505
 1119TIP3   OH224991   6.453   6.647   6.772  0.5911 -0.5565  0.2430
 1119TIP3    H124992   6.548   6.649   6.784  0.5376 -0.0029  0.6271
 1119TIP3    H224993   6.439   6.690   6.687  0.5345  1.6943  1.3243
 1120TIP3   OH224994   1.605   4.305   8.722 -0.6386 -0.5350 -0.2802
 1120TIP3    H124995   1.621   4.328   8.631  1.1274 -0.9685 -0.1000
 1120TIP3    H224996   1.603   4.210   8.724 -0.1939 -0.5388  0.2085
 1121TIP3   OH224997   4.718   6.275   2.003 -0.2809 -0.0873  0.2340
 1121TIP3    H124998   4.709   6.313   1.916  0.1865  0.8154  0.5626
 1121TIP3    H224999   4.635   6.292   2.046 -0.6270 -0.8148 -0.1326
 1122TIP3   OH225000   4.963   5.914   7.001  0.3209 -0.7196 -0.1666
 1122TIP3    H125001   4.994   5.838   7.050  1.1317 -0.1550  0.2135
 1122TIP3    H225002   5.039   5.973   6.996 -0.7806  0.9690  1.3298
 1123TIP3   OH225003   2.209   1.134   7.215 -0.1116 -0.2082  0.2237
 1123TIP3    H125004   2.197   1.227   7.238  1.3166 -0.7185  3.5866
 1123TIP3    H225005   2.296   1.130   7.175 -0.7658  0.0347 -1.3047
 1124TIP3   OH225006   1.635   1.129   8.432 -0.3902 -0.3889 -0.3916
 1124TIP3    H125007   1.714   1.077   8.444  0.2768  1.1051  2.8624
 1124TIP3    H225008   1.665   1.220   8.435 -2.0918  0.2196 -0.5298
 1125TIP3   OH225009   1.612   4.206   0.994  0.4696 -0.0846  0.0023
 1125TIP3    H125010   1.645   4.136   0.938  1.6058 -0.1325  0.7052
 1125TIP3    H225011   1.674   4.277   0.984  0.7378 -0.1228  1.2278
 1126TIP3   OH225012   2.254   0.768   8.371  0.1697  0.4378 -0.3744
 1126TIP3    H125013   2.191   0.813   8.314  1.0113  1.4105 -0.5698
 1126TIP3    H225014   2.213   0.684   8.389 -1.2362  1.0721 -0.4128
 1127TIP3   OH225015   1.311   5.401   8.531 -0.5816  0.4338  0.5106
 1127TIP3    H125016   1.299   5.486   8.490 -1.6506  0.6938  1.3335
 1127TIP3    H225017   1.275   5.339   8.468  0.8193  0.4967 -0.3973
 1128TIP3   OH225018   4.846   0.936   6.412 -0.0597 -0.0604  0.1100
 1128TIP3    H125019   4.764   0.903   6.450  0.2627 -0.0249  0.8408
 1128TIP3    H225020   4.866   0.874   6.342  0.1056 -0.9578  0.9326
 1129TIP3   OH225021   2.062   1.148   0.990 -0.0645 -0.1429  0.0577
 1129TIP3    H125022   2.083   1.062   0.953 -0.3874 -0.0549 -0.3428
 1129TIP3    H225023   2.022   1.196   0.917  1.5123  0.8835 -0.1663
 1130TIP3   OH225024   1.842   4.475   2.165  0.2140 -0.3393  0.1200
 1130TIP3    H125025   1.894   4.554   2.181  0.7312 -0.4308 -1.0388
 1130TIP3    H225026   1.799   4.492   2.081  0.6892 -1.4670 -0.3668
 1131TIP3   OH225027   2.486   5.031   6.913  0.0233  0.1123 -0.1818
 1131TIP3    H125028   2.518   4.947   6.879 -1.2235 -0.6215  0.3938
 1131TIP3    H225029   2.558   5.092   6.897  0.2150 -0.6188 -2.3854
 1132TIP3   OH225030   2.436   2.919   1.569  0.0416 -0.1637  0.4079
 1132TIP3    H125031   2.377   2.920   1.644  0.0659  0.5189  0.4238
 1132TIP3    H225032   2.380   2.899   1.494 -0.4569  1.7201  0.2371
 1133TIP3   OH225033   6.435   3.679   7.055 -0.1940 -0.7126 -0.5942
 1133TIP3    H125034   6.512   3.729   7.026 -0.0200 -1.5402 -1.6229
 1133TIP3    H225035   6.382   3.669   6.976 -0.9039 -0.9466 -0.0918
 1134TIP3   OH225036   3.322   2.917   0.887  0.2938 -0.0366 -0.1774
 1134TIP3    H125037   3.336   2.962   0.804  0.7184 -0.7462 -0.4948
 1134TIP3    H225038   3.232   2.941   0.912  0.0232 -0.1180 -1.0318
 1135TIP3   OH225039   4.922   4.834   0.405  0.1223  0.3174 -1.1488
 1135TIP3    H125040   5.004   4.805   0.444 -0.2532  0.7912  0.0435
 1135TIP3    H225041   4.867   4.755   0.402  0.0538  0.3338 -0.4320
 1136TIP3   OH225042   0.442   1.167   7.888  0.2327  0.4138 -0.1151
 1136TIP3    H125043   0.385   1.221   7.942  0.1878  1.5703 -1.2611
 1136TIP3    H225044   0.527   1.211   7.891  0.9744 -1.0156  1.1747
 1137TIP3   OH225045   4.894   0.574   0.339  0.7979 -0.2515 -0.2677
 1137TIP3    H125046   4.834   0.505   0.368  0.2921 -0.2331 -1.2267
 1137TIP3    H225047   4.837   0.645   0.311  1.3219  0.7555  1.1201
 1138TIP3   OH225048   6.757   0.112   0.705  0.1738  0.5248  0.4967
 1138TIP3    H125049   6.666   0.123   0.731 -0.1505 -0.7008 -0.0585
 1138TIP3    H225050   6.769   0.017   0.700  1.6972  0.6424  1.3227
 1139TIP3   OH225051   0.692   5.839   8.787 -0.4867  0.8654  0.0582
 1139TIP3    H125052   0.661   5.903   8.722  1.1271  1.8287  0.1561
 1139TIP3    H225053   0.706   5.891   8.866  1.8177  0.6504 -0.1412
 1140TIP3   OH225054   6.585   0.670   1.837 -0.0041  0.1588  0.4834
 1140TIP3    H125055   6.531   0.698   1.764 -0.0336 -0.2425  0.3505
 1140TIP3    H225056   6.661   0.629   1.796  0.8113  1.4414  0.6460
 1141TIP3   OH225057   3.757   1.826   7.537  0.0164  0.5989 -0.5663
 1141TIP3    H125058   3.829   1.871   7.581 -0.4506  0.6716  0.1232
 1141TIP3    H225059   3.685   1.889   7.537 -0.3038  0.2347 -0.5424
 1142TIP3   OH225060   4.677   1.338   8.444  0.2848  0.2429  0.3457
 1142TIP3    H125061   4.624   1.274   8.492  0.5238  0.5055  0.9744
 1142TIP3    H225062   4.613   1.393   8.399  0.0944 -1.3882 -1.5088
 1143TIP3   OH225063   3.095   4.392   0.340  0.3988  0.4509  0.2936
 1143TIP3    H125064   3.004   4.368   0.321  0.0492  0.5715  1.7577
 1143TIP3    H225065   3.125   4.326   0.402  1.1992  0.6407  0.1235
 1144TIP3   OH225066   5.341   5.656   8.550 -0.2591  0.1037 -0.2402
 1144TIP3    H125067   5.381   5.737   8.582 -0.7181 -0.2510  1.2611
 1144TIP3    H225068   5.415   5.608   8.511  0.1649  0.8812 -0.4233
 1145TIP3   OH225069   0.483   2.770   8.828  0.4495 -0.2965 -0.3753
 1145TIP3    H125070   0.410   2.759   8.768  0.2133  0.5958 -0.2657
 1145TIP3    H225071   0.488   2.865   8.843  0.4964 -0.5018  1.0250
 1146TIP3   OH225072   4.974   5.176   8.719 -0.1014 -0.5846 -0.4086
 1146TIP3    H125073   4.938   5.250   8.670 -1.3022 -0.6667  0.3093
 1146TIP3    H225074   5.068   5.193   8.721  0.0420 -0.7114 -2.9179
 1147TIP3   OH225075   5.421   3.225   1.041  0.3923  0.5960 -0.5106
 1147TIP3    H125076   5.437   3.292   1.108 -0.4626  1.8098 -1.4882
 1147TIP3    H225077   5.507   3.209   1.003  0.4080  2.2564 -1.2716
 1148TIP3   OH225078   2.965   2.300   0.148  0.1170 -0.1973 -0.8308
 1148TIP3    H125079   2.884   2.312   0.198  1.5140 -1.2406  1.8673
 1148TIP3    H225080   2.979   2.206   0.147  1.0552 -0.0668 -1.7077
 1149TIP3   OH225081   5.596   3.348   0.572  0.3609  0.5619 -0.7455
 1149TIP3    H125082   5.585   3.385   0.660  1.0812 -0.6604 -0.1252
 1149TIP3    H225083   5.656   3.275   0.584 -1.7387 -1.4354 -1.7747
 1150TIP3   OH225084   4.956   4.727   1.665 -0.4298 -0.2226  0.3045
 1150TIP3    H125085   4.893   4.773   1.721  1.6267 -0.8643  3.4304
 1150TIP3    H225086   5.041   4.746   1.705  0.9029 -3.1791 -0.8331
 1151TIP3   OH225087   6.277   5.035   6.510 -0.9766 -0.3736  0.0223
 1151TIP3    H125088   6.341   5.015   6.441  1.4679  1.3778  1.5963
 1151TIP3    H225089   6.264   4.952   6.556  0.1194 -0.7892 -0.3841
 1152TIP3   OH225090   0.427   2.054   8.401 -0.1817  0.0617 -0.6444
 1152TIP3    H125091   0.449   2.120   8.466 -0.5167  1.2602 -1.6989
 1152TIP3    H225092   0.342   2.020   8.428  1.4867 -2.5314  1.8569
 1153TIP3   OH225093   1.124   2.404   7.867  0.4177  0.4421  0.2792
 1153TIP3    H125094   1.097   2.414   7.958  0.0678  1.9574  0.0471
 1153TIP3    H225095   1.202   2.348   7.870 -0.9229 -1.4893  1.2616
 1154TIP3   OH225096   1.875   4.250   7.878  0.3528 -0.1745 -0.4356
 1154TIP3    H125097   1.828   4.244   7.961  1.3337  0.7289  0.2052
 1154TIP3    H225098   1.935   4.174   7.878  1.2361  0.5042  0.2682
 1155TIP3   OH225099   2.323   0.362   0.477 -0.0509  0.4546  0.0702
 1155TIP3    H125100   2.291   0.300   0.543 -0.5486 -0.4897 -1.0323
 1155TIP3    H225101   2.416   0.371   0.496  0.5985 -2.5453 -1.1924
 1156TIP3   OH225102   2.194   6.271   0.401 -0.5381 -0.1252  0.7442
 1156TIP3    H125103   2.201   6.356   0.358 -1.1326 -1.4089 -2.0762
 1156TIP3    H225104   2.135   6.287   0.475 -2.4731  1.5015 -1.0181
 1157TIP3   OH225105   5.062   5.155   7.967  0.0548 -0.1526  0.2235
 1157TIP3    H125106   5.003   5.080   7.965  0.1431 -0.4409  3.3397
 1157TIP3    H225107   5.010   5.227   7.932 -0.8466 -1.1678 -0.5866
 1158TIP3   OH225108   2.759   4.625   6.414 -0.4933  1.0798  0.0940
 1158TIP3    H125109   2.685   4.677   6.446 -0.8920  0.7084 -0.2334
 1158TIP3    H225110   2.807   4.685   6.357 -0.5213  1.3301  0.3307
 1159TIP3   OH225111   6.602   6.728   0.414  0.0231 -0.1808  0.0296
 1159TIP3    H125112   6.587   6.657   0.352  0.8353  1.0296 -1.6379
 1159TIP3    H225113   6.631   6.685   0.494 -1.1656 -1.7997 -0.3723
 1160TIP3   OH225114   4.077   3.677   7.677  0.2304 -0.2764 -0.0865
 1160TIP3    H125115   4.103   3.662   7.768  2.2043  0.5397 -0.4630
 1160TIP3    H225116   4.106   3.766   7.657  0.5582 -0.7160 -1.7438
 1161TIP3   OH225117   2.252   1.893   0.291 -0.5421 -0.3858  0.3138
 1161TIP3    H125118   2.271   1.939   0.210  0.0986 -3.0870 -1.2033
 1161TIP3    H225119   2.308   1.934   0.356  1.8593 -0.5962 -1.5058
 1162TIP3   OH225120   6.272   4.116   0.718 -0.8016  0.7367 -0.2483
 1162TIP3    H125121   6.252   4.209   0.710 -3.1935  0.4166  1.1480
 1162TIP3    H225122   6.193   4.072   0.688 -0.1170 -0.8497  0.1652
 1163TIP3   OH225123   3.545   5.845   1.419  0.0804 -0.0916 -0.2130
 1163TIP3    H125124   3.603   5.859   1.495  1.9041  1.7159 -1.8095
 1163TIP3    H225125   3.509   5.757   1.432 -1.0270  0.7277  3.5522
 1164TIP3   OH225126   6.089   5.476   1.331  0.3928 -0.0100  0.1577
 1164TIP3    H125127   6.132   5.561   1.323  0.3874  0.0519  0.7475
 1164TIP3    H225128   6.047   5.463   1.245  1.7324 -0.1632 -0.4968
 1165TIP3   OH225129   4.548   4.231   8.348  0.0873 -0.1388  0.2414
 1165TIP3    H125130   4.554   4.287   8.270  1.5623 -1.1095 -0.4062
 1165TIP3    H225131   4.505   4.151   8.317 -0.2241 -0.1373  0.6663
 1166TIP3   OH225132   0.944   0.533   8.842  0.2343 -0.3345 -0.8510
 1166TIP3    H125133   0.932   0.490   8.758 -0.0876 -2.2136  0.0916
 1166TIP3    H225134   0.855   0.554   8.871  0.3377  0.2446 -0.9622
 1167TIP3   OH225135   1.118   1.753   8.039 -0.4639 -0.4919  0.4608
 1167TIP3    H125136   1.143   1.836   7.999 -1.8663  0.5563  1.6683
 1167TIP3    H225137   1.159   1.686   7.983  2.3481  1.0020  0.5902
 1168TIP3   OH225138   1.651   2.527   6.593  0.2793  0.4668  0.0522
 1168TIP3    H125139   1.667   2.540   6.686  0.6787  1.3721 -0.1399
 1168TIP3    H225140   1.737   2.529   6.552  0.1082  0.0762 -0.3394
 1169TIP3   OH225141   5.480   5.618   6.486 -0.3354 -0.4709  0.0652
 1169TIP3    H125142   5.562   5.626   6.438 -0.4569  1.0377  0.0310
 1169TIP3    H225143   5.415   5.593   6.420 -0.4068  1.0929 -0.4976
 1170TIP3   OH225144   4.618   3.756   7.761  1.0268  0.2544  0.1616
 1170TIP3    H125145   4.656   3.672   7.786  1.1150  0.4757  0.7883
 1170TIP3    H225146   4.633   3.762   7.667  1.6263 -0.1214  0.2282
 1171TIP3   OH225147   3.839   1.245   1.434 -0.4671 -0.6075 -0.4930
 1171TIP3    H125148   3.746   1.251   1.411 -0.3267  0.1147 -0.9051
 1171TIP3    H225149   3.878   1.195   1.362 -0.0692  1.4509 -1.8017
 1172TIP3   OH225150   0.488   4.538   1.668  0.5115 -0.2656 -0.3738
 1172TIP3    H125151   0.435   4.615   1.686  0.6753 -0.2523  0.0712
 1172TIP3    H225152   0.463   4.511   1.579 -0.8457 -0.7470  0.1358
 1173TIP3   OH225153   5.467   4.804   7.710  0.2627 -0.5268  0.1963
 1173TIP3    H125154   5.503   4.787   7.797  2.7429  0.8959 -0.4596
 1173TIP3    H225155   5.372   4.796   7.721  0.4856 -0.0799  3.0821
 1174TIP3   OH225156   4.531   6.739   7.216  0.3179  0.0618 -0.1060
 1174TIP3    H125157   4.517   6.667   7.154  2.3853 -0.4729 -0.0161
 1174TIP3    H225158   4.608   6.785   7.183 -0.8867  2.2452 -0.1098
 1175TIP3   OH225159   4.342   4.870   7.836 -0.3441  0.4065  0.0096
 1175TIP3    H125160   4.429   4.868   7.796  0.5968 -1.7012  1.9281
 1175TIP3    H225161   4.282   4.885   7.763  1.3764 -1.9013 -2.0268
 1176TIP3   OH225162   5.009   2.401   7.568  0.7102  0.2397  0.3540
 1176TIP3    H125163   5.102   2.379   7.568  0.2082 -2.4578  2.4791
 1176TIP3    H225164   4.986   2.406   7.661 -1.8427 -2.5488  0.0421
 1177TIP3   OH225165   4.878   2.781   8.831 -0.1330  0.5097  0.5613
 1177TIP3    H125166   4.896   2.748   8.919  0.9779  3.0146  1.3588
 1177TIP3    H225167   4.955   2.755   8.780  0.9660  2.1302  1.3051
 1178TIP3   OH225168   1.939   0.804   1.291  0.0315  0.3013  0.3735
 1178TIP3    H125169   1.870   0.814   1.356  0.0718 -1.0975  0.6681
 1178TIP3    H225170   1.924   0.875   1.228 -0.4039  1.2669  1.5394
 1179TIP3   OH225171   5.464   4.468   0.139 -0.0516 -0.1386  0.4210
 1179TIP3    H125172   5.520   4.478   0.216 -1.2888 -0.5856  1.4131
 1179TIP3    H225173   5.436   4.376   0.141 -0.1141 -0.1482 -0.5481
 1180TIP3   OH225174   2.703   0.827   6.226 -0.3434  0.1107  0.5165
 1180TIP3    H125175   2.620   0.823   6.275 -0.9289 -1.5024 -0.5024
 1180TIP3    H225176   2.741   0.740   6.236 -0.0461  0.0169 -1.1293
 1181TIP3   OH225177   2.720   2.804   1.122  0.0108 -0.2371  0.0473
 1181TIP3    H125178   2.719   2.810   1.218 -2.8170 -0.3870  0.1031
 1181TIP3    H225179   2.762   2.720   1.104 -0.0151 -0.5182  1.2038
 1182TIP3   OH225180   3.741   0.164   7.054 -0.4177  0.1936 -0.2555
 1182TIP3    H125181   3.646   0.153   7.060 -0.4564  0.1117 -1.0327
 1182TIP3    H225182   3.764   0.129   6.968  0.3331  0.1124 -0.0225
 1183TIP3   OH225183   4.346   6.506   7.566  0.2468  0.2138 -0.7393
 1183TIP3    H125184   4.407   6.472   7.501  3.6778  0.5303  1.9833
 1183TIP3    H225185   4.350   6.601   7.556 -0.1575  0.2253 -0.8178
 1184TIP3   OH225186   0.227   1.766   0.682 -0.6336 -0.5632 -0.4601
 1184TIP3    H125187   0.296   1.701   0.670  1.6107  0.6548  3.8685
 1184TIP3    H225188   0.154   1.716   0.719 -0.3520 -1.1338 -0.6566
 1185TIP3   OH225189   3.635   0.290   7.761  0.3495 -0.1093  0.0728
 1185TIP3    H125190   3.707   0.309   7.701  1.3824 -0.9541  1.0062
 1185TIP3    H225191   3.636   0.195   7.772  1.4156  0.1229  2.8109
 1186TIP3   OH225192   2.292   0.857   1.098 -0.2230 -0.1513  0.9435
 1186TIP3    H125193   2.363   0.798   1.122  0.4281  1.2975  2.9356
 1186TIP3    H225194   2.218   0.830   1.152 -0.0845  0.4887  1.4690
 1187TIP3   OH225195   1.503   1.193   8.184 -0.0202  0.5290 -0.2911
 1187TIP3    H125196   1.415   1.197   8.222  0.6089  1.9338  1.1165
 1187TIP3    H225197   1.559   1.163   8.255  1.1150  2.7529 -0.1539
 1188TIP3   OH225198   2.338   0.123   7.783 -0.1851  0.1745 -0.0487
 1188TIP3    H125199   2.314   0.039   7.742 -1.0945  1.3476 -2.0475
 1188TIP3    H225200   2.434   0.126   7.777 -0.0503 -1.1429  0.9781
 1189TIP3   OH225201   0.090   1.953   0.023  0.5562  0.0499  0.2281
 1189TIP3    H125202   0.109   1.869   0.064  1.6130 -0.3716 -1.0550
 1189TIP3    H225203   0.026   1.933  -0.045  3.8514 -0.6529 -3.0193
 1190TIP3   OH225204   3.207   3.676   1.554 -0.1573 -0.0124 -0.2924
 1190TIP3    H125205   3.289   3.670   1.603 -0.4707  0.1643  0.2699
 1190TIP3    H225206   3.161   3.594   1.574 -0.0556 -0.1814 -0.7309
 1191TIP3   OH225207   2.095   6.319   8.151  0.1153 -0.3975 -0.4237
 1191TIP3    H125208   2.066   6.353   8.067 -0.6093 -0.2588 -0.1293
 1191TIP3    H225209   2.124   6.229   8.133  0.0315 -0.3432 -0.8254
 1192TIP3   OH225210   5.395   2.512   0.964 -0.3043  0.1267 -0.8216
 1192TIP3    H125211   5.349   2.467   1.035  0.7649 -1.0744 -0.8410
 1192TIP3    H225212   5.452   2.444   0.926  1.8798  1.6439 -0.4434
 1193TIP3   OH225213   1.878   6.062   6.790 -0.0447 -0.2828  0.2866
 1193TIP3    H125214   1.941   6.116   6.741 -1.8165 -0.1532 -2.0446
 1193TIP3    H225215   1.854   5.992   6.729 -2.8607  0.2397  0.6523
 1194TIP3   OH225216   0.936   4.691   0.781  0.1301  0.0892  0.2788
 1194TIP3    H125217   0.973   4.767   0.825 -0.9453  0.9115 -0.1898
 1194TIP3    H225218   0.897   4.639   0.852 -2.1093  1.6988  0.3231
 1195TIP3   OH225219   1.505   5.136   7.383 -0.3775 -0.4468 -0.4489
 1195TIP3    H125220   1.575   5.071   7.385  0.2631  0.2088  1.7263
 1195TIP3    H225221   1.544   5.213   7.342  0.6722  0.3196  1.7986
 1196TIP3   OH225222   2.161   3.206   7.957  0.1759  0.2558  0.2206
 1196TIP3    H125223   2.189   3.291   7.921  2.8813 -0.3553  0.6580
 1196TIP3    H225224   2.180   3.212   8.050 -1.1372 -0.3022  0.5449
 1197TIP3   OH225225   0.682   3.925   0.163  0.0477  0.2229  0.6297
 1197TIP3    H125226   0.714   3.836   0.178 -0.2789 -0.1527 -0.7734
 1197TIP3    H225227   0.761   3.980   0.169  0.1999 -0.1057  1.8231
 1198TIP3   OH225228   1.403   0.025   1.006  0.4862 -0.0133 -0.2233
 1198TIP3    H125229   1.468  -0.043   0.991 -1.7714 -2.3157 -0.2805
 1198TIP3    H225230   1.370   0.008   1.094  1.0300  2.1282  0.4468
 1199TIP3   OH225231   3.854   5.674   7.965 -0.5722 -0.4495 -0.8518
 1199TIP3    H125232   3.815   5.713   8.043  0.4712 -0.2553 -0.4030
 1199TIP3    H225233   3.902   5.597   7.999 -0.8580 -0.8884 -1.4280
 1200TIP3   OH225234   1.892   5.145   8.832  0.3558  0.3176  0.5489
 1200TIP3    H125235   1.857   5.084   8.767 -1.1190 -1.7377  3.0926
 1200TIP3    H225236   1.816   5.174   8.882  1.6612 -0.6624  3.3319
 1201TIP3   OH225237   0.428   6.670   8.871 -0.5152 -0.2173  0.7307
 1201TIP3    H125238   0.385   6.692   8.788 -1.5208 -0.8687  1.0670
 1201TIP3    H225239   0.508   6.723   8.871  0.4162 -1.4802 -1.4578
 1202TIP3   OH225240   0.343   4.555   7.850  0.1510  0.2101 -0.1645
 1202TIP3    H125241   0.259   4.536   7.808  0.7701 -0.5897 -1.1030
 1202TIP3    H225242   0.402   4.489   7.814  0.5496 -1.0813  2.6287
 1203TIP3   OH225243   3.526   5.347   6.653 -0.4468  0.1538  0.4522
 1203TIP3    H125244   3.531   5.281   6.583 -1.5722  1.2523 -0.7131
 1203TIP3    H225245   3.488   5.300   6.727 -0.7556 -0.6379 -0.1877
 1204TIP3   OH225246   4.264   4.772   8.443 -0.7814 -0.4561 -0.6430
 1204TIP3    H125247   4.223   4.830   8.378 -2.1217  2.2480  2.3555
 1204TIP3    H225248   4.190   4.732   8.489  0.1391 -2.9849 -1.2080
 1205TIP3   OH225249   5.918   6.544   7.525 -0.7318 -0.3306 -0.1015
 1205TIP3    H125250   5.884   6.539   7.614 -0.3814 -1.6429 -0.0233
 1205TIP3    H225251   5.872   6.618   7.486 -1.3911 -0.1650  0.9520
 1206TIP3   OH225252   2.531   0.907   6.780 -0.0804  0.5921 -0.6531
 1206TIP3    H125253   2.575   0.992   6.783  0.9864  0.0432  0.0289
 1206TIP3    H225254   2.500   0.893   6.870 -0.4660  0.3689 -0.8198
 1207TIP3   OH225255   6.058   1.622   8.003 -0.1443  0.4546 -0.6344
 1207TIP3    H125256   6.044   1.567   7.926  0.4937 -1.4831  0.5371
 1207TIP3    H225257   6.045   1.711   7.972 -1.2281 -0.3394 -2.6549
 1208TIP3   OH225258   1.159   4.199   0.311 -0.1538 -0.3991 -0.5384
 1208TIP3    H125259   1.249   4.168   0.315 -0.4230 -1.1441  3.7511
 1208TIP3    H225260   1.161   4.284   0.355 -1.4567 -0.0065 -1.1695
 1209TIP3   OH225261   3.212   3.664   0.345 -0.8021  0.0222  0.4409
 1209TIP3    H125262   3.227   3.703   0.432 -1.8229 -0.1086  0.6820
 1209TIP3    H225263   3.164   3.732   0.297 -1.9755 -0.6600  0.6317
 1210TIP3   OH225264   3.111   4.101   6.297  0.4030 -0.5297 -0.0388
 1210TIP3    H125265   3.171   4.133   6.230 -0.2387 -0.3784 -0.5645
 1210TIP3    H225266   3.167   4.060   6.363  0.9998 -2.3775 -1.5741
 1211TIP3   OH225267   4.652   3.842   0.110 -0.1728 -0.1210 -0.1413
 1211TIP3    H125268   4.640   3.810   0.199 -0.3188  0.6923  0.1346
 1211TIP3    H225269   4.725   3.904   0.116 -2.9479  3.3974  0.3282
 1212TIP3   OH225270   4.476   5.549   8.797 -0.3335  1.0202 -0.0358
 1212TIP3    H125271   4.421   5.502   8.734  0.0385 -0.4117  0.6776
 1212TIP3    H225272   4.426   5.548   8.878 -0.9931  3.2222 -0.3368
 1213TIP3   OH225273   2.674   0.099   7.035 -0.0731  0.0195  0.3145
 1213TIP3    H125274   2.677   0.114   7.130  1.6394  2.1078 -0.0087
 1213TIP3    H225275   2.642   0.182   6.999  0.3302 -0.3893 -1.0148
 1214TIP3   OH225276   6.018   1.497   0.459 -0.1028 -0.2417  0.0451
 1214TIP3    H125277   5.985   1.577   0.500 -1.4527  0.0825 -1.5470
 1214TIP3    H225278   5.988   1.427   0.517  1.7371  0.3842  1.8600
 1215TIP3   OH225279   6.246   1.816   6.940  0.8132  0.4684  0.2595
 1215TIP3    H125280   6.332   1.831   6.981  0.4363 -0.1921  1.3469
 1215TIP3    H225281   6.266   1.783   6.853  1.6561  1.0810  0.2021
 1216TIP3   OH225282   1.030   2.151   6.507 -0.1258  0.3210 -0.0606
 1216TIP3    H125283   1.059   2.127   6.419  0.9663  0.4996  0.2428
 1216TIP3    H225284   1.099   2.120   6.565  0.8041  3.1056  0.4463
 1217TIP3   OH225285   2.800   3.214   0.426 -0.6862 -0.2244  0.0681
 1217TIP3    H125286   2.820   3.278   0.358 -2.1674  0.9910  0.7389
 1217TIP3    H225287   2.798   3.130   0.380  1.6742  0.0765 -0.7556
 1218TIP3   OH225288   3.414   1.472   0.980 -0.5137 -0.8301 -0.1398
 1218TIP3    H125289   3.371   1.537   0.925 -1.0429 -1.4600 -0.4882
 1218TIP3    H225290   3.361   1.392   0.969 -0.8105 -0.9072  1.4831
 1219TIP3   OH225291   1.396   2.470   0.815 -0.0720  0.1847 -0.5749
 1219TIP3    H125292   1.362   2.559   0.807  1.0256  0.6491 -0.2305
 1219TIP3    H225293   1.459   2.461   0.744 -0.9247 -0.6948 -1.2522
 1220TIP3   OH225294   4.899   2.878   6.756  0.1654  0.3822  0.6474
 1220TIP3    H125295   4.816   2.850   6.717  1.5746 -0.0225 -2.3974
 1220TIP3    H225296   4.880   2.964   6.794 -1.6199  0.3721 -0.1410
 1221TIP3   OH225297   0.812   2.648   1.875 -0.9070  0.4468  0.3344
 1221TIP3    H125298   0.815   2.568   1.928 -0.8182 -1.2479 -2.0371
 1221TIP3    H225299   0.721   2.675   1.878 -1.7456 -1.7940 -1.4839
 1222TIP3   OH225300   4.998   0.839   7.808  0.1313  0.0217  0.1761
 1222TIP3    H125301   4.929   0.900   7.782 -1.1330 -0.3169  2.3916
 1222TIP3    H225302   4.992   0.767   7.746 -0.8142  0.4967 -0.2997
 1223TIP3   OH225303   6.321   1.616   0.006 -0.1040 -0.2763 -0.0882
 1223TIP3    H125304   6.411   1.630   0.037 -0.0242  3.1692 -1.4447
 1223TIP3    H225305   6.267   1.635   0.083  0.2730  1.6816 -0.2638
 1224TIP3   OH225306   5.110   0.247   8.237  0.4931 -0.0042  0.1142
 1224TIP3    H125307   5.108   0.252   8.332 -0.2101  1.5293  0.0396
 1224TIP3    H225308   5.124   0.337   8.208 -1.1106 -0.1429 -1.2565
 1225TIP3   OH225309   2.538   2.280   1.469 -0.0472 -0.2319 -0.1993
 1225TIP3    H125310   2.496   2.211   1.417  0.7448 -0.9732  0.1132
 1225TIP3    H225311   2.615   2.305   1.417  0.5814 -0.7620  0.4638
 1226TIP3   OH225312   3.452   5.799   8.512  0.3123  0.2949  0.1548
 1226TIP3    H125313   3.430   5.740   8.584 -0.3681  0.5308  0.1457
 1226TIP3    H225314   3.370   5.844   8.491  0.9630  1.7654  0.6384
 1227TIP3   OH225315   3.017   5.675   6.544  0.2107  0.1858  0.7370
 1227TIP3    H125316   3.014   5.770   6.554  0.9713  0.1703  1.1215
 1227TIP3    H225317   3.045   5.661   6.454  1.4083  0.3325  1.0768
 1228TIP3   OH225318   3.998   5.706   7.483 -0.2209 -0.1216 -0.0987
 1228TIP3    H125319   4.044   5.664   7.411 -0.7509  0.9352 -1.0786
 1228TIP3    H225320   3.907   5.681   7.471 -0.4612  0.8569 -0.3841
 1229TIP3   OH225321   2.928   0.100   8.702 -0.5034 -0.4110 -0.2496
 1229TIP3    H125322   2.991   0.032   8.726 -0.5309  0.2523  1.8486
 1229TIP3    H225323   2.842   0.056   8.707 -0.3648 -0.9039 -1.6155
 1230TIP3   OH225324   0.091   4.595   0.186 -0.2982  0.3855  0.5969
 1230TIP3    H125325   0.061   4.615   0.275 -0.6476  0.5558  0.4392
 1230TIP3    H225326   0.108   4.501   0.188  1.8107  0.7210  1.4788
 1231TIP3   OH225327   4.238   6.521   0.651  0.3605 -0.0642 -0.1996
 1231TIP3    H125328   4.251   6.603   0.698  1.0639  0.6124 -1.5236
 1231TIP3    H225329   4.264   6.453   0.713 -0.6306  0.6720  1.0521
 1232TIP3   OH225330   2.946   6.506   2.047 -0.9877  0.2311 -0.2574
 1232TIP3    H125331   2.890   6.526   2.122 -0.9229 -4.1268  1.2148
 1232TIP3    H225332   3.024   6.560   2.061 -1.3011  0.1549  2.4402
 1233TIP3   OH225333   2.199   6.457   1.834  0.1733  0.0357  0.7585
 1233TIP3    H125334   2.207   6.361   1.836 -0.5418 -0.0152  1.8279
 1233TIP3    H225335   2.276   6.488   1.881  0.7698  0.0306 -0.1798
 1234TIP3   OH225336   4.357   1.338   7.308  0.3217  0.2200  0.8493
 1234TIP3    H125337   4.323   1.427   7.294 -0.6129 -0.3780 -0.9306
 1234TIP3    H225338   4.279   1.282   7.305  1.1155 -0.8727 -0.1682
 1235TIP3   OH225339   5.711   3.893   0.958  0.0814 -0.1720  0.1937
 1235TIP3    H125340   5.724   3.987   0.953 -1.4637  0.0076 -1.2280
 1235TIP3    H225341   5.616   3.881   0.955  0.2678 -1.7873 -0.2739
 1236TIP3   OH225342   6.731   5.420   1.635 -0.2391  0.2158 -0.5241
 1236TIP3    H125343   6.714   5.492   1.696  0.6306  1.0733 -1.2645
 1236TIP3    H225344   6.766   5.463   1.557  1.0805 -1.0771 -0.6781
 1237TIP3   OH225345   2.168   4.392   1.220  0.0870  0.1470  0.3197
 1237TIP3    H125346   2.092   4.357   1.267  0.6822  0.3396  1.4478
 1237TIP3    H225347   2.130   4.439   1.146 -0.7886 -1.8248 -0.5720
 1238TIP3   OH225348   0.418   4.018   0.652  0.0830  0.3260 -0.4809
 1238TIP3    H125349   0.356   3.952   0.621  0.4688 -0.6752  0.8344
 1238TIP3    H225350   0.461   4.048   0.572 -1.1508  0.0845 -1.2694
 1239TIP3   OH225351   2.749   5.496   8.952  0.3024  0.7447 -0.2576
 1239TIP3    H125352   2.736   5.589   8.968 -0.1113  0.5991  0.3158
 1239TIP3    H225353   2.832   5.476   8.995 -0.1902  0.6152  0.6615
 1240TIP3   OH225354   2.465   5.443   8.953 -0.3123  0.3601  0.0219
 1240TIP3    H125355   2.558   5.465   8.962 -0.1149 -0.9203  1.5783
 1240TIP3    H225356   2.457   5.409   8.864  0.8683 -0.1240  0.0776
 1241TIP3   OH225357   0.941   2.657   1.635 -0.3499  0.0281  0.0088
 1241TIP3    H125358   0.879   2.657   1.708 -0.2261 -1.3804  0.1266
 1241TIP3    H225359   0.968   2.749   1.627 -3.0115  0.8305 -0.5413
 1242TIP3   OH225360   3.649   0.275   1.563  0.3068  0.1003  0.1418
 1242TIP3    H125361   3.637   0.196   1.617  2.1242 -0.3492 -0.0511
 1242TIP3    H225362   3.725   0.255   1.508  0.3110  1.6991 -0.4741
 1243TIP3   OH225363   4.483   5.893   1.870 -0.3038 -0.3347  0.2246
 1243TIP3    H125364   4.422   5.855   1.807  0.4938  0.8718 -1.3411
 1243TIP3    H225365   4.453   5.861   1.955 -1.6578 -1.6874 -0.7180
 1244TIP3   OH225366   5.892   6.520   8.793  0.3220 -0.3042  0.6442
 1244TIP3    H125367   5.818   6.558   8.747  0.4774 -0.2571  0.4278
 1244TIP3    H225368   5.854   6.473   8.867 -0.0814 -1.6012 -0.3343
 1245TIP3   OH225369   3.901   0.248   1.421 -0.0544 -0.4212 -0.3790
 1245TIP3    H125370   3.966   0.182   1.446  0.0311 -0.5708 -0.9843
 1245TIP3    H225371   3.917   0.321   1.481  1.1021 -0.1978 -0.9506
 1246TIP3   OH225372   3.667   0.936   1.762 -0.1324 -0.2474 -0.1624
 1246TIP3    H125373   3.697   0.915   1.673 -0.3388  2.5711 -0.9921
 1246TIP3    H225374   3.707   0.868   1.817  2.8899 -0.1247 -1.9646
 1247TIP3   OH225375   3.225   2.215   8.921  0.0161 -0.0489  0.1194
 1247TIP3    H125376   3.153   2.181   8.974  1.0339 -1.9169  0.3888
 1247TIP3    H225377   3.192   2.211   8.831 -0.6120  0.2062  0.3316
 1248TIP3   OH225378   6.744   6.114   0.244  0.8603 -0.5484  0.1517
 1248TIP3    H125379   6.828   6.159   0.243 -0.5145  2.2820  1.5767
 1248TIP3    H225380   6.766   6.022   0.256  3.7086  0.1909  1.3151
 1249TIP3   OH225381   1.905   3.432   8.599 -0.0251  0.6637 -0.5173
 1249TIP3    H125382   1.839   3.480   8.549  0.2525  0.5352 -1.0148
 1249TIP3    H225383   1.856   3.363   8.644 -0.2110  0.4721 -1.0067
 1250TIP3   OH225384   5.901   2.448   0.313  0.3038 -0.1803 -0.1583
 1250TIP3    H125385   5.971   2.404   0.362  0.2389 -0.8034 -0.6126
 1250TIP3    H225386   5.882   2.389   0.240  1.7079  1.5667 -2.0758
 1251TIP3   OH225387   1.676   1.441   7.680 -0.8187 -0.2111 -0.2109
 1251TIP3    H125388   1.648   1.533   7.680 -0.5058 -0.1151  0.0356
 1251TIP3    H225389   1.674   1.415   7.772  3.0484  0.7856  0.3301
 1252TIP3   OH225390   2.544   5.015   1.079 -0.2247  0.0492 -0.9816
 1252TIP3    H125391   2.558   5.021   1.174 -0.8087 -0.2225 -0.8723
 1252TIP3    H225392   2.579   5.096   1.044  2.3569 -0.8993 -0.8234
 1253TIP3   OH225393   3.388   5.902   2.340  0.1730  0.1327 -0.3010
 1253TIP3    H125394   3.463   5.848   2.315 -1.1470 -1.1164 -1.7664
 1253TIP3    H225395   3.312   5.843   2.333 -1.2147  1.8934 -0.9590
 1254TIP3   OH225396   5.001   3.404   7.265 -0.6166 -0.4162  0.1132
 1254TIP3    H125397   4.909   3.422   7.279 -0.3538  1.1866 -0.0186
 1254TIP3    H225398   5.044   3.489   7.276  0.7032 -0.9176 -0.9011
 1255TIP3   OH225399   1.688   6.097   7.609  0.1461 -0.0543  0.5568
 1255TIP3    H125400   1.670   6.188   7.631 -1.5143 -0.7488  2.4708
 1255TIP3    H225401   1.607   6.066   7.567 -1.0177 -1.5981  3.5739
 1256TIP3   OH225402   4.678   4.984   1.337  0.2961  0.0426  0.0839
 1256TIP3    H125403   4.742   4.924   1.374  0.0378  0.3741  1.1038
 1256TIP3    H225404   4.611   4.992   1.405 -0.6787 -0.0636 -0.8372
 1257TIP3   OH225405   0.274   0.093   1.070  0.2178 -0.4678 -0.1955
 1257TIP3    H125406   0.270   0.058   0.981  0.3852  2.3847 -1.4386
 1257TIP3    H225407   0.366   0.113   1.084 -0.1713  1.8138 -0.5974
 1258TIP3   OH225408   5.001   5.739   2.144  0.8925  0.2109 -0.1143
 1258TIP3    H125409   4.914   5.752   2.182  0.5743 -0.3529 -0.6303
 1258TIP3    H225410   5.056   5.804   2.187  0.0687  1.0261 -0.2714
 1259TIP3   OH225411   5.614   0.054   8.460 -0.1293  0.8764  0.9617
 1259TIP3    H125412   5.531   0.024   8.497  0.5302 -0.1835  1.6378
 1259TIP3    H225413   5.609   0.030   8.368 -0.1304 -0.2174  1.2359
 1260TIP3   OH225414   5.648   3.965   0.002  0.1729 -0.1703 -0.1174
 1260TIP3    H125415   5.621   3.873   0.008  0.8738 -0.3825 -0.1348
 1260TIP3    H225416   5.721   3.965  -0.060  2.3720 -0.1061  2.3217
 1261TIP3   OH225417   4.550   6.519   8.589  1.0099 -0.4240  0.4400
 1261TIP3    H125418   4.523   6.559   8.672 -1.4306 -1.8640  0.4601
 1261TIP3    H225419   4.602   6.585   8.546  0.6567  1.1357  2.2640
 1262TIP3   OH225420   4.124   6.146   8.852  0.4971  0.1407 -0.4212
 1262TIP3    H125421   4.177   6.226   8.846  0.8118 -0.0926 -0.7937
 1262TIP3    H225422   4.054   6.168   8.913 -0.9044  1.5270 -2.4342
 1263TIP3   OH225423   5.081   0.347   0.644 -0.1768  0.3379  0.6235
 1263TIP3    H125424   5.103   0.318   0.555 -0.2433 -0.5426  0.8813
 1263TIP3    H225425   5.160   0.389   0.676  0.4016 -0.7960  0.7241
 1264TIP3   OH225426   5.482   1.695   8.427 -0.7055 -0.5103  0.3949
 1264TIP3    H125427   5.405   1.684   8.483  0.4957 -2.7701  1.7492
 1264TIP3    H225428   5.506   1.606   8.402 -0.6291  0.3568 -3.0768
 1265TIP3   OH225429   2.217   3.715   8.831 -0.2626  0.3324 -0.2417
 1265TIP3    H125430   2.275   3.772   8.780  0.2785  0.6566  0.7040
 1265TIP3    H225431   2.193   3.645   8.770  1.5203 -0.0788 -0.5455
 1266TIP3   OH225432   1.053   3.976   7.958 -0.1042 -0.4151 -0.0655
 1266TIP3    H125433   0.985   4.022   8.008  0.3772 -0.8112  0.9836
 1266TIP3    H225434   1.028   3.989   7.867 -0.5840  0.9827  0.2438
 1267TIP3   OH225435   3.613   4.404   0.207  0.2123  0.7725 -0.4896
 1267TIP3    H125436   3.537   4.406   0.150  0.5091  0.2937 -0.9110
 1267TIP3    H225437   3.688   4.396   0.147  0.6548  1.9223 -0.1326
 1268TIP3   OH225438   6.749   2.369   1.914 -0.4354 -0.0109  0.1442
 1268TIP3    H125439   6.758   2.459   1.945 -0.1598 -0.2944  0.9207
 1268TIP3    H225440   6.656   2.362   1.889 -0.8065  0.0918  1.4159
 1269TIP3   OH225441   6.033   0.700   0.298 -0.3841 -0.2296  0.0743
 1269TIP3    H125442   6.038   0.705   0.393 -2.1632 -1.6394  0.2792
 1269TIP3    H225443   6.123   0.715   0.269 -0.1707  2.5297  1.8053
 1270TIP3   OH225444   3.430   2.162   0.083 -0.5364 -0.0771  0.0837
 1270TIP3    H125445   3.424   2.221   0.158  0.7499  0.8502 -0.5114
 1270TIP3    H225446   3.355   2.185   0.028 -1.1425 -0.3565  0.7658
 1271TIP3   OH225447   1.622   4.004   1.756 -0.2693 -0.0384 -0.1416
 1271TIP3    H125448   1.587   4.021   1.844  0.5146  1.4767 -0.1035
 1271TIP3    H225449   1.545   4.000   1.700 -0.6491  1.5594  0.2218
 1272TIP3   OH225450   1.783   4.999   6.949  0.4872  0.2633 -0.1857
 1272TIP3    H125451   1.730   4.994   6.870 -0.7633  0.5442  0.6025
 1272TIP3    H225452   1.864   4.953   6.927  0.3529  0.7212 -1.7584
 1273TIP3   OH225453   0.004   3.628   0.466 -0.3686 -0.4288 -0.6986
 1273TIP3    H125454  -0.081   3.597   0.434 -0.9946  2.2893 -1.9385
 1273TIP3    H225455   0.058   3.635   0.387 -0.3924  1.8262 -0.5797
 1274TIP3   OH225456   6.615   2.975   8.752 -0.3455  0.5874 -0.1224
 1274TIP3    H125457   6.541   2.942   8.701  0.2850 -0.4197 -0.4010
 1274TIP3    H225458   6.602   2.939   8.840 -0.3217  0.6280 -0.1021
 1275TIP3   OH225459   1.264   6.515   0.032 -0.3473 -0.2025 -0.1724
 1275TIP3    H125460   1.288   6.487   0.120  1.9598 -1.3423 -1.0915
 1275TIP3    H225461   1.204   6.589   0.046  0.7059  0.2639  2.3347
 1276TIP3   OH225462   6.587   6.050   2.574  0.3615 -0.3167 -0.1451
 1276TIP3    H125463   6.671   6.031   2.615  1.2180  2.2603 -0.4823
 1276TIP3    H225464   6.609   6.098   2.494 -1.4175 -0.1308 -0.5836
 1277TIP3   OH225465   1.882   2.292   0.724  0.6746 -0.4717  0.9179
 1277TIP3    H125466   1.885   2.387   0.711  2.5744 -0.3896  1.6979
 1277TIP3    H225467   1.859   2.282   0.816 -1.3298 -0.8525  0.4305
 1278TIP3   OH225468   1.600   3.140   0.889 -0.4159  0.2690  0.2440
 1278TIP3    H125469   1.547   3.191   0.950  0.6426 -1.3431  2.6546
 1278TIP3    H225470   1.544   3.068   0.862  0.1948 -1.0468  2.2520
 1279TIP3   OH225471   2.345   6.016   1.184 -0.2430 -0.1601 -0.9096
 1279TIP3    H125472   2.299   5.958   1.245 -1.0799  0.1888 -1.1885
 1279TIP3    H225473   2.303   6.101   1.196 -0.4455 -0.0914 -2.0008
 1280TIP3   OH225474   1.724   4.985   7.211 -0.2093 -0.3814 -0.0135
 1280TIP3    H125475   1.672   4.906   7.227 -2.0047  0.5766 -0.8365
 1280TIP3    H225476   1.717   4.999   7.117 -1.7357  1.9130  0.3735
 1281TIP3   OH225477   1.624   4.454   6.978 -0.2367  0.0452  0.0166
 1281TIP3    H125478   1.716   4.446   7.007  0.0829 -1.6041 -1.2772
 1281TIP3    H225479   1.624   4.529   6.919  1.1878 -2.1044 -2.9325
 1282TIP3   OH225480   1.384   4.063   0.346 -0.0801  0.1153 -0.4549
 1282TIP3    H125481   1.466   4.102   0.316 -0.2625 -2.0422 -4.5315
 1282TIP3    H225482   1.410   3.991   0.403  0.9459 -0.5779 -1.7443
 1283TIP3   OH225483   4.662   2.338   8.431  0.8949 -0.5335  0.2843
 1283TIP3    H125484   4.685   2.345   8.338 -0.5926 -0.0782 -0.0809
 1283TIP3    H225485   4.571   2.307   8.431  0.6231  0.1837  1.5738
 1284TIP3   OH225486   6.659   3.808   7.003 -0.2729 -0.1409 -0.3610
 1284TIP3    H125487   6.693   3.762   6.926  1.3402  0.8153 -0.2703
 1284TIP3    H225488   6.727   3.799   7.069 -1.4570 -0.5811  0.8420
 1285TIP3   OH225489   6.282   6.238   7.538  0.1957  0.3825 -0.7244
 1285TIP3    H125490   6.238   6.156   7.563  2.9216 -1.6016 -1.9228
 1285TIP3    H225491   6.212   6.292   7.501 -1.6305 -1.6104 -0.3694
 1286TIP3   OH225492   6.473   4.390   2.164 -0.3585  0.5355  0.1898
 1286TIP3    H125493   6.510   4.456   2.223 -2.1273  1.6137  0.1753
 1286TIP3    H225494   6.409   4.342   2.219  0.2004 -0.5285 -0.0603
 1287TIP3   OH225495   2.071   4.112   6.536  0.4025  0.0673 -0.0168
 1287TIP3    H125496   2.106   4.108   6.447  0.5075  0.3563  0.0126
 1287TIP3    H225497   2.001   4.177   6.531  0.9549  0.6939  0.3004
 1288TIP3   OH225498   4.490   2.005   1.430 -0.1963 -0.1561 -0.4222
 1288TIP3    H125499   4.451   2.043   1.351  1.0315 -0.1497 -1.0573
 1288TIP3    H225500   4.471   2.068   1.499  0.4190  0.8377 -1.1352
 1289TIP3   OH225501   4.207   6.478   8.020 -0.1346  0.1907 -0.4480
 1289TIP3    H125502   4.170   6.456   8.106 -0.1650 -0.1873 -0.5531
 1289TIP3    H225503   4.203   6.395   7.971  2.5053 -0.3403  0.1210
 1290TIP3   OH225504   1.858   6.437   8.438 -0.3262  0.2812  0.0432
 1290TIP3    H125505   1.793   6.503   8.461 -1.5587 -0.4270 -1.2717
 1290TIP3    H225506   1.928   6.487   8.395 -0.9249  0.8215 -0.3229
 1291TIP3   OH225507   1.285   4.583   6.925 -0.7829  0.0615  0.2184
 1291TIP3    H125508   1.301   4.507   6.981 -1.2783  0.0554  0.3613
 1291TIP3    H225509   1.328   4.562   6.842  3.3479  1.6452  1.6772
 1292TIP3   OH225510   5.258   2.446   1.252  0.0896 -0.1254  0.3463
 1292TIP3    H125511   5.248   2.477   1.342 -1.7154  0.0308  0.1252
 1292TIP3    H225512   5.261   2.350   1.261  1.6472 -0.0728  0.6869
 1293TIP3   OH225513   3.011   5.589   0.593 -0.5024 -0.0234 -0.3086
 1293TIP3    H125514   2.956   5.654   0.637  0.9221  0.4787  0.8151
 1293TIP3    H225515   2.993   5.602   0.500  0.6032  2.8752 -0.2298
 1294TIP3   OH225516   6.495   0.404   2.055 -0.6891 -0.4036  0.1447
 1294TIP3    H125517   6.499   0.393   2.150 -0.1218 -0.5875  0.1039
 1294TIP3    H225518   6.573   0.358   2.022 -1.0278 -0.5739 -0.4300
 1295TIP3   OH225519   0.726   2.980   8.375 -0.7633 -0.4467  0.2729
 1295TIP3    H125520   0.810   3.020   8.352 -1.7397  0.6993 -1.5318
 1295TIP3    H225521   0.708   2.918   8.305 -0.4405 -2.3623  1.7914
 1296TIP3   OH225522   5.372   4.784   0.999  0.8061  0.4010 -0.2340
 1296TIP3    H125523   5.448   4.727   1.014  2.0561  1.6289 -1.5893
 1296TIP3    H225524   5.375   4.847   1.071  0.0981 -0.5089  0.6166
 1297TIP3   OH225525   5.255   6.766   2.271 -0.4025 -0.3901  1.2456
 1297TIP3    H125526   5.220   6.719   2.346 -0.8105 -2.3134 -0.0515
 1297TIP3    H225527   5.178   6.794   2.221 -0.1709 -1.3712  0.2845
 1298TIP3   OH225528   4.533   2.481   1.462 -0.0981  0.4178 -0.2967
 1298TIP3    H125529   4.439   2.466   1.464  0.1736 -1.5628  1.4034
 1298TIP3    H225530   4.564   2.446   1.545  2.1337  1.1769 -0.7464
 1299TIP3   OH225531   2.693   4.056   7.515  0.4228  0.2974 -0.6505
 1299TIP3    H125532   2.678   4.009   7.432  0.9239  1.2671 -1.3049
 1299TIP3    H225533   2.786   4.077   7.514  0.7385 -0.8484  0.8120
 1300TIP3   OH225534   4.566   1.128   7.738  0.1008  0.2226  0.3601
 1300TIP3    H125535   4.566   1.167   7.650  0.4917  0.2081  0.3495
 1300TIP3    H225536   4.651   1.085   7.744 -0.1896 -0.3466  0.4981
 1301TIP3   OH225537   1.258   4.718   8.896  0.5524 -0.0954  0.4600
 1301TIP3    H125538   1.170   4.737   8.866  0.2434 -1.1326  0.6547
 1301TIP3    H225539   1.290   4.651   8.834  1.4867  0.8026 -0.0625
 1302TIP3   OH225540   0.010   0.097   8.356 -0.0297  0.1605  0.5933
 1302TIP3    H125541   0.033   0.012   8.319  1.3981  0.2474  1.2019
 1302TIP3    H225542   0.091   0.147   8.352 -0.2904  0.7619  2.2125
 1303TIP3   OH225543   2.088   3.069   7.454  0.5828  0.3677  0.4107
 1303TIP3    H125544   2.162   3.011   7.435  0.8439  0.6679  0.5051
 1303TIP3    H225545   2.125   3.137   7.510  0.3505  0.7983  0.0465
 1304TIP3   OH225546   3.449   0.616   0.647  0.2150  0.2843 -0.0066
 1304TIP3    H125547   3.487   0.569   0.573 -0.1363 -2.3313  1.3356
 1304TIP3    H225548   3.358   0.630   0.622  0.4192  0.5890 -0.5914
 1305TIP3   OH225549   1.433   2.018   6.992 -0.4626  0.0781  0.6790
 1305TIP3    H125550   1.387   2.088   7.039  2.0396  1.8507  0.7014
 1305TIP3    H225551   1.437   2.048   6.901 -0.2453 -0.5444  0.4752
 1306TIP3   OH225552   5.455   5.425   6.673 -0.0912  0.0079  0.0389
 1306TIP3    H125553   5.457   5.507   6.623 -1.7977 -0.1235 -0.2820
 1306TIP3    H225554   5.460   5.356   6.607  1.2232 -0.1850  0.3024
 1307TIP3   OH225555   3.963   0.467   7.536 -0.5334  0.2271 -0.0759
 1307TIP3    H125556   3.947   0.502   7.623 -0.3748  1.5858 -0.5549
 1307TIP3    H225557   3.880   0.477   7.490 -0.3614  0.4381 -0.3558
 1308TIP3   OH225558   2.696   5.061   7.307  0.0655 -0.4451 -0.6761
 1308TIP3    H125559   2.746   4.980   7.315  0.2939 -0.2150  0.2563
 1308TIP3    H225560   2.692   5.077   7.212 -1.0902 -2.2257 -0.9797
 1309TIP3   OH225561   1.301   2.314   8.583  0.4571 -0.6347 -1.0260
 1309TIP3    H125562   1.273   2.329   8.673  0.3958  1.5305 -1.3461
 1309TIP3    H225563   1.221   2.318   8.531  0.7806  0.9326 -1.4482
 1310TIP3   OH225564   5.502   3.091   0.774 -0.1388  0.4130 -0.1789
 1310TIP3    H125565   5.555   3.043   0.710 -0.3444  0.2333 -0.2167
 1310TIP3    H225566   5.563   3.111   0.845  0.3760  1.6348 -0.9492
 1311TIP3   OH225567   3.572   2.947   0.645  0.6208 -0.0773  0.7136
 1311TIP3    H125568   3.651   2.933   0.698  0.1227  0.7228  1.7018
 1311TIP3    H225569   3.535   2.860   0.634 -1.0668 -0.0694  4.6002
 1312TIP3   OH225570   6.488   6.072   0.879 -0.5292 -0.1575  0.0093
 1312TIP3    H125571   6.408   6.022   0.895  0.2170 -1.0721  1.0356
 1312TIP3    H225572   6.533   6.073   0.964 -0.6670  2.5786  0.1311
 1313TIP3   OH225573   0.039   4.382   8.533  0.4975 -0.2579  0.0331
 1313TIP3    H125574   0.015   4.472   8.557 -0.7097 -0.5435 -0.0743
 1313TIP3    H225575   0.018   4.375   8.440 -0.5980 -1.0270  0.3232
 1314TIP3   OH225576   6.503   1.034   1.019 -0.9983 -0.1900 -0.1750
 1314TIP3    H125577   6.490   0.947   0.981 -1.2821  0.1159 -0.7904
 1314TIP3    H225578   6.592   1.032   1.054  0.1835  0.2608 -2.9332
 1315TIP3   OH225579   6.655   5.188   8.877 -0.1018 -0.1587 -0.0839
 1315TIP3    H125580   6.591   5.165   8.944 -2.4259  3.2537 -0.8396
 1315TIP3    H225581   6.705   5.261   8.914 -0.6452  1.0114 -1.5000
 1316TIP3   OH225582   5.447   1.799   2.354 -0.5613 -0.1307 -1.0642
 1316TIP3    H125583   5.502   1.721   2.351 -0.0839  0.2027 -0.9731
 1316TIP3    H225584   5.491   1.858   2.415 -1.9787 -0.5829  0.4520
 1317TIP3   OH225585   4.349   4.640   7.104 -0.0485 -0.5752  0.6473
 1317TIP3    H125586   4.341   4.672   7.193 -2.5485 -0.8260  0.5882
 1317TIP3    H225587   4.298   4.702   7.051 -0.5570 -1.7189 -0.2460
 1318TIP3   OH225588   3.660   1.152   0.495  0.0476  0.2027  0.4168
 1318TIP3    H125589   3.727   1.089   0.468  0.2041  1.3845 -2.2546
 1318TIP3    H225590   3.581   1.124   0.449 -0.1407  1.3458  0.0139
 1319TIP3   OH225591   3.931   2.088   6.590  0.4471 -0.1715  0.1988
 1319TIP3    H125592   4.022   2.084   6.620 -0.6155 -0.5188  3.8257
 1319TIP3    H225593   3.903   1.996   6.586 -0.0770 -0.0206  0.2714
 1320TIP3   OH225594   6.403   2.858   8.003 -0.1069  0.0845 -0.1379
 1320TIP3    H125595   6.344   2.849   8.079  0.3120 -1.2966  0.0620
 1320TIP3    H225596   6.487   2.826   8.035  0.6870  1.6798 -0.5370
 1321TIP3   OH225597   3.932   3.208   7.963 -0.3453  0.2436  0.1206
 1321TIP3    H125598   3.970   3.125   7.993 -1.8769 -0.1401  1.1052
 1321TIP3    H225599   3.839   3.189   7.950 -0.2620  1.0949 -2.4042
 1322TIP3   OH225600   2.076   0.872   6.420  0.3710  0.4132 -0.2756
 1322TIP3    H125601   2.005   0.864   6.357  1.2507  0.8846 -1.3639
 1322TIP3    H225602   2.085   0.967   6.434  2.2707  0.5514 -1.9620
 1323TIP3   OH225603   5.267   0.035   0.964 -0.2606 -0.4975  0.0446
 1323TIP3    H125604   5.178  -0.002   0.960 -0.3976 -0.5914  2.5259
 1323TIP3    H225605   5.260   0.109   1.023  1.1448  0.1087 -0.5049
 1324TIP3   OH225606   4.789   3.510   8.788 -0.1945  0.2508 -0.4434
 1324TIP3    H125607   4.839   3.451   8.731  1.1805  0.6071  0.3274
 1324TIP3    H225608   4.831   3.595   8.775 -0.4166  0.4991  0.4643
 1325TIP3   OH225609   5.081   4.217   8.781 -0.3959  0.0036 -0.0035
 1325TIP3    H125610   5.073   4.312   8.787 -0.7735  0.1796 -2.2741
 1325TIP3    H225611   5.155   4.202   8.722 -1.7476 -1.0022 -1.5552
 1326TIP3   OH225612   5.417   6.672   8.563  0.5239 -0.2370 -0.4219
 1326TIP3    H125613   5.382   6.596   8.517 -0.4162  1.6934 -3.1177
 1326TIP3    H225614   5.341   6.725   8.584  1.2413  0.4560  0.5604
 1327TIP3   OH225615   1.574   2.344   6.900  0.0001 -0.5625 -0.2389
 1327TIP3    H125616   1.496   2.354   6.846  1.3739 -0.2010 -2.2808
 1327TIP3    H225617   1.590   2.431   6.936 -0.1002 -0.4584 -0.4446
 1328TIP3   OH225618   2.591   0.593   6.587 -0.3143 -0.3316  0.0845
 1328TIP3    H125619   2.578   0.549   6.503  0.0476  1.4049 -0.9394
 1328TIP3    H225620   2.671   0.555   6.622  0.7257  0.4054 -1.4102
 1329TIP3   OH225621   3.906   3.164   0.970  0.0855  0.9695 -0.9089
 1329TIP3    H125622   3.889   3.237   1.029  0.6207 -0.8673  1.6598
 1329TIP3    H225623   3.999   3.146   0.979 -0.2489 -0.7640 -0.5646
 1330TIP3   OH225624   6.288   0.479   6.953 -0.2861  0.1759 -0.5565
 1330TIP3    H125625   6.368   0.480   6.901 -1.0510  1.9096 -1.7966
 1330TIP3    H225626   6.270   0.386   6.968  1.7523 -0.2652 -0.5131
 1331TIP3   OH225627   6.049   6.467   1.003  0.0260 -0.3381  0.3402
 1331TIP3    H125628   6.113   6.399   1.024  0.9127  0.8652  1.8292
 1331TIP3    H225629   5.971   6.420   0.974  0.9322 -1.9207  0.3903
 1332TIP3   OH225630   0.859   3.664   7.521 -0.1572  0.3555  1.2004
 1332TIP3    H125631   0.849   3.632   7.431 -1.3054  0.3691  1.3089
 1332TIP3    H225632   0.954   3.663   7.537  0.1024  0.9454 -0.2099
 1333TIP3   OH225633   4.800   4.169   8.109 -0.0221  0.6087 -1.0607
 1333TIP3    H125634   4.792   4.090   8.163  0.6625  1.6036  0.5754
 1333TIP3    H225635   4.714   4.209   8.112  0.1951  1.0241 -0.0879
 1334TIP3   OH225636   6.785   3.692   1.359  0.1744 -0.8219 -0.1752
 1334TIP3    H125637   6.781   3.773   1.411 -0.7340 -1.9657  1.6418
 1334TIP3    H225638   6.813   3.721   1.272  1.0172  1.2878  0.7281
 1335TIP3   OH225639   3.797   2.848   0.804  0.3052 -0.1101 -0.0419
 1335TIP3    H125640   3.801   2.795   0.724 -1.9190 -0.2300 -0.1472
 1335TIP3    H225641   3.882   2.891   0.809  0.6974 -0.5216 -2.1927
 1336TIP3   OH225642   4.020   1.375   7.841  0.2892 -0.5386  0.1303
 1336TIP3    H125643   3.960   1.338   7.905  0.3069 -1.0829 -0.1645
 1336TIP3    H225644   4.099   1.322   7.849  1.8494  1.9069  2.5240
 1337TIP3   OH225645   2.562   2.385   0.950 -0.0098  0.3395  0.0811
 1337TIP3    H125646   2.589   2.462   1.000 -1.0458  2.0872 -1.9069
 1337TIP3    H225647   2.490   2.415   0.895  1.3338 -1.2809 -2.8173
 1338TIP3   OH225648   2.826   0.668   7.347 -0.4940 -0.1050 -0.3644
 1338TIP3    H125649   2.822   0.617   7.266  0.4923  0.7555 -0.9815
 1338TIP3    H225650   2.906   0.639   7.390 -0.2836  0.4141 -0.3925
 1339TIP3   OH225651   3.971   5.816   6.651 -0.0238 -0.5140  0.3497
 1339TIP3    H125652   4.053   5.795   6.697  0.2730  0.3361  0.2208
 1339TIP3    H225653   3.997   5.823   6.559 -0.0212  0.8283  0.4349
 1340TIP3   OH225654   1.473   5.836   1.705  0.5960 -0.0934 -0.3309
 1340TIP3    H125655   1.396   5.785   1.679  0.1927  0.4030 -0.1372
 1340TIP3    H225656   1.514   5.784   1.775 -0.6354  0.5195  0.8997
 1341TIP3   OH225657   1.931   4.728   0.439 -0.2996  0.3158  1.0036
 1341TIP3    H125658   1.978   4.811   0.449  0.5834 -0.1629  0.9539
 1341TIP3    H225659   1.873   4.741   0.364 -0.1111  0.8595  0.9510
 1342TIP3   OH225660   4.257   2.419   1.531 -0.0106 -0.0971  0.2067
 1342TIP3    H125661   4.234   2.469   1.610 -0.8048  1.2034 -0.7945
 1342TIP3    H225662   4.199   2.454   1.463  1.9436  0.2027 -1.4232
 1343TIP3   OH225663   0.915   4.026   6.696  0.6517 -0.2232 -0.2389
 1343TIP3    H125664   0.907   4.107   6.746  1.7560 -0.2525  0.0116
 1343TIP3    H225665   0.854   4.037   6.623  0.1851  0.4781  0.2447
 1344TIP3   OH225666   4.901   5.456   8.564  0.1375 -0.0045 -0.1711
 1344TIP3    H125667   4.923   5.392   8.497 -0.9577 -0.8780  0.2612
 1344TIP3    H225668   4.806   5.465   8.558  0.1977  1.0827  0.2304
 1345TIP3   OH225669   6.763   4.248   1.343  0.0280 -0.6220 -0.1372
 1345TIP3    H125670   6.721   4.304   1.279  1.2964 -0.3161 -0.7355
 1345TIP3    H225671   6.746   4.159   1.312  1.4288 -0.4640 -1.4601
 1346TIP3   OH225672   2.889   3.096   0.000  0.3900 -0.2946  0.1758
 1346TIP3    H125673   2.926   3.123   0.084  2.5387 -0.3626 -0.6755
 1346TIP3    H225674   2.965   3.072  -0.052 -1.0000 -1.9124 -1.2325
 1347TIP3   OH225675   6.087   1.852   7.218 -0.4833 -0.7234  0.3643
 1347TIP3    H125676   6.081   1.795   7.142 -0.4135 -1.8683  1.1897
 1347TIP3    H225677   6.001   1.893   7.224 -0.3125 -0.1804 -0.6444
 1348TIP3   OH225678   3.587   6.363   7.101  0.3438  0.6957 -0.6108
 1348TIP3    H125679   3.498   6.363   7.137  0.5578 -2.9838  0.2661
 1348TIP3    H225680   3.637   6.418   7.161 -0.5050 -0.6721  1.4580
 1349TIP3   OH225681   3.837   0.429   0.502 -0.1939 -0.7119 -0.1004
 1349TIP3    H125682   3.744   0.405   0.510 -1.0078  1.8218 -1.1754
 1349TIP3    H225683   3.862   0.454   0.590 -0.8703 -0.3020 -0.0155
 1350TIP3   OH225684   4.427   2.949   7.866 -0.0159  0.5534  0.1296
 1350TIP3    H125685   4.434   3.035   7.909 -0.3071  0.6763 -0.0637
 1350TIP3    H225686   4.369   2.965   7.791  0.3280  0.2952 -0.1906
 1351TIP3   OH225687   0.571   4.401   7.980  0.0718  0.7101  0.2157
 1351TIP3    H125688   0.483   4.425   8.008 -1.3526 -2.3598 -1.2146
 1351TIP3    H225689   0.618   4.381   8.061 -1.3303  0.0293  0.8986
 1352TIP3   OH225690   3.080   2.340   1.189  0.7104 -1.0405  0.3577
 1352TIP3    H125691   3.060   2.341   1.283 -0.3084  0.5397  0.1654
 1352TIP3    H225692   3.155   2.399   1.180  0.0959 -0.2970  0.0509
 1353TIP3   OH225693   3.719   0.929   0.090  0.3262 -0.3532  0.6248
 1353TIP3    H125694   3.736   0.840   0.059 -1.7387 -0.6053  0.0879
 1353TIP3    H225695   3.703   0.919   0.184  0.9388 -0.4077  0.7291
 1354TIP3   OH225696   2.278   4.344   8.315  0.1364  0.2419  0.2946
 1354TIP3    H125697   2.363   4.362   8.276 -0.2609 -1.1601 -1.3169
 1354TIP3    H225698   2.267   4.249   8.308 -1.5871  0.3984  0.3569
 1355TIP3   OH225699   0.985   5.237   0.436  0.4293  0.1290 -0.0344
 1355TIP3    H125700   0.958   5.146   0.449  0.6194  0.1583  0.5995
 1355TIP3    H225701   1.006   5.268   0.524 -0.3360  1.0112 -0.1495
 1356TIP3   OH225702   5.546   5.830   6.647 -0.3204 -0.3803 -0.2531
 1356TIP3    H125703   5.607   5.789   6.709 -0.6603  0.9154  0.9874
 1356TIP3    H225704   5.503   5.756   6.605 -0.0961 -1.3291  1.1010
 1357TIP3   OH225705   3.793   2.571   1.430  0.2562 -0.0667 -0.2266
 1357TIP3    H125706   3.758   2.552   1.517 -1.8564  0.0537 -0.9869
 1357TIP3    H225707   3.833   2.658   1.439 -0.8434  0.3949  0.4151
 1358TIP3   OH225708   6.341   3.165   8.969 -0.6022 -0.1643 -0.4165
 1358TIP3    H125709   6.281   3.234   8.941 -0.9241 -0.3388 -0.1652
 1358TIP3    H225710   6.429   3.200   8.952 -0.7169  0.8794  1.0195
 1359TIP3   OH225711   0.873   5.841   8.276 -0.5108 -0.1600  0.2439
 1359TIP3    H125712   0.824   5.779   8.330  1.7710 -1.1847  1.3019
 1359TIP3    H225713   0.965   5.813   8.285  0.2122  0.9673 -2.4474
 1360TIP3   OH225714   0.402   2.240   0.095 -0.2245 -0.1601 -0.2540
 1360TIP3    H125715   0.314   2.224   0.060  0.0514 -0.3534 -0.8789
 1360TIP3    H225716   0.455   2.259   0.018  0.7712 -2.2809 -0.1791
 1361TIP3   OH225717   3.543   4.776   8.276  0.2676  0.0117 -0.8545
 1361TIP3    H125718   3.512   4.788   8.366  0.7381  0.7787 -0.7865
 1361TIP3    H225719   3.619   4.833   8.269  0.6012 -0.5085 -1.5614
 1362TIP3   OH225720   5.553   0.736   7.738  0.3688 -0.4523 -0.3519
 1362TIP3    H125721   5.460   0.760   7.729  0.5983  0.2416 -0.9500
 1362TIP3    H225722   5.556   0.643   7.717 -0.1844 -0.4694 -0.3655
 1363TIP3   OH225723   1.139   3.830   8.705 -0.0146  0.5092 -0.4032
 1363TIP3    H125724   1.217   3.774   8.712 -0.7915 -0.6873 -0.8886
 1363TIP3    H225725   1.079   3.796   8.771 -0.6123  0.5704 -0.9013
 1364TIP3   OH225726   0.528   2.993   6.825 -0.1142 -0.0371 -0.7489
 1364TIP3    H125727   0.479   2.924   6.869 -0.8751  1.4569  0.8554
 1364TIP3    H225728   0.466   3.065   6.815  1.3393  1.4239  0.1622
 1365TIP3   OH225729   5.050   5.477   8.131 -0.0471  0.5442 -0.1314
 1365TIP3    H125730   5.095   5.549   8.175 -0.9742  0.8460  0.3740
 1365TIP3    H225731   5.118   5.432   8.082  1.1010  0.0746  1.7692
 1366TIP3   OH225732   1.378   1.082   8.520 -0.0133  0.3108  0.3506
 1366TIP3    H125733   1.471   1.071   8.501 -0.5050  0.0719 -2.3177
 1366TIP3    H225734   1.342   1.120   8.440 -2.8202 -2.9075 -0.1374
 1367TIP3   OH225735   2.919   5.574   7.383  0.4158  0.1437  0.0361
 1367TIP3    H125736   2.976   5.510   7.340  0.5525 -0.4049  1.0049
 1367TIP3    H225737   2.977   5.620   7.444 -0.2931 -0.9082  1.5498
 1368TIP3   OH225738   0.047   4.178   0.838  0.3569  0.4743 -0.1604
 1368TIP3    H125739   0.050   4.127   0.757  0.1546  1.4992 -0.8284
 1368TIP3    H225740  -0.002   4.257   0.815  0.8478  1.0738  0.7966
 1369TIP3   OH225741   3.428   6.275   6.736 -0.0330  0.1085  0.6348
 1369TIP3    H125742   3.398   6.218   6.665 -0.8580  0.0109  1.0453
 1369TIP3    H225743   3.523   6.278   6.726 -0.1703  0.5030 -0.7704
 1370TIP3   OH225744   4.695   2.305   6.736 -0.1307 -0.4492  0.4023
 1370TIP3    H125745   4.738   2.300   6.650  0.4478 -1.1015  0.7186
 1370TIP3    H225746   4.670   2.397   6.744 -0.1076 -0.3585 -0.4262
 1371TIP3   OH225747   2.359   5.741   8.936 -0.4325  0.4348  0.5017
 1371TIP3    H125748   2.281   5.797   8.939  0.4698  1.7418  1.1584
 1371TIP3    H225749   2.398   5.751   9.023  0.9907  0.6306 -0.1221
 1372TIP3   OH225750   4.154   1.805   8.965  0.3096 -0.2571 -0.0388
 1372TIP3    H125751   4.094   1.739   9.000 -1.6381  1.3906 -0.0781
 1372TIP3    H225752   4.120   1.824   8.877  1.6417 -0.1433 -0.5463
 1373TIP3   OH225753   2.597   1.545   0.838 -0.0071 -0.8941  0.5155
 1373TIP3    H125754   2.504   1.557   0.817  0.1275 -1.2016 -0.3203
 1373TIP3    H225755   2.613   1.452   0.818 -0.1372 -1.5811  3.1750
 1374TIP3   OH225756   5.744   2.800   7.960  0.7818  0.0902 -0.9981
 1374TIP3    H125757   5.655   2.767   7.959  0.7749 -0.1009  1.1504
 1374TIP3    H225758   5.770   2.804   7.868 -0.9550 -1.1239 -1.5763
 1375TIP3   OH225759   1.276   2.407   7.332  0.0083 -0.4487 -0.3037
 1375TIP3    H125760   1.370   2.397   7.347  0.2532  1.3731 -0.4123
 1375TIP3    H225761   1.236   2.381   7.415  0.7810  0.9714  0.5502
 1376TIP3   OH225762   0.046   5.635   2.109 -0.1072 -0.8011  0.0386
 1376TIP3    H125763   0.073   5.597   2.193 -0.2308 -0.1019  0.3979
 1376TIP3    H225764  -0.037   5.678   2.128  0.9193  1.2492  0.0994
 1377TIP3   OH225765   6.297   6.669   8.456  0.2027  0.0507  0.5334
 1377TIP3    H125766   6.283   6.648   8.549  2.7625 -0.1580  0.9344
 1377TIP3    H225767   6.273   6.589   8.409 -0.9091  0.0880  1.0069
 1378TIP3   OH225768   3.243   6.173   0.483 -0.2511 -0.5325  0.1499
 1378TIP3    H125769   3.233   6.157   0.577  2.2426 -0.0075  0.5846
 1378TIP3    H225770   3.230   6.267   0.472  2.6673  0.0163  0.5972
 1379TIP3   OH225771   6.001   0.820   0.039 -0.1440  0.4648  0.3699
 1379TIP3    H125772   6.008   0.752   0.106  1.1901  1.4770  1.3265
 1379TIP3    H225773   6.072   0.800  -0.022  0.5361  1.2332  0.8971
 1380TIP3   OH225774   2.985   5.128   7.373  0.1554  0.1838 -0.2127
 1380TIP3    H125775   2.919   5.058   7.377  1.7020 -1.2999  1.0452
 1380TIP3    H225776   3.006   5.136   7.281 -1.3871  0.3264 -0.5803
 1381TIP3   OH225777   2.191   1.412   6.358  0.2023  0.2995 -0.5687
 1381TIP3    H125778   2.128   1.465   6.308 -0.5024  0.8106  0.8040
 1381TIP3    H225779   2.139   1.377   6.430  0.7450 -2.0035 -1.2278
 1382TIP3   OH225780   6.615   1.552   7.858 -0.1312  0.3111  0.6583
 1382TIP3    H125781   6.557   1.608   7.807 -0.3498  0.9818  1.6137
 1382TIP3    H225782   6.597   1.576   7.949 -1.3660 -2.4186  1.2153
 1383TIP3   OH225783   2.716   0.824   8.245  0.3537 -0.1856  0.1566
 1383TIP3    H125784   2.685   0.911   8.270  0.5735  0.1623 -0.7269
 1383TIP3    H225785   2.644   0.766   8.266  0.5833  0.0453  1.7228
 1384TIP3   OH225786   5.994   2.661   2.360 -0.7071 -0.1242  0.0825
 1384TIP3    H125787   5.907   2.698   2.373 -0.2448  1.4221 -0.8792
 1384TIP3    H225788   6.052   2.717   2.412  0.1444  1.2537 -2.1989
 1385TIP3   OH225789   1.521   3.902   0.757  0.0499 -0.0678  0.1351
 1385TIP3    H125790   1.565   3.894   0.842  0.4827  1.1442  0.0487
 1385TIP3    H225791   1.439   3.946   0.777  1.3210  2.7783 -0.3351
 1386TIP3   OH225792   4.875   2.109   6.556 -0.9133 -0.1955  0.1625
 1386TIP3    H125793   4.860   2.037   6.618  0.2668 -1.5928 -1.1074
 1386TIP3    H225794   4.790   2.121   6.514 -1.1540 -0.7782  0.4590
 1387TIP3   OH225795   0.927   2.025   1.186  0.2966 -0.0828 -0.4278
 1387TIP3    H125796   0.973   2.108   1.197  0.6676 -0.3661  0.2096
 1387TIP3    H225797   0.846   2.048   1.140 -0.3699  0.8766  1.1515
 1388TIP3   OH225798   2.151   6.637   0.774 -0.3949 -0.2286  0.1502
 1388TIP3    H125799   2.229   6.633   0.719  0.1866  1.7746  0.7226
 1388TIP3    H225800   2.181   6.677   0.856 -1.9686  0.3885  0.4655
 1389TIP3   OH225801   4.552   3.612   8.930 -0.8086  0.5414  0.6508
 1389TIP3    H125802   4.641   3.579   8.939 -1.7597 -2.0715  1.6149
 1389TIP3    H225803   4.552   3.695   8.977  0.8582  0.0448  1.6077
 1390TIP3   OH225804   4.583   4.337   0.807  0.0564  0.0011 -0.4412
 1390TIP3    H125805   4.578   4.432   0.810 -0.1958  0.0310 -1.4642
 1390TIP3    H225806   4.674   4.318   0.829  0.6974  0.6211 -2.3511
 1391TIP3   OH225807   0.270   1.346   8.009 -0.3216  0.1060 -0.0591
 1391TIP3    H125808   0.291   1.435   8.039 -1.3703  0.4638 -0.3396
 1391TIP3    H225809   0.176   1.349   7.990 -0.4917 -1.2338  0.4882
 1392TIP3   OH225810   1.638   1.315   0.414  0.2583 -0.1055 -0.0058
 1392TIP3    H125811   1.688   1.391   0.388  1.7314 -0.1087  2.4569
 1392TIP3    H225812   1.608   1.275   0.332  2.0401  1.3852 -1.4474
 1393TIP3   OH225813   0.737   5.373   1.034  0.0957 -0.7923 -0.3534
 1393TIP3    H125814   0.710   5.464   1.033 -0.3886 -0.9153 -1.7403
 1393TIP3    H225815   0.713   5.341   1.121  0.7417  0.5176  0.3275
 1394TIP3   OH225816   3.961   0.054   7.701  0.0543  0.3986  0.2074
 1394TIP3    H125817   4.053   0.045   7.675 -0.1323  0.6080 -0.5629
 1394TIP3    H225818   3.918   0.089   7.623 -0.9388 -1.0551  0.0559
 1395TIP3   OH225819   5.512   2.350   1.354 -0.0303  0.2026 -0.3656
 1395TIP3    H125820   5.559   2.431   1.374 -2.2689  1.8427 -1.2544
 1395TIP3    H225821   5.465   2.369   1.272 -0.2714 -2.1768 -0.8627
 1396TIP3   OH225822   1.091   6.271   0.293  0.5480  0.0804  0.1839
 1396TIP3    H125823   1.048   6.288   0.377 -1.3762 -0.8769 -0.5616
 1396TIP3    H225824   1.149   6.346   0.281 -0.6380  1.2656  1.4142
 1397TIP3   OH225825   1.444   1.089   0.813 -0.3910 -0.1035  0.6795
 1397TIP3    H125826   1.421   1.068   0.722 -1.6733  0.5176  0.8452
 1397TIP3    H225827   1.405   1.018   0.864 -0.8854  0.2841  0.8527
 1398TIP3   OH225828   4.358   4.379   1.413 -0.0312 -0.2425  0.4115
 1398TIP3    H125829   4.406   4.433   1.477  1.2163 -0.4764 -0.2889
 1398TIP3    H225830   4.368   4.426   1.330 -1.1731 -0.2253  0.2675
 1399TIP3   OH225831   1.869   6.505   7.672 -0.4051  0.0977  0.2855
 1399TIP3    H125832   1.868   6.590   7.628  0.2230 -0.2899 -0.5019
 1399TIP3    H225833   1.780   6.470   7.659 -0.4844  0.3721  0.0816
 1400TIP3   OH225834   1.789   4.995   8.646 -0.5860 -0.4886  0.5221
 1400TIP3    H125835   1.703   4.985   8.687 -0.6853  0.5636  0.6057
 1400TIP3    H225836   1.770   5.026   8.558 -0.3054 -0.8232  0.3427
 1401TIP3   OH225837   0.236   4.983   8.924  0.4261  1.1536  0.3049
 1401TIP3    H125838   0.181   4.989   9.002  0.1749  0.7073  0.1660
 1401TIP3    H225839   0.261   5.073   8.905 -1.0172  1.4676 -0.1730
 1402TIP3   OH225840   3.988   2.533   7.488 -0.0450  0.3502 -0.2014
 1402TIP3    H125841   4.034   2.461   7.532 -0.3369  1.2808  1.6723
 1402TIP3    H225842   4.014   2.611   7.535 -0.1561  1.4532 -1.8848
 1403TIP3   OH225843   4.463   5.111   2.314  0.0653 -0.1803 -0.8489
 1403TIP3    H125844   4.556   5.107   2.291  0.0321  2.1001 -1.6195
 1403TIP3    H225845   4.457   5.060   2.395  2.0004 -0.3391 -0.7507
 1404TIP3   OH225846   1.798   6.355   0.641 -0.4890 -0.3835  0.1810
 1404TIP3    H125847   1.780   6.445   0.668 -0.5349 -0.6118  0.9537
 1404TIP3    H225848   1.796   6.305   0.723  2.1639 -0.6576  0.1713
 1405TIP3   OH225849   3.009   4.216   1.818 -0.1808  0.3997 -0.6073
 1405TIP3    H125850   2.974   4.205   1.730 -0.6015 -1.0693 -0.2785
 1405TIP3    H225851   3.034   4.128   1.845  3.2588  1.2413 -0.5910
 1406TIP3   OH225852   0.776   6.169   8.297 -0.7072 -0.2008  0.0915
 1406TIP3    H125853   0.725   6.089   8.282 -0.4518 -0.0700 -1.6993
 1406TIP3    H225854   0.715   6.229   8.340 -1.4209 -0.7569 -0.1281
 1407TIP3   OH225855   2.739   3.961   6.142  0.3251 -0.1331  0.0627
 1407TIP3    H125856   2.713   3.951   6.233 -1.3643  0.8738 -0.2599
 1407TIP3    H225857   2.783   4.046   6.138 -2.0389  1.1413 -0.4907
 1408TIP3   OH225858   0.046   3.214   2.179  0.4628 -0.0964 -0.1183
 1408TIP3    H125859   0.140   3.208   2.197 -0.0226 -0.9866  2.6263
 1408TIP3    H225860   0.021   3.127   2.147  0.4180 -0.1761  0.1288
 1409TIP3   OH225861   4.169   6.290   7.649 -0.3214  0.1975  0.3927
 1409TIP3    H125862   4.184   6.286   7.743 -0.7194 -0.1934  0.4443
 1409TIP3    H225863   4.204   6.376   7.622  2.0565 -0.6787  0.4684
 1410TIP3   OH225864   4.093   5.381   8.727 -0.0693 -0.2606 -0.0522
 1410TIP3    H125865   4.140   5.329   8.792 -0.7723 -0.6312  0.1572
 1410TIP3    H225866   4.014   5.331   8.707 -0.0002 -0.0290 -0.9952
 1411TIP3   OH225867   0.324   3.248   7.271  0.2552 -0.8388 -0.1044
 1411TIP3    H125868   0.333   3.234   7.177  0.7153 -1.5448  0.0366
 1411TIP3    H225869   0.296   3.164   7.306 -1.9136 -0.0754  0.1604
 1412TIP3   OH225870   3.697   6.015   0.290 -1.0915  0.2721 -0.3575
 1412TIP3    H125871   3.648   6.089   0.327  0.2784  2.1622 -2.0495
 1412TIP3    H225872   3.675   6.017   0.197 -0.8760 -1.3813 -0.4671
 1413TIP3   OH225873   4.177   5.989   7.516  0.2466 -0.1565  0.0137
 1413TIP3    H125874   4.161   6.065   7.459  2.7206 -1.4632 -2.6764
 1413TIP3    H225875   4.269   5.997   7.541  0.0206 -1.2946  1.3067
 1414TIP3   OH225876   4.891   2.403   2.292  0.2926  0.1437  0.2610
 1414TIP3    H125877   4.824   2.466   2.263  0.5071  0.4649  0.4703
 1414TIP3    H225878   4.973   2.451   2.287  0.2601  0.4958  2.2118
 1415TIP3   OH225879   1.299   6.325   1.677 -0.0734  0.0069  0.1377
 1415TIP3    H125880   1.296   6.235   1.710  0.7465 -1.1964 -2.7790
 1415TIP3    H225881   1.350   6.373   1.742  0.3135 -1.8667  1.2741
 1416TIP3   OH225882   4.206   1.769   7.021  0.2125  0.3690  0.1440
 1416TIP3    H125883   4.161   1.820   7.088 -0.3470  0.0255  0.0379
 1416TIP3    H225884   4.161   1.685   7.021  0.9448 -0.0253  0.1189
 1417TIP3   OH225885   4.898   6.384   7.800  0.8165 -0.9280  0.0972
 1417TIP3    H125886   4.896   6.439   7.722 -0.1746  0.8418  1.2817
 1417TIP3    H225887   4.975   6.329   7.789  3.4568  2.5002 -0.0441
 1418TIP3   OH225888   1.092   1.163   7.515  0.4149 -0.5372 -0.4414
 1418TIP3    H125889   1.075   1.126   7.602 -0.7667 -2.4021 -1.4084
 1418TIP3    H225890   1.173   1.213   7.527 -0.4275  0.4391  2.0299
 1419TIP3   OH225891   0.865   2.782   5.893 -0.4500  0.1835 -0.1127
 1419TIP3    H125892   0.856   2.797   5.987  0.0311 -0.5197  0.0531
 1419TIP3    H225893   0.782   2.812   5.856 -0.9647 -0.2913  0.6285
 1420TIP3   OH225894   0.060   2.593   2.061  0.6530  0.3847 -0.4679
 1420TIP3    H125895   0.109   2.669   2.093 -0.5634  0.5652  1.0859
 1420TIP3    H225896   0.027   2.551   2.140 -0.8538 -0.3013 -1.4112
 1421TIP3   OH225897   1.421   6.515   0.786 -0.8168 -0.0293 -0.0634
 1421TIP3    H125898   1.434   6.451   0.856 -1.9675  0.6304  0.8131
 1421TIP3    H225899   1.501   6.567   0.786 -0.9619  0.2262  1.0781
 1422TIP3   OH225900   5.013   4.296   7.510 -0.0913  0.3658  0.8798
 1422TIP3    H125901   5.007   4.369   7.447  1.6786  0.1723  0.4332
 1422TIP3    H225902   5.025   4.219   7.456  0.5065  0.0630  1.4419
 1423TIP3   OH225903   5.134   0.753   0.863 -0.3043  0.1817  0.5191
 1423TIP3    H125904   5.150   0.815   0.934 -0.9001 -0.4024  1.1762
 1423TIP3    H225905   5.165   0.669   0.897  0.7707  0.1470 -0.4706
 1424TIP3   OH225906   3.269   1.503   0.228  0.1035  0.4878  0.3781
 1424TIP3    H125907   3.271   1.588   0.272 -1.8550  0.9618 -0.3455
 1424TIP3    H225908   3.234   1.443   0.294 -2.4220  1.1144 -0.2785
 1425TIP3   OH225909   2.105   1.460   1.276  0.0543  0.6552  0.4193
 1425TIP3    H125910   2.010   1.458   1.265  0.1299  0.0866 -0.1342
 1425TIP3    H225911   2.135   1.523   1.211  0.3971 -1.9241 -2.1003
 1426TIP3   OH225912   0.418   2.316   0.556  0.1060  0.8011 -0.1591
 1426TIP3    H125913   0.335   2.326   0.510  1.6628  1.6172 -3.0285
 1426TIP3    H225914   0.423   2.222   0.578 -0.1253  0.0131 -3.0696
 1427TIP3   OH225915   3.213   4.990   1.597  0.2129  0.1179  0.1393
 1427TIP3    H125916   3.220   4.997   1.692  1.8434  1.0649 -0.0225
 1427TIP3    H225917   3.219   5.081   1.566  2.5685 -0.3569 -1.0076
 1428TIP3   OH225918   4.877   1.759   7.275 -0.0404 -0.2921 -0.7524
 1428TIP3    H125919   4.889   1.847   7.240  0.5474 -0.6509 -1.4796
 1428TIP3    H225920   4.962   1.717   7.263 -0.2277 -0.8600 -0.1215
 1429TIP3   OH225921   4.060   4.470   0.671  0.0487  0.0032 -0.3010
 1429TIP3    H125922   4.027   4.541   0.615 -1.6336 -1.1970 -0.9129
 1429TIP3    H225923   3.981   4.436   0.714  1.1434  0.1428  1.9840
 1430TIP3   OH225924   5.375   0.979   8.005  0.1496  0.5831 -0.0569
 1430TIP3    H125925   5.393   1.004   8.096 -0.8437  0.3248  0.2233
 1430TIP3    H225926   5.321   0.900   8.012 -2.3773  2.1395 -0.7901
 1431TIP3   OH225927   5.133   6.024   8.286 -0.2836  0.4749 -0.1697
 1431TIP3    H125928   5.200   6.075   8.333 -0.1599 -0.0599  0.2406
 1431TIP3    H225929   5.182   5.951   8.248 -0.0670  1.7301 -2.5210
 1432TIP3   OH225930   0.892   5.944   0.295  0.4875 -0.3449 -0.1777
 1432TIP3    H125931   0.958   5.924   0.229  0.4918  1.0814 -0.6371
 1432TIP3    H225932   0.857   6.029   0.269 -1.4221 -0.9757  0.1592
 1433TIP3   OH225933   6.441   0.785   8.472  0.3647 -0.0427  0.0702
 1433TIP3    H125934   6.410   0.852   8.533  0.7955  0.1956  0.0340
 1433TIP3    H225935   6.460   0.834   8.392 -1.3970 -0.5212 -0.7018
 1434TIP3   OH225936   6.525   0.996   8.264 -0.3431  0.1542 -0.1210
 1434TIP3    H125937   6.550   1.083   8.297  4.5834 -0.3272 -1.6930
 1434TIP3    H225938   6.578   0.984   8.185 -2.1641 -3.6004 -0.9977
 1435TIP3   OH225939   6.690   6.267   7.195 -0.1234  0.3638 -0.2004
 1435TIP3    H125940   6.662   6.260   7.104 -0.3931 -3.0861  0.0198
 1435TIP3    H225941   6.610   6.262   7.246  0.1040  1.3812  0.2916
 1436TIP3   OH225942   0.867   6.575   2.080 -0.3333 -0.3412 -0.8745
 1436TIP3    H125943   0.959   6.571   2.106 -0.4480  1.6733 -0.0432
 1436TIP3    H225944   0.825   6.504   2.129  0.1872  0.8541  1.4141
 1437TIP3   OH225945   2.865   4.201   6.220 -0.0400 -0.2359 -0.0169
 1437TIP3    H125946   2.895   4.273   6.163  1.3027  0.3541  1.3523
 1437TIP3    H225947   2.945   4.153   6.240 -0.6756 -1.1052  0.4562
 1438TIP3   OH225948   1.033   6.475   1.422  0.1821  0.1421 -0.4991
 1438TIP3    H125949   1.091   6.413   1.379 -0.8136 -1.1010 -0.1011
 1438TIP3    H225950   0.949   6.465   1.377 -0.1957  0.6626  0.0706
 1439TIP3   OH225951   0.282   0.233   1.938  0.5104  0.1693  0.0897
 1439TIP3    H125952   0.322   0.162   1.989  2.3174  1.5759  0.7194
 1439TIP3    H225953   0.235   0.188   1.868  0.3923 -1.6987  1.2919
 1440TIP3   OH225954   0.375   5.121   8.612  0.2835 -0.1643  0.3768
 1440TIP3    H125955   0.380   5.175   8.691  1.4944  0.2081  0.0667
 1440TIP3    H225956   0.298   5.153   8.566  0.7708  1.0727  0.3808
 1441TIP3   OH225957   6.241   4.553   2.128 -0.7277  0.4015  0.3236
 1441TIP3    H125958   6.275   4.616   2.191  0.1328 -0.8253  1.1235
 1441TIP3    H225959   6.302   4.479   2.131 -2.5420 -1.1882  0.5962
 1442TIP3   OH225960   0.761   0.113   0.935  0.4357 -0.3305 -0.6792
 1442TIP3    H125961   0.828   0.180   0.949  1.1631 -1.6311  3.4916
 1442TIP3    H225962   0.680   0.163   0.925  0.9574  1.3513  2.1584
 1443TIP3   OH225963   3.475   6.396   0.173  0.0976 -0.4455 -0.2543
 1443TIP3    H125964   3.545   6.393   0.108  1.0332 -0.7029  0.7245
 1443TIP3    H225965   3.457   6.489   0.186  1.6795 -0.2610  0.9138
 1444TIP3   OH225966   1.856   5.272   1.175 -0.5113 -0.0143 -0.0247
 1444TIP3    H125967   1.810   5.216   1.113  0.7866 -1.5975  0.3300
 1444TIP3    H225968   1.949   5.257   1.155 -0.1014  0.4718  1.4040
 1445TIP3   OH225969   3.230   4.676   8.477 -0.1602 -0.0187  0.2666
 1445TIP3    H125970   3.319   4.697   8.505  0.3128  0.3560 -1.4439
 1445TIP3    H225971   3.214   4.733   8.402 -2.1206  0.4410  0.9579
 1446TIP3   OH225972   3.886   6.387   8.371  0.1376 -0.2719  0.0626
 1446TIP3    H125973   3.832   6.447   8.422 -1.4812 -2.0869  0.6117
 1446TIP3    H225974   3.970   6.384   8.418 -0.3286  0.2812  0.9633
 1447TIP3   OH225975   5.782   4.150   0.509  0.5967 -1.0478  0.1618
 1447TIP3    H125976   5.719   4.111   0.569 -0.1180  0.1206  0.1919
 1447TIP3    H225977   5.785   4.242   0.533 -0.6868 -0.2436 -2.3805
 1448TIP3   OH225978   0.853   0.462   7.371 -0.7014 -0.1189 -0.1300
 1448TIP3    H125979   0.946   0.454   7.392 -0.7484  0.5559  0.3835
 1448TIP3    H225980   0.845   0.546   7.326 -1.1581  0.1448  0.4272
 1449TIP3   OH225981   6.656   4.614   0.597 -0.0278 -0.5129 -0.0129
 1449TIP3    H125982   6.568   4.600   0.562  0.7768 -1.0700 -1.9121
 1449TIP3    H225983   6.649   4.696   0.647 -1.6724 -0.7010  0.1272
 1450TIP3   OH225984   2.567   2.166   7.448 -1.2450  0.4349  0.7587
 1450TIP3    H125985   2.600   2.201   7.366 -0.8246  1.5532  1.3904
 1450TIP3    H225986   2.578   2.071   7.439 -3.0374  0.3340 -1.2487
 1451TIP3   OH225987   0.692   1.246   7.419 -0.1221 -0.1750  0.5952
 1451TIP3    H125988   0.776   1.239   7.374 -0.2592  2.2354 -0.1901
 1451TIP3    H225989   0.709   1.306   7.492 -0.9270 -0.5001  1.0626
 1452TIP3   OH225990   6.279   0.100   0.978  0.3469 -0.0468 -0.0230
 1452TIP3    H125991   6.192   0.118   1.014  0.8061  3.6089 -0.4055
 1452TIP3    H225992   6.328   0.065   1.053 -1.6499 -3.5921 -0.1320
 1453TIP3   OH225993   3.571   5.460   1.108 -0.1242 -0.0457 -0.2655
 1453TIP3    H125994   3.650   5.411   1.131 -0.7938 -0.3178  1.6175
 1453TIP3    H225995   3.594   5.552   1.125 -0.4546 -0.2015  1.1457
 1454TIP3   OH225996   3.862   3.716   7.546 -0.0498  0.0182  1.0954
 1454TIP3    H125997   3.808   3.637   7.536 -0.3056  0.0705  1.9950
 1454TIP3    H225998   3.921   3.696   7.618  0.1873  0.4875  1.0334
 1455TIP3   OH225999   5.618   0.460   1.638 -0.1857  0.2075  0.6976
 1455TIP3    H126000   5.641   0.484   1.548  2.2947 -3.1004  0.2424
 1455TIP3    H226001   5.531   0.420   1.629  0.0891 -0.2185 -0.3262
 1456TIP3   OH226002   2.125   5.477   7.145 -0.4785  0.0391  0.1657
 1456TIP3    H126003   2.050   5.418   7.136  0.9163 -1.9313  0.7024
 1456TIP3    H226004   2.195   5.435   7.094  0.2664  1.8816 -0.4297
 1457TIP3   OH226005   2.119   4.317   6.266  0.3444  0.3344 -0.1631
 1457TIP3    H126006   2.125   4.402   6.223 -1.4879  1.3420  1.3679
 1457TIP3    H226007   2.025   4.295   6.262  0.5858 -0.9602  0.6233
 1458TIP3   OH226008   0.675   4.019   0.797 -0.4706  0.0333  0.3300
 1458TIP3    H126009   0.587   3.999   0.765 -0.5251  1.8759 -0.8653
 1458TIP3    H226010   0.710   3.935   0.824 -3.0519 -0.5874  2.1332
 1459TIP3   OH226011   0.603   2.286   0.279 -0.1321  0.3306  0.1137
 1459TIP3    H126012   0.632   2.200   0.308  0.0605  0.7294  1.1496
 1459TIP3    H226013   0.530   2.268   0.220  0.3201 -0.5590 -0.1892
 1460TIP3   OH226014   1.325   4.427   2.480  0.6983  0.3773  0.3210
 1460TIP3    H126015   1.290   4.434   2.569  1.0179  0.2896  0.4526
 1460TIP3    H226016   1.247   4.430   2.424  0.3536 -1.0239  0.6655
 1461TIP3   OH226017   1.948   4.002   0.226 -0.4246  0.8542 -0.0540
 1461TIP3    H126018   2.017   4.067   0.240  0.9076 -0.4448 -0.2157
 1461TIP3    H226019   1.947   3.988   0.132  0.7189 -0.7260  0.1098
 1462TIP3   OH226020   3.361   0.321   7.661  0.0725 -0.3116 -0.8292
 1462TIP3    H126021   3.447   0.311   7.701 -0.2161 -2.0287 -0.5650
 1462TIP3    H226022   3.379   0.319   7.566  0.2720 -1.6565 -0.7933
 1463TIP3   OH226023   3.000   0.451   7.458 -0.9960  0.0194  0.3113
 1463TIP3    H126024   3.034   0.469   7.546  0.6100 -1.4776  0.0651
 1463TIP3    H226025   2.962   0.363   7.464 -0.3660 -0.3385 -0.5789
 1464TIP3   OH226026   1.729   6.026   1.348  0.2816  0.3126 -0.2769
 1464TIP3    H126027   1.813   6.016   1.303  0.6922  1.7668  0.1205
 1464TIP3    H226028   1.664   6.016   1.279  0.8177  0.1039 -0.7597
 1465TIP3   OH226029   5.953   1.560   2.580 -0.0256  0.4709  0.3285
 1465TIP3    H126030   6.047   1.577   2.590 -0.0188  0.8194 -0.2650
 1465TIP3    H226031   5.934   1.490   2.643  0.0303  2.3694  2.6339
 1466TIP3   OH226032   5.439   3.519   7.854 -0.1838  0.2562  0.1982
 1466TIP3    H126033   5.509   3.573   7.890  0.8090 -0.9863  0.2074
 1466TIP3    H226034   5.383   3.499   7.929  0.2687  0.0640  0.4906
 1467TIP3   OH226035   0.878   3.562   7.255 -0.3797  0.4189  0.1034
 1467TIP3    H126036   0.883   3.469   7.280 -0.5834 -0.5360 -3.0618
 1467TIP3    H226037   0.960   3.579   7.208 -0.6214  1.6860  0.1076
 1468TIP3   OH226038   6.083   5.173   2.471  0.0187 -0.1120 -0.3921
 1468TIP3    H126039   6.160   5.217   2.507  0.6674 -0.7937 -0.9191
 1468TIP3    H226040   6.047   5.235   2.408 -0.1919  0.4306  0.2519
 1469TIP3   OH226041   2.416   6.292   1.603 -0.4554 -0.6356  0.0655
 1469TIP3    H126042   2.437   6.255   1.517  0.5975 -1.2054  0.5521
 1469TIP3    H226043   2.471   6.244   1.664  0.6190  1.4137  0.8029
 1470TIP3   OH226044   1.810   4.976   0.807  0.1693 -0.3851  0.4076
 1470TIP3    H126045   1.781   4.909   0.745 -1.0607 -0.2044  0.7700
 1470TIP3    H226046   1.853   5.042   0.752  1.1922 -1.3315  0.0233
 1471TIP3   OH226047   1.992   0.546   0.913 -0.3231 -0.0223 -0.4202
 1471TIP3    H126048   1.994   0.452   0.898 -0.3467  0.1067 -1.2744
 1471TIP3    H226049   1.926   0.558   0.981  0.1953 -0.6808  0.2207
 1472TIP3   OH226050   3.411   0.425   7.409  0.0982  0.3624  0.7858
 1472TIP3    H126051   3.340   0.448   7.349  0.6362  0.1613  0.0590
 1472TIP3    H226052   3.481   0.488   7.390 -0.1582  1.0726  2.0482
 1473TIP3   OH226053   4.753   4.300   7.581 -0.0921 -0.0684 -0.8687
 1473TIP3    H126054   4.716   4.219   7.617  0.0925  0.6728  1.0813
 1473TIP3    H226055   4.846   4.281   7.569  0.0282 -0.0405 -0.0346
 1474TIP3   OH226056   3.668   0.862   1.503 -0.3180  0.2254 -0.1251
 1474TIP3    H126057   3.624   0.818   1.431 -0.0521 -1.7125  0.8306
 1474TIP3    H226058   3.754   0.820   1.509  0.1772  1.2860  0.4694
 1475TIP3   OH226059   4.477   1.249   2.330 -0.5896  0.8113 -0.3316
 1475TIP3    H126060   4.478   1.154   2.323 -1.0019  0.8336 -0.7002
 1475TIP3    H226061   4.386   1.271   2.351 -0.5250  1.1333 -0.3817
 1476TIP3   OH226062   4.694   0.171   8.319  0.1526  0.5979  0.5056
 1476TIP3    H126063   4.639   0.105   8.277  0.6484 -0.0292  0.8120
 1476TIP3    H226064   4.758   0.195   8.252 -0.0162  0.7544  0.4009
 1477TIP3   OH226065   1.635   4.031   0.023  0.2382  0.3418 -0.1193
 1477TIP3    H126066   1.577   3.968   0.066 -0.4280  0.4336 -0.8574
 1477TIP3    H226067   1.601   4.037  -0.067  0.3113  1.7044 -0.0760
 1478TIP3   OH226068   3.614   1.100   8.380 -0.4778  0.2601  0.6496
 1478TIP3    H126069   3.702   1.064   8.379  0.0012  1.3828  1.0192
 1478TIP3    H226070   3.607   1.146   8.464 -0.7591  1.6936 -0.1158
 1479TIP3   OH226071   1.598   0.136   8.966  0.4328  0.4326  0.2689
 1479TIP3    H126072   1.608   0.156   9.059 -0.8018  0.8706  0.3207
 1479TIP3    H226073   1.670   0.075   8.947  0.0293 -0.5728  1.7803
 1480TIP3   OH226074   4.976   4.431   0.531  0.4726 -0.3631  0.4865
 1480TIP3    H126075   5.071   4.435   0.518  0.3380 -0.0909 -0.5440
 1480TIP3    H226076   4.956   4.337   0.532  0.8484 -0.4464  1.6099
 1481TIP3   OH226077   5.642   3.683   0.079  0.2939 -0.7729 -0.4913
 1481TIP3    H126078   5.710   3.686   0.146  0.1329  3.3004 -0.3003
 1481TIP3    H226079   5.564   3.654   0.125  0.6428  0.0331  0.6454
 1482TIP3   OH226080   2.704   6.428   7.796  0.2242  0.7238  0.5243
 1482TIP3    H126081   2.789   6.390   7.775 -0.2920  0.0825 -0.5029
 1482TIP3    H226082   2.695   6.419   7.891  0.7367 -0.3986  0.4747
 1483TIP3   OH226083   4.132   4.537   8.171  0.0753  1.0091  0.7012
 1483TIP3    H126084   4.198   4.518   8.237 -1.0813  1.2805  1.9703
 1483TIP3    H226085   4.182   4.561   8.093  1.4774 -0.3017  1.1548
 1484TIP3   OH226086   6.231   0.737   8.887  0.3538 -0.0869  0.3067
 1484TIP3    H126087   6.271   0.738   8.800  1.2341  0.9165  0.6993
 1484TIP3    H226088   6.277   0.666   8.933  0.7465  0.1731  0.3248
 1485TIP3   OH226089   4.430   2.948   8.201 -0.7521  0.3690  0.3785
 1485TIP3    H126090   4.468   2.983   8.281  0.2401  1.4466 -0.5292
 1485TIP3    H226091   4.342   2.919   8.227  0.3147 -1.3734  2.3236
 1486TIP3   OH226092   2.540   0.999   2.130 -0.0452  0.5964  0.0179
 1486TIP3    H126093   2.552   0.986   2.036  0.3657 -2.4514  0.3838
 1486TIP3    H226094   2.450   1.028   2.139  0.5448  3.1745 -1.3977
 1487TIP3   OH226095   6.288   0.493   0.524  0.5176 -0.1215  0.1934
 1487TIP3    H126096   6.277   0.444   0.442  0.3638  1.9481 -1.0897
 1487TIP3    H226097   6.371   0.461   0.559  0.6258 -1.0140 -0.8000
 1488TIP3   OH226098   3.714   0.048   8.607  0.1005 -0.5629 -0.1997
 1488TIP3    H126099   3.804   0.052   8.638  0.7324 -1.3141 -1.7915
 1488TIP3    H226100   3.690   0.139   8.590  1.0025 -0.4382 -0.8864
 1489TIP3   OH226101   1.502   1.397   7.162  0.1182  0.2662  0.0393
 1489TIP3    H126102   1.571   1.436   7.108  2.3000 -3.5831 -0.2954
 1489TIP3    H226103   1.448   1.348   7.099 -0.2378 -0.3365  0.8070
 1490TIP3   OH226104   2.137   6.378   1.558 -0.1856 -0.2067 -0.3534
 1490TIP3    H126105   2.230   6.357   1.545  0.1991  1.6843 -0.9772
 1490TIP3    H226106   2.136   6.438   1.633 -0.7563  0.6209 -1.0049
 1491TIP3   OH226107   0.780   5.745   6.448  0.2302  0.2093  0.3119
 1491TIP3    H126108   0.876   5.749   6.445  0.2619 -0.5238  0.1828
 1491TIP3    H226109   0.761   5.657   6.482 -0.3652  1.1604  2.6146
 1492TIP3   OH226110   5.390   5.051   0.730 -0.5777  0.0610 -0.3777
 1492TIP3    H126111   5.397   5.139   0.768 -0.5603  0.4101 -1.1593
 1492TIP3    H226112   5.440   5.057   0.648  0.9661 -1.1889  0.4239
 1493TIP3   OH226113   4.818   6.302   1.062  0.4697  0.3429  0.1753
 1493TIP3    H126114   4.831   6.276   0.971 -1.6201 -0.9838  0.2119
 1493TIP3    H226115   4.883   6.252   1.111 -0.9841 -2.0365 -0.1990
 1494TIP3   OH226116   3.211   0.762   7.495 -0.2051  0.3189 -0.6019
 1494TIP3    H126117   3.303   0.753   7.521 -0.5826 -0.0863  0.6612
 1494TIP3    H226118   3.171   0.678   7.520 -0.8759  0.4001 -1.3650
 1495TIP3   OH226119   5.246   0.586   0.671 -0.1682 -0.3576 -0.4756
 1495TIP3    H126120   5.192   0.652   0.715 -1.6596 -1.6436 -0.2852
 1495TIP3    H226121   5.201   0.568   0.589  0.5440 -0.7213 -0.8018
 1496TIP3   OH226122   4.405   4.166   0.079 -0.2503 -0.7312 -0.3613
 1496TIP3    H126123   4.424   4.211  -0.003 -1.4503  2.3375  0.8927
 1496TIP3    H226124   4.316   4.192   0.102  0.7672  0.3798  2.9488
 1497TIP3   OH226125   1.614   4.440   7.872  0.0475 -0.7766 -0.1181
 1497TIP3    H126126   1.578   4.511   7.820 -1.3874 -0.7497  0.8613
 1497TIP3    H226127   1.709   4.455   7.872 -0.0944  0.2125 -1.2223
 1498TIP3   OH226128   0.250   5.752   1.875 -0.7852 -0.1639  0.1094
 1498TIP3    H126129   0.307   5.788   1.942 -3.2944  1.8078  1.3526
 1498TIP3    H226130   0.161   5.765   1.909 -2.0675 -3.2252 -1.6059
 1499TIP3   OH226131   0.640   2.829   8.163 -0.6816 -0.6706  0.6133
 1499TIP3    H126132   0.620   2.839   8.070  1.0747 -1.4443  0.1091
 1499TIP3    H226133   0.555   2.824   8.206 -1.6618 -3.5345 -1.3316
 1500TIP3   OH226134   2.742   3.387   0.646  0.4751 -0.6339  0.7887
 1500TIP3    H126135   2.743   3.315   0.583 -0.2716  2.2924 -2.9461
 1500TIP3    H226136   2.651   3.416   0.646  1.0216  1.1679  1.0013
 1501TIP3   OH226137   1.077   4.822   7.133 -0.2615  0.2164 -0.5425
 1501TIP3    H126138   1.025   4.743   7.120 -2.3208  1.6023 -1.3911
 1501TIP3    H226139   1.062   4.874   7.053  0.0972  1.9458  0.4528
 1502TIP3   OH226140   6.541   0.187   0.490 -0.1451 -0.2420 -0.9105
 1502TIP3    H126141   6.604   0.249   0.455  0.3892  0.6994  1.5418
 1502TIP3    H226142   6.566   0.103   0.451  1.9754  0.2864 -0.8083
 1503TIP3   OH226143   0.956   4.940   0.938 -0.2071 -0.0499 -0.3748
 1503TIP3    H126144   0.930   5.032   0.937 -0.2149 -0.0388  0.7233
 1503TIP3    H226145   0.915   4.903   1.015 -1.2959 -1.3182 -1.5038
 1504TIP3   OH226146   5.990   3.822   6.917 -0.1783 -0.4768  0.2602
 1504TIP3    H126147   5.915   3.847   6.862  1.8520  0.9782 -2.0442
 1504TIP3    H226148   5.986   3.726   6.918 -1.8713 -0.4540 -0.0780
 1505TIP3   OH226149   5.650   1.133   2.025 -0.6577 -0.6958 -0.3471
 1505TIP3    H126150   5.741   1.163   2.029  0.1116 -2.8198 -1.0746
 1505TIP3    H226151   5.615   1.154   2.112 -0.0003  1.5625 -0.5426
 1506TIP3   OH226152   0.144   6.375   7.239  0.3536  0.1085 -0.3007
 1506TIP3    H126153   0.060   6.334   7.256  0.2318  0.5514  0.2063
 1506TIP3    H226154   0.162   6.357   7.146 -0.4370  0.2675 -0.4869
 1507TIP3   OH226155   3.627   2.816   6.873 -0.4496 -0.2695 -0.5441
 1507TIP3    H126156   3.550   2.827   6.929  0.4315  0.7458  0.5283
 1507TIP3    H226157   3.700   2.806   6.935  0.3787 -0.4453 -1.5253
 1508TIP3   OH226158   1.180   3.686   1.214  0.4112 -0.4281  0.1732
 1508TIP3    H126159   1.149   3.597   1.231 -0.3311 -0.0288  1.0291
 1508TIP3    H226160   1.101   3.740   1.221  0.9213  0.3436  0.0580
 1509TIP3   OH226161   0.635   2.995   2.471 -0.5251 -0.4332  0.0257
 1509TIP3    H126162   0.649   2.954   2.385 -0.2762  1.2337 -0.7696
 1509TIP3    H226163   0.711   3.051   2.484 -2.2889  2.2548 -0.4568
 1510TIP3   OH226164   6.012   2.164   0.909 -0.9625 -0.9819 -0.4458
 1510TIP3    H126165   5.975   2.182   0.823  0.0958 -0.5159 -0.8178
 1510TIP3    H226166   5.942   2.118   0.956 -2.1817  0.2922 -0.9405
 1511TIP3   OH226167   3.240   5.901   1.860  0.1434  0.1398 -0.5195
 1511TIP3    H126168   3.146   5.914   1.844 -0.4358 -0.7257  1.8626
 1511TIP3    H226169   3.244   5.830   1.923  2.3523  1.1001  0.5004
 1512TIP3   OH226170   6.156   1.523   8.598 -0.3223  0.1812 -0.1496
 1512TIP3    H126171   6.231   1.541   8.542 -1.1575 -0.7243 -1.6347
 1512TIP3    H226172   6.088   1.583   8.568 -0.1167  1.2725  1.4460
 1513TIP3   OH226173   1.787   1.480   7.942  0.0408  0.2701 -0.3729
 1513TIP3    H126174   1.791   1.500   8.035  1.3731 -0.3494 -0.2673
 1513TIP3    H226175   1.820   1.559   7.899  0.9571 -0.0159 -0.2162
 1514TIP3   OH226176   3.293   0.141   2.173 -0.2724  0.4457 -0.5002
 1514TIP3    H126177   3.204   0.152   2.139 -1.1177  0.0011  1.4475
 1514TIP3    H226178   3.304   0.046   2.180  0.9131  0.4416 -2.0432
 1515TIP3   OH226179   1.816   1.922   8.124 -0.2308  0.1107 -0.1936
 1515TIP3    H126180   1.890   1.984   8.128 -1.8030  2.0441  1.7990
 1515TIP3    H226181   1.820   1.875   8.207 -0.8763 -0.2110 -0.3425
 1516TIP3   OH226182   5.177   0.581   1.401  0.6835 -0.1298 -0.3624
 1516TIP3    H126183   5.159   0.540   1.316 -0.1948  0.4106 -0.4562
 1516TIP3    H226184   5.091   0.594   1.440  0.9802  0.9628 -0.0304
 1517TIP3   OH226185   1.955   0.435   7.534 -0.2664 -0.3201  0.2519
 1517TIP3    H126186   1.864   0.441   7.505 -0.3963  0.6482  0.8194
 1517TIP3    H226187   1.998   0.383   7.467 -0.5143  1.9580 -1.8090
 1518TIP3   OH226188   1.305   6.785   1.253 -0.2421 -0.3045  0.4166
 1518TIP3    H126189   1.249   6.862   1.244  0.7061  0.3235 -0.3089
 1518TIP3    H226190   1.275   6.743   1.334 -0.8749  0.7465  0.7461
 1519TIP3   OH226191   0.688   2.847   7.464  0.1099 -0.0275 -0.2671
 1519TIP3    H126192   0.774   2.809   7.482  0.3930  1.4714  1.9549
 1519TIP3    H226193   0.626   2.786   7.503  0.1868 -0.7665 -1.2703
 1520TIP3   OH226194   3.478   5.273   7.812  0.1731 -0.1422 -0.8623
 1520TIP3    H126195   3.454   5.184   7.835 -0.6464  0.4855  0.8794
 1520TIP3    H226196   3.396   5.323   7.823  1.0038  1.1043 -0.1194
 1521TIP3   OH226197   6.472   2.477   6.735  0.0653  0.1691  0.6319
 1521TIP3    H126198   6.385   2.449   6.708 -0.0538  0.1524  1.0298
 1521TIP3    H226199   6.500   2.538   6.666  0.3421 -0.9291 -0.2653
 1522TIP3   OH226200   0.901   3.516   0.709 -0.8215 -0.0942  0.0837
 1522TIP3    H126201   0.858   3.505   0.794  0.7762  1.0783  1.1029
 1522TIP3    H226202   0.994   3.528   0.730 -0.1668 -1.2250 -1.9490
 1523TIP3   OH226203   6.571   5.456   2.358 -0.2560 -0.2209  0.3296
 1523TIP3    H126204   6.598   5.386   2.298 -1.4484 -1.2545  0.9408
 1523TIP3    H226205   6.653   5.490   2.393  0.3859 -2.4551  1.2342
 1524TIP3   OH226206   4.425   3.366   1.563 -0.0140  0.7716  0.1281
 1524TIP3    H126207   4.515   3.346   1.588  0.4249  1.5755 -0.7654
 1524TIP3    H226208   4.432   3.415   1.481 -1.3371 -0.3638 -0.7118
 1525TIP3   OH226209   3.508   5.167   7.250 -1.0878 -0.3100 -0.2976
 1525TIP3    H126210   3.476   5.108   7.319 -0.2781 -0.6392 -0.1881
 1525TIP3    H226211   3.584   5.122   7.215  0.1013  1.0868  0.3934
 1526TIP3   OH226212   5.107   0.217   7.910  0.4478  0.2491  0.3005
 1526TIP3    H126213   5.168   0.153   7.946  1.0166  0.0401 -0.9806
 1526TIP3    H226214   5.135   0.301   7.946  0.0842 -0.1268  1.4992
 1527TIP3   OH226215   4.027   3.880   7.212 -0.5379  0.4486  0.5593
 1527TIP3    H126216   4.017   3.906   7.120  0.0090 -0.2062  0.3144
 1527TIP3    H226217   3.938   3.883   7.247 -1.0172 -1.0591 -0.4689
 1528TIP3   OH226218   2.890   3.566   0.061 -0.2518 -0.4349 -0.3773
 1528TIP3    H126219   2.824   3.624   0.100 -1.2862 -2.4866  1.0991
 1528TIP3    H226220   2.846   3.526  -0.014 -0.5304 -1.3581  0.2585
 1529TIP3   OH226221   5.226   0.082   7.697  1.1233  0.5025 -0.0983
 1529TIP3    H126222   5.221   0.063   7.603 -0.2103  0.9017 -0.1271
 1529TIP3    H226223   5.319   0.073   7.718  1.5481  1.0569 -1.5905
 1530TIP3   OH226224   6.686   4.832   0.775 -0.3546  0.2020  0.5566
 1530TIP3    H126225   6.774   4.801   0.795  0.6570  1.0630 -2.0885
 1530TIP3    H226226   6.680   4.918   0.818  0.1951  0.2254  0.5942
 1531TIP3   OH226227   4.493   4.614   7.679 -0.3026 -0.1528 -0.3779
 1531TIP3    H126228   4.509   4.542   7.618 -2.2412 -1.5671  0.6573
 1531TIP3    H226229   4.515   4.578   7.765  1.3700  1.4584 -0.0727
 1532TIP3   OH226230   0.374   3.598   1.939 -0.7102  0.2285 -1.0859
 1532TIP3    H126231   0.463   3.579   1.911 -0.3084 -0.4946  0.5374
 1532TIP3    H226232   0.352   3.526   1.998 -0.8613  2.3806  1.7136
 1533TIP3   OH226233   1.405   0.668   8.354  0.1083  0.2362  0.2053
 1533TIP3    H126234   1.379   0.612   8.280 -0.2056  0.5816  0.0526
 1533TIP3    H226235   1.442   0.607   8.418 -1.6894 -0.3693  0.7186
 1534TIP3   OH226236   5.930   0.933   0.541  0.0984  0.0830  0.0942
 1534TIP3    H126237   6.019   0.897   0.534  0.4031  0.8214 -0.0013
 1534TIP3    H226238   5.931   1.009   0.482 -0.2822  0.6949  0.8538
 1535TIP3   OH226239   2.459   5.681   6.200  0.3443  0.8767  0.2093
 1535TIP3    H126240   2.528   5.728   6.153 -0.2136  0.3230 -1.2305
 1535TIP3    H226241   2.476   5.589   6.182 -0.4304  0.7051  0.3293
 1536TIP3   OH226242   6.637   5.802   2.442  0.2620 -0.4511  0.2760
 1536TIP3    H126243   6.664   5.760   2.525  0.7603 -1.2917 -0.2892
 1536TIP3    H226244   6.542   5.794   2.441  0.3530 -1.8941  0.0520
 1537TIP3   OH226245   3.140   1.464   1.177 -0.3770 -0.0658  0.6776
 1537TIP3    H126246   3.114   1.429   1.092  0.3901  1.0053 -0.0247
 1537TIP3    H226247   3.185   1.545   1.157 -0.7430  0.5405  2.1624
 1538TIP3   OH226248   4.464   1.505   2.140  0.3328 -0.8082 -0.1888
 1538TIP3    H126249   4.477   1.594   2.108  0.0023  0.0956  2.0155
 1538TIP3    H226250   4.390   1.512   2.200 -0.2586 -2.7608 -0.6259
 1539TIP3   OH226251   3.516   0.119   8.978  0.0577 -0.6268 -0.2272
 1539TIP3    H126252   3.568   0.060   8.923  0.4457  0.0918 -0.6468
 1539TIP3    H226253   3.555   0.205   8.964  1.5900 -0.6978  2.8361
 1540TIP3   OH226254   3.564   3.519   7.603  0.0484  0.2274  0.5400
 1540TIP3    H126255   3.608   3.516   7.688  0.3045  0.8555  0.4399
 1540TIP3    H226256   3.632   3.493   7.541  0.0692  0.4763  0.4579
 1541TIP3   OH226257   2.140   4.512   0.458  0.7567 -0.1330 -0.7897
 1541TIP3    H126258   2.231   4.518   0.428  0.0346  0.7483 -3.0077
 1541TIP3    H226259   2.120   4.600   0.491  0.4384 -0.0642 -1.1595
 1542TIP3   OH226260   6.548   0.129   7.770 -0.4663 -0.3909  0.0463
 1542TIP3    H126261   6.459   0.132   7.804 -1.0437 -1.4603 -1.2957
 1542TIP3    H226262   6.574   0.037   7.776  1.0037  0.0725  1.4809
 1543TIP3   OH226263   6.728   0.406   2.610 -0.7703 -0.0087  0.3498
 1543TIP3    H126264   6.712   0.438   2.699 -0.3398  1.2074  0.0083
 1543TIP3    H226265   6.640   0.386   2.577 -0.9545 -0.2563  0.9585
 1544TIP3   OH226266   5.446   0.742   7.038 -0.1013  0.2140  0.0948
 1544TIP3    H126267   5.499   0.772   6.964  0.1528 -0.2779  0.0756
 1544TIP3    H226268   5.466   0.804   7.108  0.4094  0.1042  0.0520
 1545TIP3   OH226269   3.845   4.605   1.535 -0.8331 -0.2536 -0.2535
 1545TIP3    H126270   3.904   4.608   1.459 -0.7110 -2.8302 -0.3251
 1545TIP3    H226271   3.886   4.662   1.599  0.0249  0.5383 -1.4567
 1546TIP3   OH226272   3.084   4.298   7.850  0.3088  0.2632 -0.3082
 1546TIP3    H126273   3.008   4.332   7.803 -0.3018  1.1164  1.2081
 1546TIP3    H226274   3.140   4.261   7.782 -1.6041 -0.6999 -1.4515
 1547TIP3   OH226275   6.055   1.038   7.584 -1.0411 -0.5255  0.4711
 1547TIP3    H126276   6.021   1.000   7.665  0.3236  0.3821  1.5226
 1547TIP3    H226277   6.148   1.051   7.602 -0.5903 -0.8327 -1.4710
 1548TIP3   OH226278   1.677   2.713   0.595 -0.1752  0.0044  0.0340
 1548TIP3    H126279   1.649   2.627   0.565 -0.0077  0.1895 -0.6679
 1548TIP3    H226280   1.764   2.698   0.632 -0.1370 -0.1247 -0.1080
 1549TIP3   OH226281   2.195   3.603   8.025  0.3740  0.2062 -0.1996
 1549TIP3    H126282   2.131   3.671   8.045  0.0452 -0.1516 -0.0268
 1549TIP3    H226283   2.276   3.631   8.069 -0.1235 -0.1809  1.0024
 1550TIP3   OH226284   6.394   2.260   7.977 -0.5683 -0.6273 -0.6517
 1550TIP3    H126285   6.370   2.336   8.030  1.0988 -1.3300  1.2555
 1550TIP3    H226286   6.368   2.284   7.888 -3.0021  0.8250  0.3604
 1551TIP3   OH226287   0.657   5.761   1.948 -0.2523  0.4034 -0.1640
 1551TIP3    H126288   0.694   5.813   2.019 -0.3668 -1.3730  1.2811
 1551TIP3    H226289   0.569   5.740   1.977  0.3043 -1.8740  0.0840
 1552TIP3   OH226290   4.765   4.351   1.758 -0.2132  0.4266  0.6775
 1552TIP3    H126291   4.803   4.273   1.719 -0.8177  0.9738 -1.0920
 1552TIP3    H226292   4.773   4.337   1.852 -1.5172 -2.3788  0.4768
 1553TIP3   OH226293   6.503   6.646   7.358  0.2974 -0.3341 -0.2926
 1553TIP3    H126294   6.513   6.741   7.356  2.4446 -0.5108 -0.2510
 1553TIP3    H226295   6.417   6.630   7.321 -0.3475  1.6492  0.2156
 1554TIP3   OH226296   1.782   2.626   1.525 -0.5832 -0.3309  0.2637
 1554TIP3    H126297   1.825   2.650   1.607  0.0140  2.0618 -0.6682
 1554TIP3    H226298   1.806   2.534   1.512  2.7055  0.3124  0.7785
 1555TIP3   OH226299   5.722   5.228   0.172  0.0300 -0.1579 -0.6064
 1555TIP3    H126300   5.653   5.289   0.148 -0.7001 -1.4063 -1.8301
 1555TIP3    H226301   5.679   5.142   0.173  1.2100 -0.7733  0.1998
 1556TIP3   OH226302   6.569   2.855   1.413  0.1548 -0.2175  0.3385
 1556TIP3    H126303   6.504   2.819   1.473  0.7532  1.4618  2.1199
 1556TIP3    H226304   6.518   2.899   1.345 -0.5395 -2.1389 -0.4296
 1557TIP3   OH226305   3.187   0.413   7.243  0.2464 -0.3590  0.1726
 1557TIP3    H126306   3.167   0.490   7.190 -1.1358 -0.9013 -0.1225
 1557TIP3    H226307   3.126   0.417   7.316  1.0373 -0.5058  0.8654
 1558TIP3   OH226308   1.373   2.156   8.960 -0.1248  0.7608 -0.3402
 1558TIP3    H126309   1.370   2.131   9.053  1.0786 -0.7876 -0.6810
 1558TIP3    H226310   1.334   2.244   8.958 -2.2104 -0.0417  1.2871
 1559TIP3   OH226311   5.913   3.843   7.964  0.8921  0.6817  0.1753
 1559TIP3    H126312   5.932   3.934   7.986 -2.3555  1.6019 -0.3550
 1559TIP3    H226313   5.864   3.810   8.039 -1.6812  0.8057 -1.3248
 1560TIP3   OH226314   6.496   1.588   7.573  0.2425 -0.4300  1.1305
 1560TIP3    H126315   6.451   1.508   7.601 -0.2888  0.2927  2.4252
 1560TIP3    H226316   6.471   1.598   7.481 -1.7884 -0.4015  1.6399
 1561TIP3   OH226317   6.571   3.573   8.205  0.2098  0.3629 -0.6598
 1561TIP3    H126318   6.651   3.603   8.249 -0.2751 -0.4223  0.8220
 1561TIP3    H226319   6.573   3.478   8.214 -1.5449  0.4066  0.6436
 1562TIP3   OH226320   4.373   6.739   7.423 -0.3825  0.3400  0.2565
 1562TIP3    H126321   4.442   6.726   7.359 -1.1318 -1.4414 -0.2518
 1562TIP3    H226322   4.292   6.727   7.373 -0.9764 -2.0601  1.6583
 1563TIP3   OH226323   5.443   5.891   8.698  0.1880 -0.0701 -0.1464
 1563TIP3    H126324   5.458   5.924   8.786  1.9154 -0.6594 -0.1772
 1563TIP3    H226325   5.527   5.901   8.654 -0.1005 -1.5367 -1.1180
 1564TIP3   OH226326   3.877   5.943   0.487 -0.3939  0.8086 -0.3222
 1564TIP3    H126327   3.863   5.946   0.582 -1.2878 -0.7891 -0.3647
 1564TIP3    H226328   3.789   5.949   0.449 -0.0788  1.0202 -1.0363
 1565TIP3   OH226329   5.357   4.203   2.029 -0.1008  0.0247 -0.5202
 1565TIP3    H126330   5.342   4.161   2.114  0.6588  1.1871  0.2116
 1565TIP3    H226331   5.295   4.276   2.027  2.2095  2.1369  0.5981
 1566TIP3   OH226332   1.493   4.697   1.817 -0.2247 -0.3604 -0.5128
 1566TIP3    H126333   1.449   4.612   1.805 -0.0821 -0.6624  1.0022
 1566TIP3    H226334   1.546   4.707   1.738 -1.0619 -1.1786 -1.2076
 1567TIP3   OH226335   6.368   3.978   8.582  0.6170 -0.4698 -0.0839
 1567TIP3    H126336   6.394   4.070   8.581 -0.5690 -0.1282 -0.2576
 1567TIP3    H226337   6.317   3.966   8.502 -1.3295 -0.6383  1.1227
 1568TIP3   OH226338   2.220   2.190   1.586  0.6313  0.6414 -0.5902
 1568TIP3    H126339   2.145   2.132   1.593  0.7703  0.5808  0.5290
 1568TIP3    H226340   2.215   2.224   1.497 -0.6153  0.4943 -0.5994
 1569TIP3   OH226341   2.548   1.870   8.711 -0.0987  0.1862 -0.4681
 1569TIP3    H126342   2.641   1.850   8.696  0.6044  1.6164  1.4932
 1569TIP3    H226343   2.539   1.962   8.687 -0.9623  0.1092 -0.4483
 1570TIP3   OH226344   2.428   5.093   7.178  0.3811  0.1406  0.2571
 1570TIP3    H126345   2.410   5.074   7.086  1.6468 -0.7390  0.1716
 1570TIP3    H226346   2.476   5.175   7.177  1.3914 -0.4423  0.0307
 1571TIP3   OH226347   3.802   2.468   0.516  1.1081 -0.1685 -0.1289
 1571TIP3    H126348   3.709   2.453   0.535  1.4280  0.9261  2.8224
 1571TIP3    H226349   3.829   2.393   0.464 -1.2263 -0.9374 -0.3205
 1572TIP3   OH226350   2.188   4.958   1.627 -0.7548  0.0325 -0.0926
 1572TIP3    H126351   2.140   4.958   1.544  2.0237 -1.8791 -1.8648
 1572TIP3    H226352   2.125   4.925   1.691 -2.5946  0.2820 -1.6613
 1573TIP3   OH226353   4.833   2.599   1.136  0.2049  0.9577  0.0041
 1573TIP3    H126354   4.879   2.606   1.053 -1.4946  0.5034 -1.0347
 1573TIP3    H226355   4.860   2.514   1.171 -0.7592  0.0831 -1.2367
 1574TIP3   OH226356   2.337   4.702   1.695  0.3419  0.1519 -0.3846
 1574TIP3    H126357   2.246   4.724   1.675  0.1734 -1.7738 -2.1010
 1574TIP3    H226358   2.342   4.704   1.790 -2.0851 -1.5779 -0.1231
 1575TIP3   OH226359   5.749   2.100   8.187  0.0492 -0.5763 -0.2065
 1575TIP3    H126360   5.674   2.117   8.130 -0.7989 -2.0292  0.3984
 1575TIP3    H226361   5.740   2.008   8.211  2.3630 -0.9304 -0.5374
 1576TIP3   OH226362   2.618   5.199   8.443  0.4190  0.0822  0.4003
 1576TIP3    H126363   2.667   5.216   8.363 -1.2344  1.1844 -0.4416
 1576TIP3    H226364   2.680   5.155   8.500  1.9580  0.1974 -1.0982
 1577TIP3   OH226365   5.043   4.963   8.561  0.2762  0.3200  0.8147
 1577TIP3    H126366   5.086   5.007   8.488 -0.5798  1.3901  0.9366
 1577TIP3    H226367   4.989   5.031   8.602 -0.3418 -0.6109  1.5856
 1578TIP3   OH226368   5.615   4.746   0.138  0.9727  0.0705 -0.1298
 1578TIP3    H126369   5.603   4.731   0.044  2.4383 -1.2471 -0.1545
 1578TIP3    H226370   5.584   4.665   0.179  2.1486 -0.1506  0.3535
 1579TIP3   OH226371   3.633   0.167   1.227 -0.0061  0.1037 -0.7671
 1579TIP3    H126372   3.590   0.117   1.297 -1.3444  0.9163 -0.9825
 1579TIP3    H226373   3.711   0.116   1.206  0.6436  0.0207  1.5675
 1580TIP3   OH226374   0.013   0.980   8.409  0.1639 -0.2873 -0.4249
 1580TIP3    H126375  -0.069   0.973   8.360  1.8484  1.0769 -3.7318
 1580TIP3    H226376   0.068   0.909   8.376  1.1488  0.2674 -0.0510
 1581TIP3   OH226377   1.014   2.610   7.720  0.2904  0.6780  0.5003
 1581TIP3    H126378   1.076   2.543   7.749 -0.6833  0.1344  1.4457
 1581TIP3    H226379   0.968   2.636   7.801  0.3223  2.1533  0.0714
 1582TIP3   OH226380   3.020   0.987   8.923  0.0468 -0.0040 -0.2556
 1582TIP3    H126381   3.050   1.059   8.869 -1.3199  0.4534 -0.4268
 1582TIP3    H226382   2.937   1.016   8.960 -0.1078 -1.1463  0.3690
 1583TIP3   OH226383   1.273   1.984   1.323 -0.3080 -0.2334  0.5265
 1583TIP3    H126384   1.209   1.919   1.297  0.1739 -0.9051  0.9717
 1583TIP3    H226385   1.308   2.018   1.241  2.1597 -3.2618  0.0979
 1584TIP3   OH226386   3.684   2.947   1.046 -0.0805  0.0373 -0.0430
 1584TIP3    H126387   3.661   2.867   0.998  0.2741  0.7398 -1.3975
 1584TIP3    H226388   3.759   2.983   0.999  1.0362  0.1508  1.7192
 1585TIP3   OH226389   1.690   5.090   0.442  0.1920 -0.0228 -0.1631
 1585TIP3    H126390   1.596   5.107   0.437  0.0195 -1.0013 -0.4558
 1585TIP3    H226391   1.697   5.002   0.479  0.9570 -0.3998 -1.1373
 1586TIP3   OH226392   0.500   5.769   1.044 -0.5316  1.1731 -0.6883
 1586TIP3    H126393   0.536   5.839   1.099  1.5469 -0.2084 -0.1678
 1586TIP3    H226394   0.454   5.712   1.104  0.0245  0.7187 -0.6894
 1587TIP3   OH226395   0.493   2.756   2.155 -0.2476  0.5055 -0.4827
 1587TIP3    H126396   0.578   2.791   2.183 -0.2152  0.3760 -0.4175
 1587TIP3    H226397   0.468   2.698   2.226  0.5056 -0.9553 -1.3683
 1588TIP3   OH226398   4.341   5.943   8.249  0.6106 -0.0010 -0.3454
 1588TIP3    H126399   4.381   6.010   8.194  1.5689  0.0410  0.3743
 1588TIP3    H226400   4.298   5.993   8.319  1.1127 -0.1125  0.0515
 1589TIP3   OH226401   4.545   3.018   8.455  0.6639  0.0377 -0.0944
 1589TIP3    H126402   4.629   2.979   8.479 -0.4321 -2.8207 -0.5055
 1589TIP3    H226403   4.518   3.066   8.534  1.3112 -1.5340  1.1396
 1590TIP3   OH226404   1.492   3.355   7.190 -0.1663  0.1750 -0.0787
 1590TIP3    H126405   1.537   3.412   7.128  0.8296 -0.5036 -0.0117
 1590TIP3    H226406   1.561   3.324   7.249 -1.1419  1.2250  1.7412
 1591TIP3   OH226407   5.326   5.711   7.988 -0.5827 -0.0100 -0.4962
 1591TIP3    H126408   5.274   5.697   8.067 -2.4048 -0.3922 -1.7064
 1591TIP3    H226409   5.265   5.750   7.925  0.7782  0.1742 -1.7652
 1592TIP3   OH226410   2.962   4.840   1.912  0.3777 -0.0750  0.3121
 1592TIP3    H126411   3.023   4.768   1.922 -0.2281 -0.8119 -1.1306
 1592TIP3    H226412   2.883   4.800   1.875 -0.0929  1.2636 -0.1827
 1593TIP3   OH226413   5.627   4.698   8.823  0.0887  0.1319 -0.3888
 1593TIP3    H126414   5.555   4.637   8.807 -0.2573  0.5544 -0.4764
 1593TIP3    H226415   5.644   4.737   8.738  0.0680  0.4168 -0.2629
 1594TIP3   OH226416   5.423   6.008   8.926 -0.0623  0.8937 -0.2151
 1594TIP3    H126417   5.352   5.987   8.987 -1.6795  0.8380 -2.0090
 1594TIP3    H226418   5.461   6.089   8.959  0.6331 -0.2609  2.0657
 1595TIP3   OH226419   4.539   6.354   7.392  0.2004  0.3774 -0.3128
 1595TIP3    H126420   4.622   6.327   7.353 -0.8207 -0.8033 -1.7502
 1595TIP3    H226421   4.517   6.284   7.453 -0.6397 -0.2643 -1.3231
 1596TIP3   OH226422   3.555   5.847   8.194  0.1400 -0.0437  0.0299
 1596TIP3    H126423   3.486   5.835   8.260  0.6750 -0.6495  0.4887
 1596TIP3    H226424   3.632   5.804   8.232  0.3804 -0.6619 -1.1138
 1597TIP3   OH226425   4.438   0.194   7.829 -0.1458 -0.3106  0.1283
 1597TIP3    H126426   4.527   0.164   7.814  0.2700  1.2632 -0.8012
 1597TIP3    H226427   4.382   0.130   7.786  0.4557 -1.7499  1.4020
 1598TIP3   OH226428   6.349   2.609   8.600 -0.0572 -0.1981  0.1220
 1598TIP3    H126429   6.395   2.652   8.528  0.5462 -0.1447  0.5364
 1598TIP3    H226430   6.341   2.678   8.666  0.2859 -0.5327  0.5083
 1599TIP3   OH226431   5.543   1.186   0.190  0.1988 -0.2458 -0.0641
 1599TIP3    H126432   5.496   1.253   0.140  0.1795 -1.0102 -1.1250
 1599TIP3    H226433   5.636   1.207   0.175  0.2344 -1.4657 -1.9297
 1600TIP3   OH226434   3.307   6.279   7.000  0.5484 -0.1557 -0.0104
 1600TIP3    H126435   3.343   6.302   6.915 -2.5542  0.0250 -1.4260
 1600TIP3    H226436   3.212   6.294   6.991 -0.1023 -1.6026  2.9924
 1601TIP3   OH226437   6.130   3.286   8.518  0.4018  0.1083  0.3238
 1601TIP3    H126438   6.153   3.240   8.437 -0.2818 -0.3134  0.3618
 1601TIP3    H226439   6.039   3.262   8.534  1.0272 -1.2671  2.1715
 1602TIP3   OH226440   1.100   6.751   1.978  0.0326  0.7550 -0.3069
 1602TIP3    H126441   1.161   6.678   1.978  2.4727  2.6637 -0.6637
 1602TIP3    H226442   1.110   6.791   1.892 -3.4423 -0.0735 -1.2752
 1603TIP3   OH226443   5.417   3.588   8.712 -0.0988  0.3901 -0.2235
 1603TIP3    H126444   5.331   3.595   8.753  0.5628  0.7199  1.1658
 1603TIP3    H226445   5.450   3.678   8.710  1.2210 -0.0016  1.5520
 1604TIP3   OH226446   4.103   6.711   7.347  0.1071 -0.1850 -0.1380
 1604TIP3    H126447   4.038   6.780   7.359  1.1147  0.6962  0.4215
 1604TIP3    H226448   4.075   6.664   7.269  0.1935  1.7576 -1.3845
 1605TIP3   OH226449   2.121   2.097   1.941  0.2000 -0.3758 -0.3319
 1605TIP3    H126450   2.085   2.061   1.860 -1.8827  0.9794 -0.0847
 1605TIP3    H226451   2.046   2.137   1.985  1.3473 -0.6533  2.0609
 1606TIP3   OH226452   0.473   3.246   8.021  0.1368 -0.2637  0.2645
 1606TIP3    H126453   0.552   3.193   8.033  0.5842 -0.6618 -3.3827
 1606TIP3    H226454   0.504   3.327   7.982 -1.0387  0.8322  1.4896
 1607TIP3   OH226455   1.970   3.138   7.162  0.5769 -0.0422 -0.1835
 1607TIP3    H126456   1.997   3.183   7.243  2.4507  0.5952 -1.1001
 1607TIP3    H226457   1.955   3.048   7.190  1.4400  0.1035  0.8451
 1608TIP3   OH226458   0.722   1.791   8.153  0.5767 -0.0967  0.0027
 1608TIP3    H126459   0.692   1.800   8.243  0.5095  0.0920 -0.0380
 1608TIP3    H226460   0.790   1.858   8.144  0.9609 -0.4729  0.0740
 1609TIP3   OH226461   3.332   2.156   1.102 -0.0102  0.1700  0.3044
 1609TIP3    H126462   3.336   2.198   1.188  0.7769  1.0504 -0.1439
 1609TIP3    H226463   3.375   2.218   1.043 -1.1878 -0.0819 -0.8629
 1610TIP3   OH226464   4.729   1.834   6.442  0.2606 -0.3191  0.7390
 1610TIP3    H126465   4.774   1.752   6.422 -0.6421 -0.8555  0.8217
 1610TIP3    H226466   4.640   1.821   6.409 -0.2868  0.0893  1.9741
 1611TIP3   OH226467   0.097   3.463   1.106 -0.0597  0.6428 -0.8722
 1611TIP3    H126468   0.054   3.377   1.113 -0.0306  0.5759 -1.4932
 1611TIP3    H226469   0.183   3.450   1.146 -0.5349  0.7261  0.2119
 1612TIP3   OH226470   2.259   3.228   0.637 -0.2888  0.2787 -0.3154
 1612TIP3    H126471   2.225   3.182   0.714 -0.5873  0.0574 -0.5777
 1612TIP3    H226472   2.198   3.301   0.625 -0.7391 -0.1756 -0.8451
 1613TIP3   OH226473   3.897   1.926   7.039  0.4292 -0.0733 -0.2548
 1613TIP3    H126474   3.881   2.006   6.988  1.0555  0.2443  0.0414
 1613TIP3    H226475   3.896   1.856   6.973  0.6504  0.2683 -0.6332
 1614TIP3   OH226476   5.000   1.426   7.661  0.6425  0.1972 -0.3957
 1614TIP3    H126477   4.947   1.394   7.588 -0.8369 -0.3958  0.8799
 1614TIP3    H226478   4.938   1.436   7.734  2.0295  0.9190  0.7553
 1615TIP3   OH226479   0.416   2.199   7.421  0.2291 -0.0118 -0.2818
 1615TIP3    H126480   0.350   2.267   7.406 -0.1763  0.0171  1.4463
 1615TIP3    H226481   0.366   2.117   7.417  0.6204 -0.2123 -1.7992
 1616TIP3   OH226482   2.858   4.878   0.445 -0.6869  0.3439 -0.5791
 1616TIP3    H126483   2.861   4.796   0.397 -0.8040 -0.2383  0.3722
 1616TIP3    H226484   2.854   4.851   0.537  1.1150  1.4201 -0.1419
 1617TIP3   OH226485   4.136   2.325   7.584  0.6975 -0.4166 -0.1379
 1617TIP3    H126486   4.066   2.267   7.613  0.8164 -0.8512 -0.7068
 1617TIP3    H226487   4.192   2.270   7.530  2.2380 -0.4299  1.4028
 1618TIP3   OH226488   4.553   5.097   8.817  0.5156  0.0986 -0.0659
 1618TIP3    H126489   4.505   5.115   8.897 -0.6507 -0.6397 -0.5720
 1618TIP3    H226490   4.636   5.060   8.847  0.4837  0.7012  0.8095
 1619TIP3   OH226491   3.881   5.447   0.813  0.1569  0.4823 -0.6275
 1619TIP3    H126492   3.970   5.417   0.831  0.2615  1.2694  0.2299
 1619TIP3    H226493   3.825   5.376   0.844  0.4370  0.6895  0.3859
 1620TIP3   OH226494   0.446   5.360   0.380 -0.3686  0.6550  0.0573
 1620TIP3    H126495   0.438   5.373   0.285  0.9457 -0.0541 -0.1651
 1620TIP3    H226496   0.536   5.331   0.393  0.1484  2.7836  1.7780
 1621TIP3   OH226497   1.476   4.771   8.393  0.1749  0.3895  0.2948
 1621TIP3    H126498   1.382   4.766   8.413  0.2440  0.0783  0.5491
 1621TIP3    H226499   1.515   4.702   8.446  0.0611 -2.4155 -2.9841
 1622TIP3   OH226500   0.689   3.029   1.499  0.3061 -0.2998 -0.6938
 1622TIP3    H126501   0.608   3.015   1.549  0.0333 -1.6467 -1.4711
 1622TIP3    H226502   0.695   3.124   1.491 -1.0746 -0.1601 -0.4158
 1623TIP3   OH226503   1.219   6.487   1.933 -0.3285  0.7936  0.2031
 1623TIP3    H126504   1.187   6.486   1.842  0.2346  2.1165 -0.0326
 1623TIP3    H226505   1.310   6.459   1.926 -0.6161 -0.2732  0.5297
 1624TIP3   OH226506   4.929   6.027   1.307  0.4766  0.1854  0.5812
 1624TIP3    H126507   4.847   6.007   1.353  0.2142 -1.2339 -0.4087
 1624TIP3    H226508   4.997   6.005   1.370  0.1137  0.0411  0.9331
 1625TIP3   OH226509   2.347   3.868   1.586  0.1735 -0.4518  0.2507
 1625TIP3    H126510   2.375   3.950   1.628  0.9987 -0.4507 -0.2842
 1625TIP3    H226511   2.263   3.849   1.626 -0.5903  1.2734 -0.4223
 1626TIP3   OH226512   2.692   5.307   7.447  0.4232 -0.2103 -0.0182
 1626TIP3    H126513   2.673   5.371   7.378  0.4865  1.5891  1.5232
 1626TIP3    H226514   2.655   5.225   7.416  0.2085  0.6069 -2.0451
 1627TIP3   OH226515   4.038   3.614   1.203 -0.2342 -0.2366 -0.1441
 1627TIP3    H126516   3.988   3.569   1.272 -1.9622 -1.0520 -1.8163
 1627TIP3    H226517   4.098   3.547   1.171 -0.8942 -0.5300 -0.7980
 1628TIP3   OH226518   1.329   6.365   0.579 -0.1396 -0.0104 -0.5904
 1628TIP3    H126519   1.272   6.312   0.634  0.6352 -0.7781 -0.5087
 1628TIP3    H226520   1.377   6.421   0.641  0.5482 -0.6955 -0.4898
 1629TIP3   OH226521   3.589   0.422   1.331 -0.2638 -0.0107  0.7687
 1629TIP3    H126522   3.599   0.393   1.422 -0.1584 -0.0210  0.7545
 1629TIP3    H226523   3.624   0.349   1.279 -0.4665 -0.0711  0.7138
 1630TIP3   OH226524   6.439   0.298   8.853 -0.0541 -0.3227  0.4290
 1630TIP3    H126525   6.499   0.224   8.843  0.1196 -0.2791  1.1191
 1630TIP3    H226526   6.495   0.375   8.851 -0.1709 -0.2400  0.3119
 1631TIP3   OH226527   0.207   1.930   8.024 -0.3970 -0.8085 -0.1561
 1631TIP3    H126528   0.289   1.881   8.019  0.8248  1.2554 -1.8886
 1631TIP3    H226529   0.187   1.953   7.934 -0.9611  1.6899  0.5213
 1632TIP3   OH226530   4.717   2.863   0.520 -0.2712 -0.4867 -0.0278
 1632TIP3    H126531   4.639   2.829   0.476 -0.5732 -0.9033  0.8002
 1632TIP3    H226532   4.751   2.929   0.461 -1.8478  0.4496  0.0417
 1633TIP3   OH226533   1.315   1.431   8.650  0.6867  0.0841  0.4575
 1633TIP3    H126534   1.260   1.478   8.712  1.9064  1.7439  0.3445
 1633TIP3    H226535   1.295   1.469   8.565 -0.8302 -2.0437 -0.2329
 1634TIP3   OH226536   5.279   3.131   7.463 -0.1424  0.4651  0.4973
 1634TIP3    H126537   5.188   3.126   7.435  0.6183 -0.4118 -2.1291
 1634TIP3    H226538   5.320   3.190   7.400  1.2466  0.3204  1.2365
 1635TIP3   OH226539   0.142   2.749   0.364  0.5691  0.1085 -0.1232
 1635TIP3    H126540   0.102   2.669   0.397 -0.5369  1.6049  2.4855
 1635TIP3    H226541   0.210   2.770   0.427 -0.5831  2.3048  0.4774
 1636TIP3   OH226542   2.285   0.158   6.778 -0.4683 -0.0029 -0.0104
 1636TIP3    H126543   2.315   0.194   6.694 -0.8815 -1.4209 -0.8098
 1636TIP3    H226544   2.334   0.207   6.844 -0.8204  1.8045 -1.0099
 1637TIP3   OH226545   6.131   5.560   0.046  0.1619  0.4097 -0.3594
 1637TIP3    H126546   6.097   5.479   0.085  1.4280 -0.1576 -0.3930
 1637TIP3    H226547   6.221   5.539   0.022  0.1098  1.4304 -1.5664
 1638TIP3   OH226548   4.905   5.108   1.044  0.1679  0.2290  0.2131
 1638TIP3    H126549   4.938   5.039   0.988 -1.0148 -0.7907  0.7123
 1638TIP3    H226550   4.978   5.129   1.103  1.1705  0.8090 -1.1982
 1639TIP3   OH226551   4.200   2.309   1.135  0.1127  0.3196  0.5654
 1639TIP3    H126552   4.163   2.332   1.221 -2.8256  0.7990 -0.7118
 1639TIP3    H226553   4.230   2.392   1.099 -1.5937  0.7027 -0.0912
 1640TIP3   OH226554   2.642   1.482   8.806 -0.0344  0.1756  0.1996
 1640TIP3    H126555   2.633   1.495   8.711 -0.2730  0.6703  0.2870
 1640TIP3    H226556   2.568   1.427   8.830  0.9191 -1.2977 -0.1574
 1641TIP3   OH226557   1.024   5.432   0.240  0.1732 -0.1503 -0.8492
 1641TIP3    H126558   0.991   5.356   0.288  0.3450  1.0893  1.3794
 1641TIP3    H226559   1.119   5.419   0.238  0.2885  0.4123  0.3363
 1642TIP3   OH226560   1.635   1.714   7.771  0.4401  0.0601 -0.3522
 1642TIP3    H126561   1.569   1.760   7.824 -1.1486 -0.2254 -1.9625
 1642TIP3    H226562   1.719   1.747   7.803 -0.5595  2.4678  0.0253
 1643TIP3   OH226563   4.010   6.680   1.236 -1.1221 -0.4130 -0.0217
 1643TIP3    H126564   4.042   6.721   1.156 -1.0314  0.6295  0.5232
 1643TIP3    H226565   3.915   6.678   1.226 -1.0776 -0.7166 -0.3613
 1644TIP3   OH226566   3.216   5.071   7.511  0.4261  0.1536  0.8493
 1644TIP3    H126567   3.126   5.092   7.485  0.3083  0.0305  1.1578
 1644TIP3    H226568   3.225   4.977   7.494  0.6687  0.2687  0.3151
 1645TIP3   OH226569   5.628   1.151   6.709 -0.0759 -0.2597 -0.1864
 1645TIP3    H126570   5.539   1.134   6.676 -1.0792  0.7920  1.8041
 1645TIP3    H226571   5.635   1.246   6.710  0.8450 -0.3266  0.2351
 1646TIP3   OH226572   0.051   6.791   1.246  0.3440 -0.1454  0.1234
 1646TIP3    H126573  -0.001   6.734   1.189  0.0472  0.7568 -0.5327
 1646TIP3    H226574   0.134   6.802   1.200 -0.1338  1.1137 -0.5016
 1647TIP3   OH226575   6.187   4.882   0.699 -0.2685  0.0517 -0.4996
 1647TIP3    H126576   6.094   4.884   0.673  0.1330 -2.4374 -2.5095
 1647TIP3    H226577   6.233   4.919   0.624  0.4044  1.2245  0.4735
 1648TIP3   OH226578   0.025   2.220   7.216  0.4201 -0.0255 -0.9170
 1648TIP3    H126579   0.112   2.260   7.225  0.5643 -0.4330 -0.4230
 1648TIP3    H226580  -0.031   2.274   7.272  0.2397  0.5512 -1.6395
 1649TIP3   OH226581   0.875   0.071   6.436  0.0571 -0.1880  0.5835
 1649TIP3    H126582   0.932   0.044   6.508  0.6331 -0.3257  0.0890
 1649TIP3    H226583   0.881   0.167   6.436  1.5220 -0.2361 -0.4023
 1650TIP3   OH226584   3.174   0.749   6.786  0.1194 -0.4006  0.1304
 1650TIP3    H126585   3.167   0.655   6.770 -1.3361 -0.0888 -1.4433
 1650TIP3    H226586   3.116   0.788   6.721 -2.2485  1.4204  3.0957
 1651TIP3   OH226587   6.421   4.460   1.333 -0.0548 -0.2864 -0.0425
 1651TIP3    H126588   6.444   4.383   1.385  0.4591 -0.9510 -1.2253
 1651TIP3    H226589   6.326   4.469   1.344  0.0299 -0.4802  0.9105
 1652TIP3   OH226590   3.412   6.605   1.632  0.2964  0.3773 -0.6249
 1652TIP3    H126591   3.462   6.577   1.709  3.0000  2.0197 -1.6753
 1652TIP3    H226592   3.372   6.524   1.599  1.2478 -0.8027  0.9535
 1653TIP3   OH226593   3.361   0.860   8.948  0.5568  0.3320 -0.2089
 1653TIP3    H126594   3.266   0.853   8.960  0.4613  1.5604 -0.1157
 1653TIP3    H226595   3.393   0.898   9.030  0.7134  2.7627 -1.3000
 1654TIP3   OH226596   2.063   5.719   7.258  0.2849 -0.4332 -0.2526
 1654TIP3    H126597   2.065   5.635   7.214 -2.6590 -0.3249 -0.8484
 1654TIP3    H226598   2.083   5.783   7.189  2.2779 -0.5748  0.1465
 1655TIP3   OH226599   3.719   6.585   2.069  0.1014 -0.1517  0.4280
 1655TIP3    H126600   3.812   6.560   2.064  0.4405  0.8576  1.3344
 1655TIP3    H226601   3.716   6.653   2.136 -0.9616  1.4935 -1.2242
 1656TIP3   OH226602   1.328   5.135   6.996  0.1426  0.0901 -0.1694
 1656TIP3    H126603   1.264   5.130   6.926 -0.0302  1.2288 -0.1027
 1656TIP3    H226604   1.379   5.213   6.977  1.5389 -0.7952 -0.2318
 1657TIP3   OH226605   1.988   4.103   8.238  0.1083 -0.2138  0.5198
 1657TIP3    H126606   1.971   4.046   8.163  1.0344 -1.3282  1.1069
 1657TIP3    H226607   1.970   4.191   8.206  1.3310 -0.5486 -1.3166
 1658TIP3   OH226608   4.473   1.210   1.515 -0.5807  0.1097 -0.3164
 1658TIP3    H126609   4.485   1.282   1.577 -0.4485  0.3259 -0.5922
 1658TIP3    H226610   4.392   1.232   1.468  0.7124  1.3208 -2.0691
 1659TIP3   OH226611   1.063   1.141   6.800 -0.2111  0.0225 -0.6830
 1659TIP3    H126612   1.084   1.234   6.794 -0.7396  0.1023 -1.4459
 1659TIP3    H226613   1.121   1.099   6.737  1.6739 -0.4803  1.2824
 1660TIP3   OH226614   1.566   2.276   8.688  0.1332 -0.8254  0.0117
 1660TIP3    H126615   1.541   2.280   8.781 -0.5859  1.9434 -0.2199
 1660TIP3    H226616   1.486   2.293   8.640  0.7889 -0.7184 -1.0811
 1661TIP3   OH226617   2.444   1.068   7.818  0.5798  0.5584 -0.2838
 1661TIP3    H126618   2.512   1.036   7.758  1.5356  1.3048  0.3699
 1661TIP3    H226619   2.461   1.021   7.900  0.2712  0.7148 -0.1291
 1662TIP3   OH226620   2.472   5.019   8.600 -0.3345 -0.3265  0.3689
 1662TIP3    H126621   2.515   5.077   8.538 -1.3056  1.4131  1.2531
 1662TIP3    H226622   2.543   4.964   8.634  0.6310  0.3938 -0.4190
 1663TIP3   OH226623   4.120   2.196   0.853  0.5237 -0.2083 -0.1580
 1663TIP3    H126624   4.169   2.224   0.930  0.0035  0.2659  0.0122
 1663TIP3    H226625   4.095   2.106   0.871 -1.4706  0.5584  1.2311
 1664TIP3   OH226626   0.849   5.884   1.555  0.0349  0.5232 -0.3126
 1664TIP3    H126627   0.868   5.851   1.467  0.4243  3.0818 -1.2728
 1664TIP3    H226628   0.929   5.870   1.605 -0.1719 -0.8949 -0.3255
 1665TIP3   OH226629   5.387   4.202   7.971 -0.0614 -0.4505  0.1190
 1665TIP3    H126630   5.483   4.206   7.970 -0.0948  1.4137 -0.7488
 1665TIP3    H226631   5.360   4.294   7.968 -1.8838 -0.9529 -3.4410
 1666TIP3   OH226632   4.317   3.297   7.328  0.1440  0.0323  0.3971
 1666TIP3    H126633   4.403   3.334   7.308  1.1242 -2.3930 -0.2354
 1666TIP3    H226634   4.257   3.345   7.271  1.5677 -0.3251 -1.5387
 1667TIP3   OH226635   6.550   1.227   0.779  0.6799  0.2922  0.4609
 1667TIP3    H126636   6.632   1.201   0.737 -0.8987 -0.5713 -2.3499
 1667TIP3    H226637   6.534   1.158   0.844  1.2739 -0.5550 -0.2656
 1668TIP3   OH226638   6.550   6.085   8.760  0.8403  0.4251  0.3036
 1668TIP3    H126639   6.510   6.002   8.788  0.6288  0.8703  1.3840
 1668TIP3    H226640   6.639   6.082   8.794  0.2957  1.3712  1.9158
 1669TIP3   OH226641   5.415   2.739   7.914  0.3462 -0.4693 -0.4631
 1669TIP3    H126642   5.380   2.661   7.956  2.7454 -2.6714 -2.2152
 1669TIP3    H226643   5.345   2.803   7.919 -1.9467 -2.8898  0.6079
 1670TIP3   OH226644   5.661   1.409   7.610  0.0164 -0.4571 -0.4567
 1670TIP3    H126645   5.756   1.402   7.615  0.2033  1.2515 -0.8628
 1670TIP3    H226646   5.628   1.329   7.650  1.6233 -0.6767  0.4979
 1671TIP3   OH226647   1.632   5.313   7.220 -0.2742  0.6430  0.0778
 1671TIP3    H126648   1.662   5.306   7.129 -1.7628 -1.6713 -0.3144
 1671TIP3    H226649   1.601   5.403   7.228  1.7067  1.4949 -1.0663
 1672TIP3   OH226650   3.533   5.098   6.810 -0.3574 -0.3712  0.2446
 1672TIP3    H126651   3.502   5.021   6.857  1.4302 -1.3854 -0.1294
 1672TIP3    H226652   3.516   5.171   6.869 -2.7218 -0.8968  0.3304
 1673TIP3   OH226653   3.773   6.776   2.252 -0.0423  0.5733 -0.2051
 1673TIP3    H126654   3.743   6.833   2.322 -1.1284 -1.5816  1.2026
 1673TIP3    H226655   3.853   6.736   2.285 -1.0532 -1.1575  0.2853
 1674TIP3   OH226656   6.144   5.201   1.134  0.7700 -0.0575 -0.2711
 1674TIP3    H126657   6.053   5.209   1.162  0.9980  0.7445  0.2865
 1674TIP3    H226658   6.145   5.124   1.078 -0.4702  0.5899 -1.2322
 1675TIP3   OH226659   1.810   2.139   0.143  0.3010  0.6238  0.0812
 1675TIP3    H126660   1.817   2.063   0.085 -0.1114  1.2933 -0.8698
 1675TIP3    H226661   1.752   2.199   0.097  0.2694  1.3381  1.0250
 1676TIP3   OH226662   1.570   5.730   0.132  0.6336 -0.4996  0.0149
 1676TIP3    H126663   1.560   5.809   0.186  0.3093  0.4703 -1.4148
 1676TIP3    H226664   1.642   5.682   0.174  1.6043  1.1005  0.2869
 1677TIP3   OH226665   5.917   3.557   7.249  0.0115 -0.3261  0.2232
 1677TIP3    H126666   5.867   3.628   7.209  0.0879 -0.2389  0.2830
 1677TIP3    H226667   5.932   3.586   7.339 -0.0368 -0.4577  0.2743
 1678TIP3   OH226668   5.077   1.811   8.357 -0.1323  0.1931 -0.4561
 1678TIP3    H126669   5.071   1.906   8.361 -0.8069  0.1360  2.7693
 1678TIP3    H226670   4.993   1.780   8.390 -0.3816 -1.6111 -2.5384
 1679TIP3   OH226671   1.263   3.059   1.477 -0.2969  0.0832  0.0586
 1679TIP3    H126672   1.291   3.033   1.389 -0.1383  0.6869 -0.0676
 1679TIP3    H226673   1.327   3.124   1.505 -0.3472 -0.1000  0.6258
 1680TIP3   OH226674   5.475   4.174   0.062 -0.3464  0.3526 -0.5440
 1680TIP3    H126675   5.523   4.095   0.039 -1.4962 -0.4776 -0.2092
 1680TIP3    H226676   5.420   4.148   0.136 -0.9287  1.4016 -0.5838
 1681TIP3   OH226677   1.602   6.583   1.417 -0.0345  0.2774  0.5674
 1681TIP3    H126678   1.516   6.604   1.452  0.2008  0.5061  1.0202
 1681TIP3    H226679   1.585   6.525   1.342 -0.5854  0.4843  0.5317
 1682TIP3   OH226680   6.190   6.646   1.459 -0.2656 -0.2144  0.2339
 1682TIP3    H126681   6.170   6.614   1.371  1.3240 -0.0578 -0.2223
 1682TIP3    H226682   6.248   6.721   1.445 -0.5063  0.2147  1.3982
 1683TIP3   OH226683   1.275   3.337   8.878  0.9118 -0.1150 -0.4966
 1683TIP3    H126684   1.211   3.323   8.948 -0.2557  0.7937 -1.3574
 1683TIP3    H226685   1.300   3.249   8.850 -2.3403 -0.6311 -2.2488
 1684TIP3   OH226686   2.122   4.428   2.042 -0.8071 -0.1600  0.3349
 1684TIP3    H126687   2.194   4.370   2.017 -0.8585 -0.5523  1.0474
 1684TIP3    H226688   2.122   4.426   2.138 -1.5974  0.0466  0.3493
 1685TIP3   OH226689   2.143   5.155   7.012 -0.3692 -0.3089  0.1548
 1685TIP3    H126690   2.080   5.205   7.063 -1.0416 -0.5116 -0.4563
 1685TIP3    H226691   2.090   5.103   6.952  0.4064  0.4985 -1.2967
 1686TIP3   OH226692   1.580   4.032   8.716  0.2529 -0.1350  0.2535
 1686TIP3    H126693   1.487   4.012   8.703 -0.1559 -0.1880  2.7623
 1686TIP3    H226694   1.621   4.011   8.633 -2.3473  2.3204 -1.8590
 1687TIP3   OH226695   5.924   2.988   0.772 -0.9344  0.2886  0.2150
 1687TIP3    H126696   5.933   3.024   0.861 -2.0241  0.8288  0.1125
 1687TIP3    H226697   5.937   2.893   0.784 -2.7058  0.1379  1.2234
 1688TIP3   OH226698   1.911   1.337   0.791  0.0862 -0.0068  0.2313
 1688TIP3    H126699   1.938   1.337   0.700  1.0910  0.5473  0.5201
 1688TIP3    H226700   1.823   1.300   0.790 -0.3026  0.9024 -1.0759
 1689TIP3   OH226701   3.034   5.199   8.761  0.2752  0.1610 -0.1382
 1689TIP3    H126702   3.087   5.119   8.759  0.4687  0.2862 -0.0374
 1689TIP3    H226703   3.000   5.202   8.851 -0.4594 -0.2786 -0.3875
 1690TIP3   OH226704   4.448   1.796   7.398  0.3666  0.4057 -0.1096
 1690TIP3    H126705   4.363   1.826   7.431  1.6057  2.2999  1.6478
 1690TIP3    H226706   4.478   1.866   7.340  0.3063 -0.7502 -1.5982
 1691TIP3   OH226707   3.800   0.332   2.172 -0.1430  0.3833  0.1587
 1691TIP3    H126708   3.848   0.318   2.253 -0.6775 -0.3999  0.3483
 1691TIP3    H226709   3.812   0.425   2.153  3.5077 -0.1865 -1.1428
 1692TIP3   OH226710   3.422   4.548   8.135 -0.2235 -0.3338 -0.2378
 1692TIP3    H126711   3.449   4.638   8.157  1.7979 -0.7328 -0.8752
 1692TIP3    H226712   3.461   4.494   8.204 -1.5369 -0.7417  0.2121
 1693TIP3   OH226713   2.953   3.180   0.684 -0.4174 -0.3141 -0.8623
 1693TIP3    H126714   2.904   3.214   0.609 -0.1398  1.6701 -0.1912
 1693TIP3    H226715   2.996   3.257   0.722  1.0853 -1.5915  0.1470
 1694TIP3   OH226716   2.191   2.688   0.423  0.0417 -0.2693  0.1402
 1694TIP3    H126717   2.222   2.672   0.334  1.8437  1.9481  0.2500
 1694TIP3    H226718   2.103   2.723   0.412 -0.2625 -1.2256 -0.6483
 1695TIP3   OH226719   1.627   5.387   1.943 -0.4179  0.0332  0.3807
 1695TIP3    H126720   1.660   5.446   2.011 -0.1930 -0.4185  0.6740
 1695TIP3    H226721   1.633   5.300   1.983  0.0671 -0.2820 -0.3504
 1696TIP3   OH226722   6.747   6.107   6.553 -0.0013 -0.1367  0.9091
 1696TIP3    H126723   6.697   6.040   6.600  1.0374 -1.7267 -0.1630
 1696TIP3    H226724   6.787   6.060   6.479  1.9803  1.3450  0.9595
 1697TIP3   OH226725   0.629   4.022   8.208  0.3088  0.0178  0.2468
 1697TIP3    H126726   0.664   3.937   8.182 -0.4321 -0.5921  1.1383
 1697TIP3    H226727   0.581   4.004   8.289  1.1597  1.5138  1.1285
 1698TIP3   OH226728   3.257   3.056   7.021  0.5417 -0.5532  0.4193
 1698TIP3    H126729   3.170   3.048   6.983  1.1504 -2.1570 -0.7431
 1698TIP3    H226730   3.249   3.127   7.084 -0.6213  1.9756 -2.3594
 1699TIP3   OH226731   4.525   2.186   0.162  0.0429  0.5275 -0.4453
 1699TIP3    H126732   4.444   2.136   0.157  0.1585  0.1811  0.8760
 1699TIP3    H226733   4.583   2.134   0.218  0.1286  2.1579  1.0830
 1700TIP3   OH226734   0.221   4.500   6.927  0.1990 -0.0098 -0.6876
 1700TIP3    H126735   0.202   4.491   6.834  1.3164 -1.4524 -0.8184
 1700TIP3    H226736   0.311   4.530   6.931  0.1629  0.0325 -0.0686
 1701TIP3   OH226737   0.759   4.244   0.382 -0.1139  0.3170  0.2552
 1701TIP3    H126738   0.794   4.158   0.359  0.0207  1.1341 -3.1198
 1701TIP3    H226739   0.830   4.305   0.363 -0.6361  1.3149  1.3611
 1702TIP3   OH226740   5.409   4.252   1.435  0.3085 -0.0466  0.1506
 1702TIP3    H126741   5.323   4.212   1.424 -0.3468  0.6598  2.2482
 1702TIP3    H226742   5.470   4.178   1.438 -0.0943 -0.5171 -2.0136
 1703TIP3   OH226743   2.588   2.697   0.626  0.1777 -0.1536  0.1953
 1703TIP3    H126744   2.536   2.631   0.580  1.8216 -1.5556  0.2307
 1703TIP3    H226745   2.674   2.692   0.584  0.8215  0.7711  1.3543
 1704TIP3   OH226746   0.054   5.292   1.853 -0.1376 -0.2062  0.2544
 1704TIP3    H126747   0.017   5.316   1.768  0.6317 -0.8057 -0.2655
 1704TIP3    H226748  -0.019   5.253   1.901 -0.2437 -1.2158 -0.6873
 1705TIP3   OH226749   0.700   2.126   1.050  0.2697 -0.0865 -0.5843
 1705TIP3    H126750   0.641   2.069   1.000  0.4352  0.6608 -1.6601
 1705TIP3    H226751   0.704   2.207   0.999  0.6160  0.6234  0.5436
 1706TIP3   OH226752   5.920   4.452   7.271  0.3202  0.5931  0.9339
 1706TIP3    H126753   5.989   4.410   7.221 -0.4172  1.0383 -0.4969
 1706TIP3    H226754   5.885   4.383   7.328 -1.8095 -1.2442 -2.3240
 1707TIP3   OH226755   2.772   0.539   1.527  0.0402 -0.0657 -0.7533
 1707TIP3    H126756   2.774   0.635   1.535 -3.6914  0.1616 -0.5457
 1707TIP3    H226757   2.809   0.508   1.610 -1.4571  1.3290  0.5126
 1708TIP3   OH226758   4.612   3.126   8.749 -0.5744  0.3326 -0.1446
 1708TIP3    H126759   4.699   3.087   8.739  0.2429  2.2879 -1.1881
 1708TIP3    H226760   4.587   3.105   8.839  1.7112  1.1193  0.7472
 1709TIP3   OH226761   6.179   6.053   0.916  0.2777  0.3219  0.4831
 1709TIP3    H126762   6.208   6.085   1.002  0.4043  0.6609  0.3170
 1709TIP3    H226763   6.168   6.133   0.864 -1.7667  0.3073  0.7852
 1710TIP3   OH226764   4.897   5.163   0.635  0.2833  0.1321  0.0262
 1710TIP3    H126765   4.814   5.119   0.620 -0.1102  0.6267  0.7170
 1710TIP3    H226766   4.959   5.091   0.653  0.2679 -0.3129 -1.5343
 1711TIP3   OH226767   4.183   1.684   6.270  0.1688 -0.2745  0.3835
 1711TIP3    H126768   4.215   1.610   6.217 -0.1716 -0.3969  0.3488
 1711TIP3    H226769   4.088   1.683   6.258  0.1971  0.4356  0.0365
 1712TIP3   OH226770   3.819   6.590   7.494  0.4885  0.3498  0.5856
 1712TIP3    H126771   3.855   6.502   7.487 -0.8550 -0.0878 -2.4776
 1712TIP3    H226772   3.779   6.593   7.581 -2.1891 -3.2986 -0.2721
 1713TIP3   OH226773   0.349   6.302   8.242  0.0499 -0.1179 -0.1052
 1713TIP3    H126774   0.292   6.281   8.168  2.7706 -0.2292 -2.3553
 1713TIP3    H226775   0.398   6.380   8.213  1.6744 -0.5572  1.2698
 1714TIP3   OH226776   4.305   0.203   0.596 -0.0278  0.0463 -0.1788
 1714TIP3    H126777   4.350   0.243   0.670  0.9256  0.4490 -0.9541
 1714TIP3    H226778   4.230   0.260   0.579 -1.7726 -1.4048  2.0333
 1715TIP3   OH226779   1.816   6.400   7.392  0.0875  0.6165  0.5390
 1715TIP3    H126780   1.742   6.367   7.342  0.6935  0.5100 -0.3140
 1715TIP3    H226781   1.788   6.485   7.426  0.2657  1.5359 -1.4883
 1716TIP3   OH226782   2.685   4.216   7.155  0.2420  0.4141 -0.0856
 1716TIP3    H126783   2.700   4.174   7.070 -0.1709 -2.0652  0.9777
 1716TIP3    H226784   2.764   4.196   7.206  0.5648  2.0295  0.1052
 1717TIP3   OH226785   1.548   0.745   2.360  0.5428  0.5026 -0.1222
 1717TIP3    H126786   1.466   0.711   2.395  1.1198  0.3468  1.1427
 1717TIP3    H226787   1.554   0.708   2.272 -0.8788  0.7720 -0.3509
 1718TIP3   OH226788   3.322   0.070   0.664 -0.2715  0.2792 -0.3210
 1718TIP3    H126789   3.249   0.083   0.604 -2.2898  0.5965  2.0713
 1718TIP3    H226790   3.342   0.157   0.698 -0.1418 -0.0965  0.5729
 1719TIP3   OH226791   2.203   1.370   0.313  0.2861 -0.0389 -0.1356
 1719TIP3    H126792   2.161   1.453   0.333 -0.9564 -1.1337  2.3508
 1719TIP3    H226793   2.235   1.338   0.398  0.9889 -1.9401 -1.0503
 1720TIP3   OH226794   3.683   1.992   8.307 -0.0761  0.2776 -0.0361
 1720TIP3    H126795   3.719   2.073   8.342  1.1787  0.4399 -1.5951
 1720TIP3    H226796   3.605   2.019   8.258 -1.4768  0.1196  1.9760
 1721TIP3   OH226797   1.920   5.467   6.904 -0.0272 -0.2509  0.3324
 1721TIP3    H126798   1.857   5.409   6.948 -0.9217  0.0095 -0.5478
 1721TIP3    H226799   1.953   5.414   6.831 -0.2659  0.0662 -0.0142
 1722TIP3   OH226800   0.515   2.599   8.411 -0.4724 -0.6958 -0.0891
 1722TIP3    H126801   0.473   2.524   8.453 -1.2604  0.0140  0.4352
 1722TIP3    H226802   0.532   2.660   8.483  0.1523 -0.3696 -0.5088
 1723TIP3   OH226803   5.434   2.868   0.495 -0.6443 -0.2415  0.1678
 1723TIP3    H126804   5.449   2.946   0.442 -1.4040 -0.3422 -0.2053
 1723TIP3    H226805   5.482   2.885   0.576 -0.1882  0.2877 -0.2061
 1724TIP3   OH226806   2.197   6.136   7.850 -0.2268  0.4767 -0.1809
 1724TIP3    H126807   2.291   6.146   7.838 -0.0421 -0.8301 -0.0074
 1724TIP3    H226808   2.159   6.217   7.815  0.8616  0.3853 -1.6925
 1725TIP3   OH226809   0.623   6.593   1.527  0.5566 -0.5866 -0.2451
 1725TIP3    H126810   0.577   6.618   1.447 -0.0238 -0.2859  0.1789
 1725TIP3    H226811   0.555   6.590   1.594  0.6026 -3.0619 -0.1981
 1726TIP3   OH226812   5.874   2.927   2.051 -0.2969  0.3611 -0.1245
 1726TIP3    H126813   5.779   2.922   2.040 -0.2806 -1.4088  0.2359
 1726TIP3    H226814   5.909   2.873   1.981  0.3413 -0.6089  0.9035
 1727TIP3   OH226815   2.999   5.342   8.397  0.7433  0.2430 -0.4516
 1727TIP3    H126816   3.082   5.388   8.412  1.5553 -1.1166 -0.5797
 1727TIP3    H226817   2.941   5.376   8.465  1.9367 -0.0054  0.7530
 1728TIP3   OH226818   5.716   4.581   7.479 -0.0565 -0.3904  0.5090
 1728TIP3    H126819   5.681   4.570   7.568  0.4352 -0.3953  0.7052
 1728TIP3    H226820   5.806   4.550   7.485  0.3342  0.6735  0.2739
 1729TIP3   OH226821   5.430   5.683   0.469 -0.2922  0.8387 -0.1439
 1729TIP3    H126822   5.355   5.661   0.413  0.1482  2.3299 -1.3915
 1729TIP3    H226823   5.391   5.702   0.555 -1.0049 -1.2502  0.0600
 1730TIP3   OH226824   5.734   1.633   2.473  0.0655 -0.0528  0.3095
 1730TIP3    H126825   5.818   1.622   2.518  1.6033  0.9879 -2.0706
 1730TIP3    H226826   5.687   1.552   2.489  2.3598 -1.4940  0.1544
 1731TIP3   OH226827   3.356   6.631   0.821  0.1085  0.4094  0.6723
 1731TIP3    H126828   3.367   6.713   0.772 -0.0338  1.6685  2.6451
 1731TIP3    H226829   3.296   6.579   0.767  1.0786  1.0886 -1.1786
 1732TIP3   OH226830   6.019   2.048   0.262  0.3397 -0.7921 -0.5017
 1732TIP3    H126831   6.045   2.136   0.237  0.9329 -0.8730 -0.1617
 1732TIP3    H226832   6.016   2.000   0.179  2.0914 -0.9987 -0.4752
 1733TIP3   OH226833   4.360   6.742   1.525 -0.3893  0.1986  0.1494
 1733TIP3    H126834   4.396   6.761   1.439 -0.1250  0.2871  0.2787
 1733TIP3    H226835   4.379   6.820   1.577  0.2204 -0.1978  0.5307
 1734TIP3   OH226836   6.662   2.213   1.350 -0.4169 -0.3401  0.1047
 1734TIP3    H126837   6.634   2.263   1.273 -0.3310 -1.0095 -0.3736
 1734TIP3    H226838   6.675   2.124   1.317  0.9920 -0.3400  0.5888
 1735TIP3   OH226839   6.121   0.315   2.672  0.4352 -0.0416 -0.0813
 1735TIP3    H126840   6.204   0.278   2.703  1.2554  0.1087 -1.9408
 1735TIP3    H226841   6.120   0.403   2.708  0.7779 -0.2628  0.4868
 1736TIP3   OH226842   1.793   2.239   1.680 -0.2560 -0.0342  0.2169
 1736TIP3    H126843   1.758   2.158   1.717  0.1918  0.2655  1.3436
 1736TIP3    H226844   1.784   2.304   1.750  0.1686  0.6806 -0.3714
 1737TIP3   OH226845   0.082   0.895   1.716  0.6194 -0.1690 -0.3770
 1737TIP3    H126846   0.121   0.819   1.672 -0.9876 -1.2726  0.0068
 1737TIP3    H226847  -0.003   0.863   1.747  0.3013  1.5403  0.6124
 1738TIP3   OH226848   6.251   0.528   8.431  0.9952 -0.7494 -0.5321
 1738TIP3    H126849   6.294   0.613   8.415 -1.7373  0.5605 -1.5753
 1738TIP3    H226850   6.281   0.503   8.519  0.1523  2.5339  0.8770
 1739TIP3   OH226851   2.460   1.509   7.910  0.0213 -0.2464 -0.0934
 1739TIP3    H126852   2.364   1.506   7.911 -0.0762 -0.4453  3.5123
 1739TIP3    H226853   2.480   1.602   7.902 -0.3832 -0.2800 -1.9083
 1740TIP3   OH226854   0.387   1.791   0.050 -0.0725  0.1777 -0.2512
 1740TIP3    H126855   0.434   1.719   0.091 -0.4227  1.3147  2.3428
 1740TIP3    H226856   0.445   1.820  -0.020  0.6482 -1.7613 -0.5339
 1741TIP3   OH226857   2.219   1.201   8.113 -0.2421  0.0581  0.3265
 1741TIP3    H126858   2.201   1.130   8.051  0.0461  0.5264 -0.3106
 1741TIP3    H226859   2.159   1.271   8.087  0.1408  0.3940  0.3321
 1742TIP3   OH226860   5.025   1.441   8.717  0.2550  0.3199 -0.4495
 1742TIP3    H126861   5.048   1.400   8.634 -0.9978  0.5116 -0.9118
 1742TIP3    H226862   5.031   1.370   8.781 -1.0765 -0.4239 -1.1092
 1743TIP3   OH226863   3.038   0.236   1.684  0.1520 -0.6689 -0.0573
 1743TIP3    H126864   3.050   0.147   1.716  0.1135 -0.6710 -0.0484
 1743TIP3    H226865   2.983   0.278   1.750  0.9302 -0.3650  0.4053
 1744TIP3   OH226866   2.212   6.201   7.013  0.1323 -0.7194  0.1042
 1744TIP3    H126867   2.257   6.202   7.097  0.3044 -0.5484  0.0121
 1744TIP3    H226868   2.276   6.237   6.951  0.1768 -1.2981 -0.1898
 1745TIP3   OH226869   2.160   1.043   7.914  0.3304 -0.2716  0.8377
 1745TIP3    H126870   2.087   0.984   7.896 -0.2550 -0.0064  2.2517
 1745TIP3    H226871   2.233   1.006   7.864 -0.7479 -0.5314 -0.6045
 1746TIP3   OH226872   3.649   6.705   8.858 -0.0893  0.0119  0.0130
 1746TIP3    H126873   3.579   6.653   8.820 -0.8381  0.9290  0.1005
 1746TIP3    H226874   3.681   6.760   8.787  0.0924  0.0666  0.1341
 1747TIP3   OH226875   1.201   4.493   2.051 -0.4744 -0.4257 -0.6269
 1747TIP3    H126876   1.184   4.511   2.144  1.1215  0.5363 -0.4760
 1747TIP3    H226877   1.236   4.404   2.049  1.6127  0.3271  0.0260
 1748TIP3   OH226878   1.336   2.665   6.487 -0.5917  0.3613  0.2196
 1748TIP3    H126879   1.364   2.747   6.528 -1.4512  0.7652  0.0115
 1748TIP3    H226880   1.284   2.692   6.411 -1.4181 -0.3650  0.5086
 1749TIP3   OH226881   2.768   3.678   8.001 -0.2493  0.7660 -0.5319
 1749TIP3    H126882   2.805   3.627   8.073 -2.5364  0.5289  0.5926
 1749TIP3    H226883   2.751   3.764   8.039 -0.7764  0.8816 -1.0109
 1750TIP3   OH226884   0.581   2.141   7.612 -0.4376 -0.1021  1.0772
 1750TIP3    H126885   0.520   2.091   7.665  0.5866 -0.1343  2.2735
 1750TIP3    H226886   0.532   2.162   7.533 -0.9183 -2.9727  0.4973
 1751TIP3   OH226887   1.825   4.028   0.928  0.0139  0.4194 -0.0649
 1751TIP3    H126888   1.891   4.079   0.881  0.4853  0.4001  0.5473
 1751TIP3    H226889   1.821   4.069   1.015 -0.0967 -0.1599  0.2102
 1752TIP3   OH226890   4.098   4.168   8.575  0.7512 -0.3510 -0.0061
 1752TIP3    H126891   4.074   4.126   8.658 -0.7923  2.7958  1.3112
 1752TIP3    H226892   4.178   4.216   8.595  0.4921  0.2468 -0.4050
 1753TIP3   OH226893   4.677   3.393   1.702 -0.4451  0.1436 -0.1662
 1753TIP3    H126894   4.735   3.320   1.681  0.1344  0.1115  1.3670
 1753TIP3    H226895   4.687   3.404   1.797 -3.6669 -0.5207  0.3911
 1754TIP3   OH226896   1.129   0.090   1.740 -0.5045  0.8705  0.4712
 1754TIP3    H126897   1.144   0.184   1.727  0.3555  0.8223  1.0227
 1754TIP3    H226898   1.145   0.051   1.654  2.7144  0.8411  0.9521
 1755TIP3   OH226899   0.781   1.690   1.198  0.2516  0.3297  1.0578
 1755TIP3    H126900   0.731   1.659   1.123 -0.6826 -1.5817  2.3808
 1755TIP3    H226901   0.733   1.766   1.230 -2.4245 -1.8734  2.7452
 1756TIP3   OH226902   5.085   5.721   1.047  0.3794 -0.1694 -0.2039
 1756TIP3    H126903   5.079   5.754   1.137  2.4025 -1.0676  0.3130
 1756TIP3    H226904   5.128   5.790   0.998  0.0270 -0.0174 -0.3037
 1757TIP3   OH226905   4.381   2.104   1.186  0.4585  0.3250 -0.4788
 1757TIP3    H126906   4.334   2.182   1.157  2.5311  1.4548 -0.9947
 1757TIP3    H226907   4.328   2.031   1.155 -1.6410  1.4842  0.1756
 1758TIP3   OH226908   3.575   2.834   1.352 -0.4267  0.5849  0.3227
 1758TIP3    H126909   3.542   2.812   1.265  0.2526  1.4619 -0.1700
 1758TIP3    H226910   3.664   2.864   1.337  0.0525 -0.2040  1.4448
 1759TIP3   OH226911   1.523   0.339   1.898  0.3762  0.3551 -0.5131
 1759TIP3    H126912   1.604   0.293   1.917  0.7784  1.3674  0.3006
 1759TIP3    H226913   1.507   0.394   1.975 -1.3521 -0.1923 -0.4315
 1760TIP3   OH226914   5.104   5.746   7.394  0.0012 -0.3734 -1.0504
 1760TIP3    H126915   5.057   5.678   7.443  1.9014 -1.5608 -0.7634
 1760TIP3    H226916   5.037   5.787   7.340 -1.7156 -0.6905  0.7183
 1761TIP3   OH226917   4.108   0.532   1.045  0.6095 -0.3700 -0.1921
 1761TIP3    H126918   4.180   0.577   1.000  1.0733 -0.5378  0.3691
 1761TIP3    H226919   4.148   0.452   1.080 -0.1298 -1.0641 -0.8961
 1762TIP3   OH226920   6.446   0.006   1.201  0.0943 -0.1569  0.3071
 1762TIP3    H126921   6.417  -0.056   1.268 -0.8706 -0.2983 -0.2240
 1762TIP3    H226922   6.499  -0.046   1.141  1.7282  0.1504  1.4075
 1763TIP3   OH226923   4.420   0.614   8.588  0.9526 -0.4887  0.8215
 1763TIP3    H126924   4.466   0.549   8.535 -1.0233 -2.1965  1.0699
 1763TIP3    H226925   4.346   0.566   8.626 -0.3333  1.8159  1.4154
 1764TIP3   OH226926   0.505   6.344   0.263 -0.3362 -1.5385  0.5118
 1764TIP3    H126927   0.575   6.315   0.204  1.4395 -0.3213  1.9159
 1764TIP3    H226928   0.478   6.428   0.228  0.0712 -1.2479  0.8826
 1765TIP3   OH226929   3.211   4.989   8.784 -0.3177 -0.2051 -0.3576
 1765TIP3    H126930   3.206   5.014   8.876  1.0982 -0.2345 -0.2552
 1765TIP3    H226931   3.305   4.978   8.767 -0.6484 -1.5987 -1.4239
 1766TIP3   OH226932   0.941   6.657   7.437 -0.3083  0.1394  0.1526
 1766TIP3    H126933   0.946   6.618   7.350 -2.0175  0.5507 -0.1679
 1766TIP3    H226934   0.895   6.740   7.423  0.1367  0.6064  1.3382
 1767TIP3   OH226935   4.122   4.762   1.485  0.0099  0.0294  0.0144
 1767TIP3    H126936   4.077   4.841   1.454  0.3710  0.1536 -0.2061
 1767TIP3    H226937   4.101   4.757   1.578 -2.5258 -1.3135 -0.5495
 1768TIP3   OH226938   2.087   0.198   8.240 -0.0436 -0.1543  0.2670
 1768TIP3    H126939   2.093   0.205   8.144  1.2025 -2.2150  0.1443
 1768TIP3    H226940   2.163   0.245   8.272 -0.4066  0.4506  0.2601
 1769TIP3   OH226941   3.265   6.097   8.127 -0.3027 -0.5329 -0.3752
 1769TIP3    H126942   3.279   6.006   8.152 -2.5249 -0.7929  0.1197
 1769TIP3    H226943   3.307   6.106   8.041 -0.3330 -2.1100 -0.5732
 1770TIP3   OH226944   6.670   0.618   2.278 -0.1897 -0.0229 -0.5001
 1770TIP3    H126945   6.743   0.574   2.235  0.3435 -0.6908  1.0171
 1770TIP3    H226946   6.596   0.559   2.265  0.5520 -1.5435  1.6480
 1771TIP3   OH226947   1.690   5.691   8.505  0.0373  0.6033 -0.0663
 1771TIP3    H126948   1.675   5.597   8.497  1.7046  0.0236  2.4288
 1771TIP3    H226949   1.604   5.731   8.493 -0.5795 -1.1197 -1.9576
 1772TIP3   OH226950   4.701   0.223   0.070  0.4431 -0.3063  0.3896
 1772TIP3    H126951   4.667   0.308   0.099 -2.9206 -0.9163 -1.3312
 1772TIP3    H226952   4.681   0.164   0.143  2.2191  0.1756  1.3251
 1773TIP3   OH226953   3.990   0.701   1.767 -0.0155  0.0071  0.3459
 1773TIP3    H126954   4.020   0.784   1.806 -1.5879  0.4731  0.6367
 1773TIP3    H226955   3.912   0.678   1.818 -0.6223 -0.7276 -0.8774
 1774TIP3   OH226956   4.379   0.504   0.021  0.0737 -0.0879 -0.2268
 1774TIP3    H126957   4.309   0.461  -0.028  0.4343 -0.1515 -0.6898
 1774TIP3    H226958   4.367   0.597   0.003 -0.0048 -0.0830 -0.1521
 1775TIP3   OH226959   3.278   3.318   7.158 -0.1133  0.6190 -0.0666
 1775TIP3    H126960   3.262   3.346   7.068 -0.6867  1.7436  0.3596
 1775TIP3    H226961   3.363   3.357   7.181  1.0137 -1.2929 -0.7250
 1776TIP3   OH226962   0.915   0.886   7.316 -0.1972 -0.9080 -0.0052
 1776TIP3    H126963   0.943   0.978   7.318  0.2531 -0.9965  3.2974
 1776TIP3    H226964   0.821   0.889   7.334 -0.9392 -1.0099 -3.3670
 1777TIP3   OH226965   1.364   2.700   0.695  0.3597  0.2321  0.9974
 1777TIP3    H126966   1.278   2.742   0.686  0.7547  0.9140  0.2902
 1777TIP3    H226967   1.404   2.710   0.608  1.1733 -0.0289  1.3378
 1778TIP3   OH226968   2.250   2.054   6.517 -0.0381 -0.5401 -0.8005
 1778TIP3    H126969   2.236   2.148   6.509 -2.1421 -0.8173 -0.7847
 1778TIP3    H226970   2.340   2.041   6.485  1.1691  1.7098  1.3430
 1779TIP3   OH226971   5.236   3.998   8.973  0.8417 -0.0937 -0.5246
 1779TIP3    H126972   5.284   3.943   8.912  2.6701  0.2782  0.5134
 1779TIP3    H226973   5.187   4.058   8.917  0.9741 -0.9659 -1.6258
 1780TIP3   OH226974   5.047   0.213   7.189  0.6774 -0.0315 -0.3754
 1780TIP3    H126975   5.024   0.247   7.275  4.1779  0.2570  0.5987
 1780TIP3    H226976   5.055   0.119   7.201 -1.7015 -0.3913 -1.2021
 1781TIP3   OH226977   3.454   6.039   7.099  0.1858 -0.0130 -0.8011
 1781TIP3    H126978   3.390   5.993   7.044 -1.5784  0.8268  0.4680
 1781TIP3    H226979   3.460   6.127   7.061  0.3715  0.0030 -0.7394
 1782TIP3   OH226980   1.088   2.132   7.342 -0.0789  0.2408  0.3142
 1782TIP3    H126981   1.108   2.177   7.424  1.3121  1.1222 -0.4670
 1782TIP3    H226982   1.172   2.095   7.315 -0.8686 -1.5210  0.1357
 1783TIP3   OH226983   1.265   3.243   8.084 -0.0910 -0.4197 -0.5034
 1783TIP3    H126984   1.247   3.194   8.004 -0.9052 -0.9363 -0.0162
 1783TIP3    H226985   1.226   3.191   8.154 -0.0701  0.4107  0.1442
 1784TIP3   OH226986   0.372   1.451   7.300 -0.8685  0.4736  0.0484
 1784TIP3    H126987   0.316   1.527   7.286 -3.4283 -1.7253 -3.2986
 1784TIP3    H226988   0.327   1.400   7.367 -0.9153  0.3933 -0.0442
 1785TIP3   OH226989   4.949   2.985   0.395  0.0105  0.1838  0.3325
 1785TIP3    H126990   4.947   2.910   0.336 -2.8554 -0.1490  0.7149
 1785TIP3    H226991   5.027   2.971   0.449  2.3417  0.1504 -2.7727
 1786TIP3   OH226992   4.081   4.555   6.630 -0.7340 -0.4971  0.3287
 1786TIP3    H126993   4.043   4.525   6.713 -1.7964  0.4119  0.1913
 1786TIP3    H226994   4.015   4.533   6.564 -0.2032 -0.5622 -0.1861
 1787TIP3   OH226995   5.928   0.611   8.346 -0.5868 -0.4265 -0.1467
 1787TIP3    H126996   5.973   0.527   8.338  1.7743  0.3709  2.8037
 1787TIP3    H226997   5.985   0.673   8.299 -1.5665 -0.2201 -1.0922
 1788TIP3   OH226998   6.389   6.653   8.078 -0.2998  0.7752 -0.2717
 1788TIP3    H126999   6.461   6.645   8.140 -0.5021  2.7783  0.2928
 1788TIP3    H227000   6.311   6.655   8.133 -0.5651  1.4414 -0.6636
 1789TIP3   OH227001   0.645   1.358   7.930  0.2227  0.0172 -0.1928
 1789TIP3    H127002   0.673   1.449   7.922  2.4349 -0.6086 -0.2785
 1789TIP3    H227003   0.648   1.340   8.024  2.6025 -0.7226 -0.3590
 1790TIP3   OH227004   1.784   5.720   1.353 -0.5628 -0.5541 -0.0932
 1790TIP3    H127005   1.822   5.717   1.440 -2.4348  1.2166  0.8604
 1790TIP3    H227006   1.837   5.785   1.306 -0.9953  0.2736  0.5269
 1791TIP3   OH227007   4.825   1.867   1.529  0.4662 -0.0954  0.0015
 1791TIP3    H127008   4.881   1.805   1.575  0.2479 -0.1004  0.2629
 1791TIP3    H227009   4.742   1.864   1.576 -0.1413 -0.9552 -1.0911
 1792TIP3   OH227010   1.601   0.832   7.120 -0.1139 -0.4040 -0.3749
 1792TIP3    H127011   1.632   0.858   7.207  1.5822 -1.3781 -0.6495
 1792TIP3    H227012   1.554   0.751   7.135 -0.0834 -0.4128 -0.3269
 1793TIP3   OH227013   3.140   4.117   2.111  0.8789 -0.4771  0.3213
 1793TIP3    H127014   3.206   4.097   2.046  0.5743 -1.4299  0.2916
 1793TIP3    H227015   3.086   4.038   2.116  0.4523 -0.1461  1.1858
 1794TIP3   OH227016   5.893   0.519   7.448  0.3353 -0.1200  0.1093
 1794TIP3    H127017   5.956   0.561   7.506 -0.2413  0.1769  0.5224
 1794TIP3    H227018   5.847   0.456   7.504 -0.6418  0.5984  0.1284
 1795TIP3   OH227019   5.260   2.121   8.783  0.1867 -0.3458  0.1430
 1795TIP3    H127020   5.282   2.056   8.850  0.9282 -1.0926 -0.7848
 1795TIP3    H227021   5.167   2.107   8.766 -0.8353  1.8704  3.0854
 1796TIP3   OH227022   1.800   5.337   7.536  0.0444 -0.1213 -0.2262
 1796TIP3    H127023   1.738   5.375   7.474 -0.1931  1.6011  1.0208
 1796TIP3    H227024   1.752   5.331   7.618  1.3797  0.9148  0.6776
 1797TIP3   OH227025   1.876   1.890   0.950 -0.0566  0.3171  0.0294
 1797TIP3    H127026   1.842   1.810   0.911 -0.4253  0.6905 -0.4331
 1797TIP3    H227027   1.806   1.920   1.009  0.0748  0.3040  0.1928
 1798TIP3   OH227028   5.974   0.237   7.758  0.4590 -0.5378 -0.4737
 1798TIP3    H127029   6.054   0.232   7.704  0.7686  2.3515 -0.4435
 1798TIP3    H227030   5.959   0.331   7.769 -2.6376 -0.9962  0.0439
 1799TIP3   OH227031   4.987   6.705   7.482  0.8294 -0.2159  0.5439
 1799TIP3    H127032   5.068   6.751   7.458  0.6480 -0.0550  0.2399
 1799TIP3    H227033   4.998   6.686   7.575  2.3307 -2.4516  0.0060
 1800TIP3   OH227034   4.385   0.321   8.337 -0.1610  0.1257 -0.3081
 1800TIP3    H127035   4.335   0.240   8.321  1.3964 -0.6118 -1.6828
 1800TIP3    H227036   4.434   0.304   8.417 -0.9863  0.3053  0.2451
 1801TIP3   OH227037   3.044   3.608   0.786  0.5128 -0.8511 -0.4057
 1801TIP3    H127038   3.004   3.680   0.737  0.1937  0.7016  2.0011
 1801TIP3    H227039   3.103   3.651   0.848  1.5583 -2.7833  0.0091
 1802TIP3   OH227040   4.191   1.258   6.888  0.3904  0.5610 -0.1135
 1802TIP3    H127041   4.133   1.270   6.813 -0.9491 -0.5889  0.6973
 1802TIP3    H227042   4.231   1.344   6.903  0.7016  0.8152 -2.1258
 1803TIP3   OH227043   1.481   6.383   6.778 -0.3304 -0.3722  0.1088
 1803TIP3    H127044   1.510   6.320   6.712  3.6585  1.8718 -0.6131
 1803TIP3    H227045   1.561   6.404   6.827 -1.6261  3.4103  0.8875
 1804TIP3   OH227046   0.323   4.732   1.150  0.1208 -0.4150 -0.8187
 1804TIP3    H127047   0.285   4.776   1.074  0.0915  2.4971  0.7568
 1804TIP3    H227048   0.415   4.758   1.148  0.2575 -0.8371 -0.1975
 1805TIP3   OH227049   2.640   6.711   7.654 -0.2410 -0.4407  0.0440
 1805TIP3    H127050   2.732   6.696   7.673 -0.4810 -1.9308  0.1878
 1805TIP3    H227051   2.612   6.778   7.717  1.1879  1.5209 -1.3103
 1806TIP3   OH227052   0.153   3.924   7.306 -0.1928 -0.0725 -0.2271
 1806TIP3    H127053   0.082   3.987   7.307 -2.0714 -2.0584  0.5789
 1806TIP3    H227054   0.202   3.940   7.387 -0.0020  0.9698 -0.5339
 1807TIP3   OH227055   5.332   3.060   2.541  0.3920 -0.2116 -0.1653
 1807TIP3    H127056   5.266   3.123   2.511 -0.1907 -1.8230 -2.5787
 1807TIP3    H227057   5.395   3.113   2.591 -1.6796  1.6979  0.5815
 1808TIP3   OH227058   3.443   6.673   0.225  0.7068  0.3763  0.7346
 1808TIP3    H127059   3.472   6.733   0.294  1.3134 -0.5762  1.3188
 1808TIP3    H227060   3.463   6.719   0.144  2.2521  0.4846  1.1504
 1809TIP3   OH227061   0.966   5.558   7.478  0.1925 -0.0503  0.9551
 1809TIP3    H127062   0.992   5.529   7.391 -1.3655  0.5258  0.2521
 1809TIP3    H227063   0.951   5.652   7.468  1.9617  0.4499  2.3781
 1810TIP3   OH227064   2.743   2.000   0.747  0.5101 -0.2157  0.6444
 1810TIP3    H127065   2.688   1.935   0.792 -0.1753 -0.3428 -0.3411
 1810TIP3    H227066   2.778   1.953   0.671 -0.2614  0.6482 -0.2689
 1811TIP3   OH227067   0.741   5.173   0.657  0.2064 -0.3025  0.4127
 1811TIP3    H127068   0.794   5.151   0.581  1.4836  0.8758  0.9179
 1811TIP3    H227069   0.756   5.266   0.671 -1.4214 -0.1000  1.0449
 1812TIP3   OH227070   6.167   3.625   8.697 -0.4808 -0.6729  0.0232
 1812TIP3    H127071   6.255   3.653   8.723 -0.5176 -1.4645  1.0484
 1812TIP3    H227072   6.116   3.706   8.697  0.1179 -0.2800 -0.0786
 1813TIP3   OH227073   6.193   2.524   0.270 -0.5554 -0.1142  0.2045
 1813TIP3    H127074   6.234   2.460   0.212 -0.0871  4.5610 -5.6210
 1813TIP3    H227075   6.099   2.516   0.253 -0.8552 -1.2966  2.1508
 1814TIP3   OH227076   0.429   3.813   0.028 -0.0712  0.0547 -0.0764
 1814TIP3    H127077   0.423   3.816  -0.067 -1.8087 -1.0189 -0.0446
 1814TIP3    H227078   0.518   3.842   0.048  0.9579 -1.4982 -2.1351
 1815TIP3   OH227079   5.661   0.579   1.132  0.0451  0.3913  0.2207
 1815TIP3    H127080   5.599   0.637   1.088 -0.7210 -0.3124  0.3391
 1815TIP3    H227081   5.705   0.533   1.060  0.1072  0.5699  0.1449
 1816TIP3   OH227082   2.322   6.750   8.772  0.7046 -0.4377 -1.4702
 1816TIP3    H127083   2.375   6.818   8.729  0.4816  0.1827 -0.7895
 1816TIP3    H227084   2.352   6.668   8.734  1.8849 -0.0639 -1.3751
 1817TIP3   OH227085   4.506   4.708   8.574  0.6601  0.1124 -0.0121
 1817TIP3    H127086   4.431   4.745   8.527  0.5782  0.6319  0.5100
 1817TIP3    H227087   4.468   4.672   8.654  0.7128 -1.2859 -0.5866
 1818TIP3   OH227088   4.767   1.628   0.526  0.1045 -0.8085 -0.4213
 1818TIP3    H127089   4.742   1.717   0.504  4.0973  1.0202  1.3790
 1818TIP3    H227090   4.712   1.604   0.601  0.4290  1.0871  0.4701
 1819TIP3   OH227091   2.955   2.627   6.458 -0.1182 -0.3987 -0.3980
 1819TIP3    H127092   2.865   2.642   6.428 -0.1388  1.0052  0.2716
 1819TIP3    H227093   2.966   2.689   6.530  0.6872 -2.0206  0.9437
 1820TIP3   OH227094   4.309   4.468   1.971 -0.1994 -0.4141  0.0472
 1820TIP3    H127095   4.279   4.409   2.040 -0.3191 -1.6563 -1.0365
 1820TIP3    H227096   4.397   4.438   1.949  0.6574  1.2193  0.9803
 1821TIP3   OH227097   5.245   0.358   0.382 -0.3250  0.0101  0.2264
 1821TIP3    H127098   5.208   0.440   0.347 -1.9091 -0.8263 -0.1451
 1821TIP3    H227099   5.292   0.320   0.307 -0.2843  0.1664  0.1707
 1822TIP3   OH227100   5.347   0.749   1.264 -0.3868  0.5950  0.0444
 1822TIP3    H127101   5.415   0.787   1.320  0.5846 -0.5471 -0.3140
 1822TIP3    H227102   5.281   0.717   1.325  0.9159 -1.1177  0.6152
 1823TIP3   OH227103   4.952   2.096   0.718  0.2698 -0.0903 -0.1131
 1823TIP3    H127104   4.905   2.027   0.765 -0.1415  0.0907 -0.2556
 1823TIP3    H227105   4.949   2.172   0.776 -0.3219  0.1615 -0.4660
 1824TIP3   OH227106   0.003   4.662   8.326 -0.3377 -0.3503  0.5644
 1824TIP3    H127107   0.043   4.746   8.306  1.3453 -1.2771 -0.2175
 1824TIP3    H227108   0.022   4.647   8.419  1.8530 -1.0639  0.0706
 1825TIP3   OH227109   4.380   6.074   7.276  0.3123  0.1299  0.1617
 1825TIP3    H127110   4.310   6.136   7.260 -1.1558 -1.7272 -0.9987
 1825TIP3    H227111   4.416   6.100   7.361 -1.4085  1.4631  0.5377
 1826TIP3   OH227112   5.293   2.431   7.461  0.1750  0.2507  0.0093
 1826TIP3    H127113   5.350   2.426   7.384  1.6051  1.3033  0.9533
 1826TIP3    H227114   5.318   2.355   7.514 -1.2843 -0.8667 -0.8144
 1827TIP3   OH227115   2.010   6.461   7.944 -0.1383  0.4541 -0.4111
 1827TIP3    H127116   1.957   6.540   7.929 -1.0237 -0.0119  0.1834
 1827TIP3    H227117   2.039   6.434   7.856  0.9016  1.9120 -0.5554
 1828TIP3   OH227118   0.705   3.458   2.236 -0.3142  0.4117 -0.4382
 1828TIP3    H127119   0.716   3.504   2.319  0.7766 -1.4013  0.4930
 1828TIP3    H227120   0.612   3.438   2.231 -0.1118 -1.3782  1.5029
 1829TIP3   OH227121   6.115   0.846   7.398  0.0761 -0.1408 -0.2219
 1829TIP3    H127122   6.100   0.907   7.471 -1.3420 -2.2064  1.3214
 1829TIP3    H227123   6.200   0.872   7.363  0.5411  1.3027  1.7915
 1830TIP3   OH227124   2.290   2.722   1.105 -0.4078 -0.5257  0.3231
 1830TIP3    H127125   2.349   2.710   1.030 -1.4133  0.9810 -0.7526
 1830TIP3    H227126   2.223   2.782   1.074 -1.1362 -0.2438  2.3006
 1831TIP3   OH227127   0.258   6.782   1.526 -0.6356 -0.6318  0.2148
 1831TIP3    H127128   0.165   6.777   1.549 -0.9013 -0.5858 -0.8008
 1831TIP3    H227129   0.260   6.836   1.447  0.1796 -1.2517 -0.2009
 1832TIP3   OH227130   1.476   5.415   1.392  0.4679  0.5315 -0.0340
 1832TIP3    H127131   1.416   5.363   1.338 -0.4558  0.0761  1.3647
 1832TIP3    H227132   1.449   5.506   1.376  1.0203  0.4921 -1.2541
 1833TIP3   OH227133   0.880   3.694   8.631 -0.3625 -0.2984  0.0988
 1833TIP3    H127134   0.853   3.645   8.553 -0.5085 -0.0739  0.0088
 1833TIP3    H227135   0.950   3.752   8.599 -0.8520  0.2455 -0.0025
 1834TIP3   OH227136   0.077   5.538   2.385  0.1206  0.1048 -0.0128
 1834TIP3    H127137   0.116   5.466   2.436 -1.5783 -0.9348 -0.1140
 1834TIP3    H227138   0.100   5.617   2.435  2.8203 -0.3435 -0.3794
 1835TIP3   OH227139   0.361   5.107   0.163 -0.4504  0.1610  0.5328
 1835TIP3    H127140   0.269   5.108   0.188 -0.3509  0.3538  0.9140
 1835TIP3    H227141   0.379   5.196   0.132 -0.4292  0.0821  0.3169
 1836TIP3   OH227142   1.776   3.951   8.534  0.1016 -0.3782 -0.3585
 1836TIP3    H127143   1.758   3.991   8.448  1.3297 -2.7568 -1.8239
 1836TIP3    H227144   1.855   3.996   8.564 -1.5142  2.0160  0.6969
 1837TIP3   OH227145   2.017   1.807   8.854 -0.1138 -0.1947 -0.2677
 1837TIP3    H127146   2.111   1.820   8.850 -0.1413 -0.1398 -1.0270
 1837TIP3    H227147   1.980   1.894   8.841 -0.2808  0.0629  1.6523
 1838TIP3   OH227148   0.972   4.561   8.655  0.0375  0.2811 -0.5661
 1838TIP3    H127149   0.908   4.575   8.725 -0.0885 -0.2063 -0.5770
 1838TIP3    H227150   1.019   4.644   8.648  0.3681  0.1925  0.4201
 1839TIP3   OH227151   1.558   1.715   0.762 -0.1063 -0.2024  0.6370
 1839TIP3    H127152   1.615   1.791   0.757 -0.0097 -0.2641  0.8232
 1839TIP3    H227153   1.469   1.751   0.755 -0.0316 -0.2900 -2.3125
 1840TIP3   OH227154   3.921   1.299   0.895  0.1394  0.2292  0.0566
 1840TIP3    H127155   3.899   1.388   0.869 -1.5490 -0.7281 -2.1035
 1840TIP3    H227156   3.837   1.256   0.910  0.9264 -0.9269  1.4080
 1841TIP3   OH227157   1.050   0.987   7.067  0.0846  1.0868  0.9927
 1841TIP3    H127158   1.124   0.976   7.127  1.2675 -0.4787 -0.6292
 1841TIP3    H227159   1.049   1.080   7.046  0.2637  1.4753  2.6492
 1842TIP3   OH227160   3.159   1.445   7.926  0.0728 -0.2782  0.1264
 1842TIP3    H127161   3.246   1.472   7.895 -0.6016 -1.0935 -2.7440
 1842TIP3    H227162   3.098   1.496   7.872 -1.2064 -1.9441 -0.0539
 1843TIP3   OH227163   0.064   3.371   1.934 -0.0035  1.1133  0.0116
 1843TIP3    H127164   0.150   3.359   1.973 -0.5974 -1.2294  0.7910
 1843TIP3    H227165   0.006   3.317   1.987 -1.6333  1.1969 -1.5812
 1844TIP3   OH227166   3.997   3.070   0.462 -0.1404  0.5424 -0.2269
 1844TIP3    H127167   3.950   2.993   0.430  0.4916 -0.0713  0.3010
 1844TIP3    H227168   3.945   3.100   0.537 -0.1850  0.4029 -0.2018
 1845TIP3   OH227169   5.869   2.987   1.067  0.3422  0.2545  0.2378
 1845TIP3    H127170   5.907   3.039   1.138  0.2220  0.4492  0.1611
 1845TIP3    H227171   5.940   2.932   1.036  0.6696  0.8934 -0.1674
 1846TIP3   OH227172   3.390   2.725   7.825 -0.2903  0.1032 -0.3035
 1846TIP3    H127173   3.429   2.811   7.840 -3.0782  1.2848  0.8127
 1846TIP3    H227174   3.378   2.720   7.730  0.4762  0.6779 -0.4380
 1847TIP3   OH227175   0.131   4.462   1.134  0.0881 -0.3470  0.3573
 1847TIP3    H127176   0.037   4.442   1.134  0.5740 -3.0460 -0.7281
 1847TIP3    H227177   0.151   4.488   1.044  0.5478 -0.9266  0.2798
 1848TIP3   OH227178   1.134   1.070   8.120 -0.2726 -0.0009 -0.0295
 1848TIP3    H127179   1.146   1.002   8.186  0.5017 -1.1569 -1.3125
 1848TIP3    H227180   1.206   1.131   8.136  0.6711 -0.9482 -0.5858
 1849TIP3   OH227181   6.633   6.315   6.685  0.0763  0.1555 -0.0845
 1849TIP3    H127182   6.683   6.245   6.644  0.1703  0.7255 -0.9566
 1849TIP3    H227183   6.683   6.395   6.668 -0.1324  0.4711  0.7161
 1850TIP3   OH227184   1.474   5.794   2.279 -0.2127 -0.5965 -0.4111
 1850TIP3    H127185   1.383   5.791   2.249 -0.6233  2.2908  0.2348
 1850TIP3    H227186   1.521   5.838   2.208  1.2024 -3.8007 -1.6388
 1851TIP3   OH227187   0.866   2.226   7.934  0.1121 -0.1495  0.0326
 1851TIP3    H127188   0.912   2.201   8.015 -0.6596  0.8076  0.7792
 1851TIP3    H227189   0.823   2.308   7.955 -0.0295  0.1611 -1.3996
 1852TIP3   OH227190   2.110   1.610   0.056 -0.1874  0.1470 -0.3836
 1852TIP3    H127191   2.125   1.626   0.149 -4.0413  2.0156  0.1265
 1852TIP3    H227192   2.062   1.688   0.026  0.1439 -0.7812 -3.7421
 1853TIP3   OH227193   5.513   5.496   2.491 -0.5862  0.1424  0.0003
 1853TIP3    H127194   5.604   5.496   2.521 -0.4390 -0.0936 -0.4449
 1853TIP3    H227195   5.491   5.403   2.480  0.3468  0.2036 -3.5376
 1854TIP3   OH227196   3.177   6.783   0.161  0.0346 -0.7218 -0.3043
 1854TIP3    H127197   3.165   6.695   0.125 -1.4718 -0.4820 -0.4813
 1854TIP3    H227198   3.152   6.841   0.089  0.2716 -0.1710  0.0580
 1855TIP3   OH227199   3.402   5.416   7.331 -1.0015 -0.1669  0.2887
 1855TIP3    H127200   3.424   5.324   7.323  2.3389  0.4877  0.4322
 1855TIP3    H227201   3.446   5.458   7.257 -2.4640  1.3130  0.2085
 1856TIP3   OH227202   1.909   5.543   8.843  0.2359 -0.1389 -0.3167
 1856TIP3    H127203   1.951   5.506   8.920 -0.9158  1.1675  1.0135
 1856TIP3    H227204   1.834   5.486   8.826  0.9522 -0.8998 -1.0128
 1857TIP3   OH227205   0.820   4.849   7.339  0.6399 -0.0133 -0.2095
 1857TIP3    H127206   0.771   4.814   7.413  0.2100 -0.7304 -0.8231
 1857TIP3    H227207   0.912   4.833   7.362  0.4452 -1.8892 -0.6289
 1858TIP3   OH227208   3.818   6.610   7.784 -0.5436  0.0894 -0.3062
 1858TIP3    H127209   3.863   6.548   7.841  1.0906  0.1092 -1.5009
 1858TIP3    H227210   3.866   6.692   7.795 -1.0252  0.4325 -0.7203
 1859TIP3   OH227211   0.208   0.253   7.994 -0.2845 -0.3776  0.4297
 1859TIP3    H127212   0.141   0.193   8.026 -0.3995 -0.8677 -0.6757
 1859TIP3    H227213   0.290   0.205   8.004 -0.4987 -1.2388 -1.5648
 1860TIP3   OH227214   2.576   4.050   0.815  0.3222 -0.1950  0.6049
 1860TIP3    H127215   2.541   4.130   0.774  0.0466 -0.1529  0.9145
 1860TIP3    H227216   2.564   4.065   0.909 -0.8055 -1.0720  0.6240
 1861TIP3   OH227217   4.017   4.646   8.408  0.0096 -0.1191  0.5163
 1861TIP3    H127218   4.027   4.591   8.330  0.6826 -1.7834  1.6963
 1861TIP3    H227219   3.942   4.609   8.455  1.1103 -0.7650  1.8532
 1862TIP3   OH227220   5.574   2.001   7.562 -0.3695 -0.2451  0.5446
 1862TIP3    H127221   5.635   2.046   7.621  0.5735  0.0371 -0.6037
 1862TIP3    H227222   5.587   1.908   7.580  0.9297 -0.2211 -0.1688
 1863TIP3   OH227223   4.947   0.666   7.607  0.0412  0.2904 -0.6400
 1863TIP3    H127224   4.854   0.647   7.619  0.2853 -0.4235  0.3493
 1863TIP3    H227225   4.958   0.675   7.513 -0.9887  0.1659 -0.7868
 1864TIP3   OH227226   3.897   0.355   7.182  0.1016  0.2054  0.1833
 1864TIP3    H127227   3.967   0.360   7.117  1.2955  1.9486  1.5183
 1864TIP3    H227228   3.828   0.304   7.139  1.6188 -0.3853 -1.6870
 1865TIP3   OH227229   3.090   1.663   1.823  0.2878  0.1582 -0.1194
 1865TIP3    H127230   3.149   1.593   1.854  2.7955  2.3162  0.3636
 1865TIP3    H227231   3.030   1.678   1.896 -1.8312 -2.8724 -1.0398
 1866TIP3   OH227232   3.639   0.628   7.281  0.1132 -1.1949 -0.3902
 1866TIP3    H127233   3.692   0.567   7.334  1.2856 -1.3009 -1.6300
 1866TIP3    H227234   3.664   0.609   7.191  1.3340  1.8313 -0.8016
 1867TIP3   OH227235   0.265   2.047   8.830 -0.2416  0.4374 -0.1182
 1867TIP3    H127236   0.207   2.036   8.755 -0.0778 -0.3360 -0.1390
 1867TIP3    H227237   0.210   2.026   8.906  0.2398 -1.2355 -0.2017
 1868TIP3   OH227238   6.569   4.674   1.931  0.3034  0.4324  0.1783
 1868TIP3    H127239   6.574   4.589   1.887  0.3559 -0.2290  1.4152
 1868TIP3    H227240   6.488   4.670   1.982  0.1371  1.2579 -0.0047
 1869TIP3   OH227241   0.647   0.949   7.428  0.1020 -0.0725 -0.3535
 1869TIP3    H127242   0.587   0.884   7.466 -0.9409  0.2292 -1.4486
 1869TIP3    H227243   0.590   1.019   7.396  1.1341  0.8108 -0.3071
 1870TIP3   OH227244   3.232   1.498   8.954  0.6898 -0.6847 -0.4260
 1870TIP3    H127245   3.217   1.496   9.049 -0.0840 -2.0820 -0.5456
 1870TIP3    H227246   3.327   1.499   8.945  0.7986 -1.6440  0.3832
 1871TIP3   OH227247   5.167   2.922   2.371  0.4304  0.0878 -0.0539
 1871TIP3    H127248   5.083   2.964   2.350  0.0901 -0.3655  0.3891
 1871TIP3    H227249   5.219   2.991   2.411  0.0588  0.2231  0.2000
 1872TIP3   OH227250   1.130   5.979   8.359 -0.5617 -0.2790  0.6455
 1872TIP3    H127251   1.194   6.001   8.291 -0.7044 -2.3731 -0.2576
 1872TIP3    H227252   1.055   6.036   8.342  0.3257  0.8957  0.5618
 1873TIP3   OH227253   2.390   4.520   7.783 -0.1861 -0.3140  0.0277
 1873TIP3    H127254   2.455   4.450   7.796 -0.3710 -0.9591 -2.1796
 1873TIP3    H227255   2.325   4.503   7.851  0.1977 -1.8039  0.0781
 1874TIP3   OH227256   1.227   5.743   7.603 -0.0643 -0.4678 -0.2286
 1874TIP3    H127257   1.319   5.758   7.582 -0.2902 -0.7997 -1.5107
 1874TIP3    H227258   1.183   5.737   7.518 -1.3090 -0.1171  0.3625
 1875TIP3   OH227259   6.188   1.367   0.959  0.0511 -0.6194  0.1842
 1875TIP3    H127260   6.247   1.314   1.013 -0.7091 -0.0126  1.6632
 1875TIP3    H227261   6.245   1.404   0.892  1.4829  0.2890  1.7964
 1876TIP3   OH227262   2.993   6.381   7.486  0.0390 -0.1518  0.6521
 1876TIP3    H127263   3.036   6.301   7.515  1.0359  1.0714  2.8245
 1876TIP3    H227264   3.030   6.398   7.399  2.2883 -0.3648  1.5109
 1877TIP3   OH227265   6.356   0.624   1.999 -0.0752  0.1834  0.2059
 1877TIP3    H127266   6.373   0.534   2.027 -2.3201 -0.0343  1.1036
 1877TIP3    H227267   6.435   0.650   1.951  1.7073 -1.3527  2.1209
 1878TIP3   OH227268   1.398   4.410   7.097 -0.4548 -0.0557  0.2856
 1878TIP3    H127269   1.382   4.493   7.141  2.0060 -1.5530  4.6530
 1878TIP3    H227270   1.485   4.420   7.058 -0.9956 -0.0214 -0.9704
 1879TIP3   OH227271   5.709   4.136   8.736  0.2605  0.5359 -0.0282
 1879TIP3    H127272   5.688   4.205   8.799 -0.2356  2.1648 -1.8977
 1879TIP3    H227273   5.735   4.182   8.656  0.7954 -1.4523 -1.0898
 1880TIP3   OH227274   6.488   0.435   6.768  0.2758 -0.5384 -0.0070
 1880TIP3    H127275   6.570   0.484   6.775  0.0841 -0.0408 -1.1142
 1880TIP3    H227276   6.436   0.484   6.704 -1.3572 -0.1747  1.5034
 1881TIP3   OH227277   0.512   1.334   7.109 -0.2930  0.2258 -0.6995
 1881TIP3    H127278   0.448   1.269   7.081  0.1055 -0.9567  0.9593
 1881TIP3    H227279   0.473   1.375   7.186  1.6682 -1.9690  1.6405
 1882TIP3   OH227280   5.315   6.697   0.429  0.1440  0.4141  0.1429
 1882TIP3    H127281   5.406   6.677   0.408  0.1924  1.5094 -0.7645
 1882TIP3    H227282   5.319   6.755   0.505  0.1472 -0.2380  0.6538
 1883TIP3   OH227283   0.127   2.860   8.514 -0.2932 -0.2254 -0.2132
 1883TIP3    H127284   0.206   2.901   8.479  0.5802 -2.4485 -1.0141
 1883TIP3    H227285   0.138   2.864   8.609  1.1748 -1.1184 -0.3054
 1884TIP3   OH227286   2.898   4.777   0.707  0.0496 -0.2050 -0.2453
 1884TIP3    H127287   2.860   4.814   0.787 -0.6411 -1.5142  0.0676
 1884TIP3    H227288   2.973   4.725   0.738  0.0008 -0.4199 -0.4849
 1885TIP3   OH227289   5.641   4.131   0.743  0.0628  0.1729 -0.0524
 1885TIP3    H127290   5.568   4.073   0.765  0.0816 -0.0875 -0.6456
 1885TIP3    H227291   5.681   4.153   0.827 -0.2682 -0.2466  0.2192
 1886TIP3   OH227292   3.734   3.312   8.986 -0.1061 -0.5313  0.7196
 1886TIP3    H127293   3.679   3.274   8.917  1.2232  0.0417 -0.7209
 1886TIP3    H227294   3.743   3.404   8.961  2.5353 -0.8639  0.1268
 1887TIP3   OH227295   5.284   1.857   1.057  0.7784 -0.2815 -0.4623
 1887TIP3    H127296   5.197   1.887   1.084 -0.0564 -2.8253 -0.1047
 1887TIP3    H227297   5.280   1.854   0.962  0.0120 -1.6002 -0.4018
 1888TIP3   OH227298   5.647   5.412   7.692 -0.2547  0.2517  0.0924
 1888TIP3    H127299   5.643   5.475   7.765 -1.7400  0.7467 -0.3761
 1888TIP3    H227300   5.649   5.327   7.735  0.2645  0.5696  0.7252
 1889TIP3   OH227301   2.968   3.130   1.178  0.4626  0.6145 -0.0775
 1889TIP3    H127302   2.911   3.086   1.115  0.8373 -1.4868  0.9569
 1889TIP3    H227303   2.976   3.220   1.145  0.8585 -0.4396 -3.1526
 1890TIP3   OH227304   5.003   3.291   7.979  0.7973  0.3348  0.4567
 1890TIP3    H127305   4.944   3.240   7.924  1.0342  1.2814 -0.7156
 1890TIP3    H227306   4.949   3.321   8.052 -0.4740  1.9967 -1.0811
 1891TIP3   OH227307   0.612   0.066   7.558 -0.1916  0.1460 -0.3030
 1891TIP3    H127308   0.608   0.161   7.554 -0.7922  0.2533  1.6145
 1891TIP3    H227309   0.704   0.045   7.542  0.3266  1.2185  1.0311
 1892TIP3   OH227310   1.340   0.409   8.295 -0.0783  0.4878  0.4525
 1892TIP3    H127311   1.254   0.394   8.255 -0.7084 -1.2108  2.3008
 1892TIP3    H227312   1.335   0.367   8.380  2.4697  0.7244  0.8043
 1893TIP3   OH227313   0.748   3.679   6.794 -0.0596  0.1722 -0.7330
 1893TIP3    H127314   0.721   3.636   6.713 -0.3953 -0.2272 -0.4181
 1893TIP3    H227315   0.819   3.624   6.827  1.6308  1.5718 -1.8854
 1894TIP3   OH227316   1.909   0.870   0.981  0.5027  0.0553  0.4359
 1894TIP3    H127317   1.825   0.885   0.939  1.4685 -1.5384 -2.3343
 1894TIP3    H227318   1.973   0.879   0.910  2.5662  0.0135  2.1962
 1895TIP3   OH227319   3.599   0.220   0.672  0.7033  0.2756 -0.4814
 1895TIP3    H127320   3.646   0.293   0.713  2.8363 -1.1520 -0.1924
 1895TIP3    H227321   3.630   0.143   0.719  0.2549 -1.0351 -2.2500
 1896TIP3   OH227322   3.853   4.922   8.424 -0.1768 -0.0130  0.1162
 1896TIP3    H127323   3.831   5.007   8.386  0.4349  1.5367  2.9190
 1896TIP3    H227324   3.875   4.867   8.349  0.9416  2.7593 -1.7689
 1897TIP3   OH227325   3.534   5.936   1.109  0.1222 -0.0788  0.3606
 1897TIP3    H127326   3.606   5.899   1.160  0.9224  0.4304 -0.3851
 1897TIP3    H227327   3.461   5.940   1.171  0.6905 -0.7236  1.0919
 1898TIP3   OH227328   5.961   5.291   7.829  0.5107 -0.4242 -0.1459
 1898TIP3    H127329   5.954   5.238   7.749  1.3983 -0.8584  0.0571
 1898TIP3    H227330   6.043   5.339   7.818  1.0220 -1.0544  0.8401
 1899TIP3   OH227331   3.785   2.233   2.126 -0.1105  0.2471  0.2145
 1899TIP3    H127332   3.705   2.180   2.130 -0.1013  0.1570 -0.6164
 1899TIP3    H227333   3.797   2.251   2.033  0.7195  0.4462  0.3522
 1900TIP3   OH227334   4.643   5.878   1.318  0.3931 -0.1352  0.0796
 1900TIP3    H127335   4.572   5.843   1.265  1.7800  0.0402 -2.0401
 1900TIP3    H227336   4.651   5.969   1.290  3.0556 -0.7903 -1.7599
 1901TIP3   OH227337   2.133   4.016   1.278  0.1934  0.0989 -0.3680
 1901TIP3    H127338   2.141   4.018   1.374 -0.0064 -1.8133 -0.2587
 1901TIP3    H227339   2.050   3.969   1.263  0.1787  0.4611 -1.4852
 1902TIP3   OH227340   4.574   4.870   7.675 -0.1270  0.2838  0.1825
 1902TIP3    H127341   4.546   4.779   7.675  1.0868 -0.2154 -2.8252
 1902TIP3    H227342   4.666   4.867   7.650 -0.0995  2.3501 -0.1528
 1903TIP3   OH227343   3.580   3.393   1.848  0.5591  0.4660 -0.3443
 1903TIP3    H127344   3.651   3.428   1.901  0.4230  0.9685 -0.4900
 1903TIP3    H227345   3.501   3.433   1.884  0.4115  0.3693 -0.5604
 1904TIP3   OH227346   3.788   1.246   6.755 -0.5136 -0.3535  0.5129
 1904TIP3    H127347   3.733   1.186   6.705  0.1221  0.0958 -0.7693
 1904TIP3    H227348   3.878   1.220   6.733 -0.1949 -0.6425  2.0482
 1905TIP3   OH227349   4.662   6.295   8.816  0.7424  0.3223  0.4040
 1905TIP3    H127350   4.659   6.376   8.765 -0.7726 -0.2159 -0.4387
 1905TIP3    H227351   4.663   6.324   8.907  3.0792  1.3033  0.1449
 1906TIP3   OH227352   4.434   4.836   1.795 -0.0986  0.3483  0.2851
 1906TIP3    H127353   4.406   4.925   1.819 -0.3718  0.3692 -0.1040
 1906TIP3    H227354   4.495   4.811   1.865  0.1730  0.9369  0.2677
 1907TIP3   OH227355   1.987   0.083   8.607 -0.2313  0.5932  0.0232
 1907TIP3    H127356   1.994   0.064   8.701  0.0085 -0.1881 -0.1439
 1907TIP3    H227357   2.073   0.063   8.572 -0.9432 -1.4470 -0.7413
 1908TIP3   OH227358   1.694   4.523   1.943 -0.6221  0.1856 -0.6351
 1908TIP3    H127359   1.704   4.585   1.871 -1.1366  0.6674 -0.3072
 1908TIP3    H227360   1.661   4.443   1.902  0.7969 -0.1418 -1.1705
 1909TIP3   OH227361   4.559   0.274   7.455 -0.4677  0.9536 -0.0365
 1909TIP3    H127362   4.473   0.315   7.462 -0.8557 -0.0318  1.4928
 1909TIP3    H227363   4.546   0.200   7.396 -0.7240  0.7465  0.2703
 1910TIP3   OH227364   4.453   6.107   2.268 -0.0753  0.1534  0.0169
 1910TIP3    H127365   4.459   6.199   2.291 -2.6100  0.4014 -0.0747
 1910TIP3    H227366   4.450   6.107   2.172  0.2723 -0.0713  0.0029
 1911TIP3   OH227367   5.501   3.379   7.393 -0.0379 -0.3783  0.0959
 1911TIP3    H127368   5.576   3.405   7.339 -0.3513 -0.4924 -0.3978
 1911TIP3    H227369   5.447   3.326   7.335 -0.4646 -0.3640  0.4770
 1912TIP3   OH227370   2.171   1.849   7.921 -0.4384 -0.1729  0.0815
 1912TIP3    H127371   2.115   1.815   7.852  2.2409 -0.8634 -1.9162
 1912TIP3    H227372   2.200   1.771   7.969 -1.6721  0.2343  1.5559
 1913TIP3   OH227373   1.959   5.849   6.628 -0.2902  0.2061  0.3960
 1913TIP3    H127374   1.886   5.788   6.623 -1.1875  1.1594  1.5140
 1913TIP3    H227375   2.035   5.796   6.603 -1.3781 -0.7077 -1.2179
 1914TIP3   OH227376   1.468   0.707   8.671  0.4305  0.2507  0.9264
 1914TIP3    H127377   1.542   0.758   8.703  0.7599 -0.0283  0.6076
 1914TIP3    H227378   1.506   0.643   8.612 -0.3128  1.6667 -1.1875
 1915TIP3   OH227379   5.433   1.193   0.818  0.6749  0.5350 -0.1466
 1915TIP3    H127380   5.406   1.149   0.899 -1.8780  0.7362 -0.8073
 1915TIP3    H227381   5.437   1.285   0.842  0.2938  0.5517 -0.1321
 1916TIP3   OH227382   6.444   2.152   7.274 -0.3064  0.1682  0.1823
 1916TIP3    H127383   6.455   2.144   7.179 -0.5265  0.5659  0.1227
 1916TIP3    H227384   6.431   2.062   7.304  2.1456 -0.2802  0.1438
 1917TIP3   OH227385   0.375   2.335   8.292  0.1341  0.7074  0.1200
 1917TIP3    H127386   0.345   2.368   8.377  1.8335  2.2880  0.1830
 1917TIP3    H227387   0.330   2.252   8.280 -1.3454  1.2207  1.8362
 1918TIP3   OH227388   3.173   4.527   8.026  0.3673  0.1749 -0.4695
 1918TIP3    H127389   3.257   4.507   8.067 -0.4609  0.2850  1.3869
 1918TIP3    H227390   3.156   4.453   7.968  1.7179  0.1414 -0.8452
 1919TIP3   OH227391   3.249   1.753   0.735  0.1828  0.4185 -0.3314
 1919TIP3    H127392   3.230   1.676   0.681  0.8398 -0.6734  0.9332
 1919TIP3    H227393   3.172   1.763   0.790  1.6653 -1.9972  2.4720
 1920TIP3   OH227394   4.793   6.144   8.173  0.2303  0.0924 -0.6192
 1920TIP3    H127395   4.765   6.119   8.261 -2.8299  1.3826 -1.0793
 1920TIP3    H227396   4.850   6.220   8.187 -1.2491  1.0996  0.2793
 1921TIP3   OH227397   4.195   2.506   8.628 -0.0810  0.1756  0.5687
 1921TIP3    H127398   4.206   2.541   8.539  0.8744  0.2915  0.7252
 1921TIP3    H227399   4.215   2.413   8.619  1.3240  0.4221  0.8885
 1922TIP3   OH227400   2.271   6.682   0.044  0.2512  0.0112  0.5944
 1922TIP3    H127401   2.327   6.726   0.108  0.4882 -0.3936  0.6641
 1922TIP3    H227402   2.270   6.741  -0.031  0.7712  0.0178  0.5923
 1923TIP3   OH227403   3.096   1.183   1.610  0.5336 -0.7120 -0.1831
 1923TIP3    H127404   3.092   1.254   1.546 -0.0028 -0.5436  0.0318
 1923TIP3    H227405   3.105   1.227   1.695  2.3427 -0.9572 -0.2117
 1924TIP3   OH227406   0.649   5.145   8.582  0.4349 -0.1700 -0.1041
 1924TIP3    H127407   0.689   5.060   8.562  1.2236  0.1354  0.1111
 1924TIP3    H227408   0.555   5.131   8.571  0.3703 -1.6031  1.8580
 1925TIP3   OH227409   1.635   3.931   7.951 -0.0476  0.0998  0.3193
 1925TIP3    H127410   1.566   3.879   7.994 -0.3351  0.0288 -0.2167
 1925TIP3    H227411   1.592   4.013   7.929  0.0334  0.0435 -0.0454
 1926TIP3   OH227412   6.683   4.004   0.197  0.0343 -0.2845 -0.4620
 1926TIP3    H127413   6.772   3.988   0.227 -0.0967  0.9888  0.6823
 1926TIP3    H227414   6.692   4.024   0.104  1.0730  0.7419 -0.1589
 1927TIP3   OH227415   0.989   6.721   8.620 -0.2278  0.1599  0.0432
 1927TIP3    H127416   1.002   6.718   8.525 -1.4598  0.0672 -0.1340
 1927TIP3    H227417   1.058   6.664   8.655 -0.0722 -0.2061 -0.8303
 1928TIP3   OH227418   2.244   1.476   1.514 -0.6589 -0.3793 -0.2521
 1928TIP3    H127419   2.171   1.424   1.548 -0.1771 -0.8768  0.0408
 1928TIP3    H227420   2.236   1.469   1.419 -2.0234  1.0275 -0.2890
 1929TIP3   OH227421   2.004   5.003   0.407 -0.2831 -0.0103  0.8849
 1929TIP3    H127422   1.959   5.030   0.327  0.4191  1.0859  0.8416
 1929TIP3    H227423   2.092   5.041   0.400 -0.2709  0.2890  2.2622
 1930TIP3   OH227424   3.622   0.856   0.612  0.0143 -0.4944  0.8759
 1930TIP3    H127425   3.549   0.795   0.611 -1.3134  1.0369  0.2523
 1930TIP3    H227426   3.608   0.909   0.691 -1.2269  1.6560 -0.6801
 1931TIP3   OH227427   1.881   1.115   7.364 -0.5502  0.4580 -0.2420
 1931TIP3    H127428   1.863   1.203   7.396  1.4676  1.6682 -2.1251
 1931TIP3    H227429   1.958   1.088   7.414  0.6479  1.0464 -1.6919
 1932TIP3   OH227430   3.297   5.718   0.600 -0.2493  0.6000  0.0985
 1932TIP3    H127431   3.278   5.757   0.515 -1.1382 -0.2326 -0.1031
 1932TIP3    H227432   3.241   5.766   0.661  1.5019  2.2590  0.5171
 1933TIP3   OH227433   2.038   4.067   8.679 -0.2686 -0.2097  0.2066
 1933TIP3    H127434   2.104   4.012   8.639 -0.0902 -1.8227  2.4990
 1933TIP3    H227435   2.040   4.148   8.629  0.8561 -1.5481 -2.0543
 1934TIP3   OH227436   1.098   3.347   7.162 -0.0032  0.1998  0.3586
 1934TIP3    H127437   1.117   3.440   7.153  1.5907  0.0534  1.6350
 1934TIP3    H227438   1.165   3.303   7.111 -0.7968 -0.2698 -0.3060
 1935TIP3   OH227439   0.578   3.371   7.799  0.3645  0.4523 -0.3187
 1935TIP3    H127440   0.669   3.399   7.786 -0.0252  0.9749 -2.3950
 1935TIP3    H227441   0.548   3.350   7.711 -1.4720  0.0953  0.3643
 1936TIP3   OH227442   5.363   4.481   7.844  0.5242 -0.1374 -0.0650
 1936TIP3    H127443   5.281   4.498   7.890  1.0085 -0.1204  0.8143
 1936TIP3    H227444   5.338   4.475   7.751 -0.5472 -0.6698  0.2386
 1937TIP3   OH227445   3.503   5.746   6.510  0.3977 -0.3182  0.1550
 1937TIP3    H127446   3.521   5.814   6.575  0.5770 -1.5112  1.4175
 1937TIP3    H227447   3.435   5.692   6.551 -1.4899  0.4311 -1.8201
 1938TIP3   OH227448   0.937   0.698   7.842 -0.4228  0.2090  0.4325
 1938TIP3    H127449   0.961   0.657   7.759 -1.3683  0.6027 -0.0402
 1938TIP3    H227450   0.842   0.705   7.840 -0.3590  1.6324  0.8746
 1939TIP3   OH227451   3.882   3.188   0.695 -0.1196  0.5025  0.5460
 1939TIP3    H127452   3.884   3.161   0.786  1.4576 -0.8945  0.1518
 1939TIP3    H227453   3.908   3.281   0.696 -0.9916  0.7471  1.5634
 1940TIP3   OH227454   1.797   0.057   6.649  0.0878 -0.1695  0.0166
 1940TIP3    H127455   1.890   0.082   6.647  0.0183  0.2769 -2.9790
 1940TIP3    H227456   1.752   0.138   6.671  0.3845 -0.4164  1.6126
 1941TIP3   OH227457   4.540   5.134   7.683  0.0906 -0.0717 -0.4679
 1941TIP3    H127458   4.548   5.042   7.661  0.6283  0.1652 -1.3246
 1941TIP3    H227459   4.457   5.161   7.643  0.0965 -0.1094 -0.5057
 1942TIP3   OH227460   1.381   5.654   8.879  0.4390  0.0939  0.3071
 1942TIP3    H127461   1.437   5.655   8.801 -0.7839 -2.1134 -0.6725
 1942TIP3    H227462   1.315   5.721   8.862 -0.7497 -1.4060 -1.3581
 1943TIP3   OH227463   5.412   4.748   7.148  0.1923  0.4700 -0.2743
 1943TIP3    H127464   5.461   4.828   7.134  3.2652 -1.5174 -1.8900
 1943TIP3    H227465   5.428   4.726   7.240  1.1771  0.6132 -0.4012
 1944TIP3   OH227466   0.616   5.970   8.566 -0.5709  0.1823  0.3443
 1944TIP3    H127467   0.527   5.977   8.530 -1.6696 -0.0210  2.8355
 1944TIP3    H227468   0.672   5.960   8.489 -2.6727  0.5125 -1.3197
 1945TIP3   OH227469   5.377   2.742   1.569  0.0123  0.4130  0.5988
 1945TIP3    H127470   5.373   2.779   1.481 -1.0281  0.6197  0.7285
 1945TIP3    H227471   5.362   2.817   1.627  1.2829  0.3906  0.9882
 1946TIP3   OH227472   3.769   6.360   8.688 -0.2542  0.1219  0.0113
 1946TIP3    H127473   3.694   6.304   8.710  0.5447 -0.9863 -0.0021
 1946TIP3    H227474   3.822   6.361   8.768 -1.0832  2.3142  0.6218
 1947TIP3   OH227475   0.103   0.727   8.321 -0.0362 -0.4396  0.1322
 1947TIP3    H127476   0.199   0.727   8.320 -0.0208 -0.7860  1.2184
 1947TIP3    H227477   0.079   0.718   8.228  0.9739 -0.6967 -0.1190
 1948TIP3   OH227478   2.096   6.698   7.486 -0.0983  0.9622  0.5244
 1948TIP3    H127479   2.024   6.698   7.549 -0.7300 -0.8606 -0.1079
 1948TIP3    H227480   2.174   6.683   7.539 -0.4606  0.8187  1.0279
 1949TIP3   OH227481   0.711   3.083   8.645  0.0648  0.4076 -0.0706
 1949TIP3    H127482   0.772   3.046   8.709  1.2922  0.4025 -1.2140
 1949TIP3    H227483   0.731   3.038   8.563 -1.3635  0.5400 -0.5279
 1950TIP3   OH227484   1.015   0.373   0.547 -0.2324 -0.2173 -0.0361
 1950TIP3    H127485   0.973   0.360   0.461  1.0657 -2.4009 -0.4147
 1950TIP3    H227486   0.959   0.325   0.608 -0.8302  0.8344  0.2489
 1951TIP3   OH227487   6.191   4.353   7.210 -1.2013  0.3529 -0.1463
 1951TIP3    H127488   6.282   4.333   7.234 -0.8110  0.6710 -1.2790
 1951TIP3    H227489   6.175   4.299   7.132 -1.9828  0.3220  0.0284
 1952TIP3   OH227490   0.146   1.519   1.966  0.0811  0.2067  0.2994
 1952TIP3    H127491   0.152   1.523   2.061  1.2452  0.0311  0.2484
 1952TIP3    H227492   0.056   1.545   1.946 -0.2652 -0.0533  1.4615
 1953TIP3   OH227493   1.774   1.684   1.555 -0.0501  0.2267 -0.4256
 1953TIP3    H127494   1.866   1.711   1.555  0.2672 -0.8192 -0.8608
 1953TIP3    H227495   1.758   1.656   1.645 -0.3857  1.8021  0.0370
 1954TIP3   OH227496   6.444   1.366   7.011  0.2571  0.0434 -0.0094
 1954TIP3    H127497   6.455   1.451   6.970  0.0982  0.2100  0.2906
 1954TIP3    H227498   6.431   1.305   6.938  0.2052  0.3002 -0.2151
 1955TIP3   OH227499   0.948   0.303   0.987  0.5501  0.4596 -0.2892
 1955TIP3    H127500   1.039   0.308   1.015  0.5853  3.7284 -0.5210
 1955TIP3    H227501   0.903   0.369   1.040 -1.3821 -0.0541 -1.1757
 1956TIP3   OH227502   3.117   3.422   1.614 -0.0468 -0.7180  0.3288
 1956TIP3    H127503   3.206   3.395   1.640 -0.5585 -2.5561  0.3413
 1956TIP3    H227504   3.070   3.432   1.697 -0.0865 -0.6513  0.2975
 1957TIP3   OH227505   6.411   5.876   8.884 -0.2735  0.1308  0.0036
 1957TIP3    H127506   6.398   5.785   8.856 -0.0681  0.3480 -0.8094
 1957TIP3    H227507   6.468   5.869   8.961  0.6932 -0.3678 -0.7346
 1958TIP3   OH227508   1.536   0.114   1.724 -0.0897 -0.1043  0.3613
 1958TIP3    H127509   1.536   0.185   1.788  0.7739  0.2581 -0.0241
 1958TIP3    H227510   1.628   0.086   1.720 -0.5060 -1.7022  0.9972
 1959TIP3   OH227511   1.961   4.960   1.401  0.1469  0.1753  0.0512
 1959TIP3    H127512   1.904   4.951   1.324  0.5637  2.7306 -0.6524
 1959TIP3    H227513   1.902   4.961   1.476 -0.3441 -1.3813 -0.2862
 1960TIP3   OH227514   1.677   6.629   0.762 -0.4210  0.8366 -0.2410
 1960TIP3    H127515   1.689   6.657   0.853  0.7092 -0.1533 -0.0540
 1960TIP3    H227516   1.764   6.639   0.723 -1.4043  3.7803 -2.0018
 1961TIP3   OH227517   3.405   6.493   8.002  0.2890 -0.2149 -0.2012
 1961TIP3    H127518   3.462   6.476   7.927  0.9127  2.6171 -0.4947
 1961TIP3    H227519   3.465   6.516   8.073 -0.3840 -0.6829  0.5350
 1962TIP3   OH227520   2.543   4.334   8.819 -0.2077 -0.3100  0.3820
 1962TIP3    H127521   2.505   4.352   8.733  1.1300  2.2779  0.2212
 1962TIP3    H227522   2.496   4.392   8.879 -0.0012 -0.8798  1.1106
 1963TIP3   OH227523   6.184   2.081   0.614 -0.6341  0.6067 -0.0024
 1963TIP3    H127524   6.195   1.998   0.661 -4.1600  0.1941  0.3445
 1963TIP3    H227525   6.195   2.057   0.522  1.2839  0.4014  0.2473
 1964TIP3   OH227526   6.362   1.424   0.759 -0.1450 -0.4517  0.0533
 1964TIP3    H127527   6.328   1.401   0.672  0.9363  1.8901 -1.0688
 1964TIP3    H227528   6.417   1.350   0.783 -0.9885 -1.4454 -0.9297
 1965TIP3   OH227529   0.072   3.598   8.168 -0.2357  0.0403  0.7545
 1965TIP3    H127530   0.044   3.689   8.160  1.4413  0.4210 -2.4878
 1965TIP3    H227531   0.044   3.557   8.087 -0.4429 -2.2429  1.8902
 1966TIP3   OH227532   3.177   1.962   8.471  0.1380  0.0052  1.2119
 1966TIP3    H127533   3.152   2.052   8.451  0.7014 -0.1118 -0.0728
 1966TIP3    H227534   3.107   1.908   8.434  1.1189 -0.2053 -0.4169
 1967TIP3   OH227535   0.024   2.383   1.542 -0.0048  0.3609 -0.6235
 1967TIP3    H127536  -0.031   2.418   1.612  0.4723  0.9316 -0.5233
 1967TIP3    H227537  -0.035   2.329   1.489 -0.0799 -1.3271  1.0683
 1968TIP3   OH227538   3.185   6.122   0.232 -0.3923 -0.0187  0.0658
 1968TIP3    H127539   3.167   6.105   0.324 -0.5114  0.1515  0.0726
 1968TIP3    H227540   3.185   6.217   0.224  1.2425  0.0248  0.2218
 1969TIP3   OH227541   5.888   4.168   7.334 -0.2273  0.2864 -0.3423
 1969TIP3    H127542   5.918   4.078   7.349 -2.6245 -1.3019 -3.9183
 1969TIP3    H227543   5.816   4.180   7.396  0.3142 -0.1058  0.3775
 1970TIP3   OH227544   3.198   2.127   1.541 -0.1680  0.1645  0.2820
 1970TIP3    H127545   3.123   2.075   1.571  0.6126 -0.2358  1.5835
 1970TIP3    H227546   3.261   2.063   1.510 -0.5970  0.5301 -1.5117
 1971TIP3   OH227547   1.952   5.183   8.161  0.8163 -0.7125  0.5273
 1971TIP3    H127548   1.983   5.141   8.081  0.4831 -0.5349  0.3059
 1971TIP3    H227549   2.023   5.241   8.187  0.1175  0.7893 -0.7675
 1972TIP3   OH227550   4.627   0.925   7.932 -0.3891  0.0357  0.2314
 1972TIP3    H127551   4.675   0.854   7.974  0.5865  0.5174 -0.0172
 1972TIP3    H227552   4.684   1.002   7.942 -1.1002  0.6273 -0.1067
 1973TIP3   OH227553   5.348   6.003   0.664  0.3295  0.2309 -0.4447
 1973TIP3    H127554   5.293   6.001   0.586  0.2844 -0.7860 -0.4043
 1973TIP3    H227555   5.432   5.967   0.635  0.1681 -0.5867  0.0667
 1974TIP3   OH227556   6.336   3.042   1.483  0.0661 -0.2672 -0.5170
 1974TIP3    H127557   6.258   3.085   1.517  0.0627 -1.6905  1.4237
 1974TIP3    H227558   6.392   3.114   1.454 -0.6488  0.9592  0.9843
 1975TIP3   OH227559   2.531   3.055   0.047 -0.1321  0.1308 -0.0941
 1975TIP3    H127560   2.557   3.115  -0.024  0.8614 -0.7645 -0.5129
 1975TIP3    H227561   2.551   3.104   0.127 -3.2933  2.0579 -0.3018
 1976TIP3   OH227562   4.379   2.792   8.508 -0.1069 -0.1133  0.0344
 1976TIP3    H127563   4.451   2.817   8.450 -0.1369  1.2037  0.5203
 1976TIP3    H227564   4.304   2.844   8.477 -1.1662 -2.1790 -1.0907
 1977TIP3   OH227565   3.430   2.731   8.903  0.2096  0.0320 -0.1479
 1977TIP3    H127566   3.392   2.660   8.956  0.7194 -0.0455  0.1275
 1977TIP3    H227567   3.473   2.787   8.968 -0.8499  1.0237 -0.2808
 1978TIP3   OH227568   1.240   3.761   8.048  0.4230 -0.3217 -0.0851
 1978TIP3    H127569   1.185   3.837   8.030  1.7947  1.0021  1.0526
 1978TIP3    H227570   1.186   3.705   8.104  0.1795  0.8885  0.9203
 1979TIP3   OH227571   2.025   4.071   0.760 -0.1401  0.1026  0.8963
 1979TIP3    H127572   2.099   4.092   0.817  0.7459 -0.9190  0.1782
 1979TIP3    H227573   2.053   4.101   0.673 -0.7973  0.1661  0.6973
 1980TIP3   OH227574   3.094   3.102   8.600 -0.1303  0.1130 -1.2434
 1980TIP3    H127575   3.048   3.018   8.609 -0.1409  0.0729 -1.6499
 1980TIP3    H227576   3.107   3.112   8.506 -0.2277  0.6256 -1.2032
 1981TIP3   OH227577   1.339   1.856   0.714  0.2148  0.0292 -0.1654
 1981TIP3    H127578   1.263   1.822   0.762 -0.9641 -0.9866 -2.5865
 1981TIP3    H227579   1.334   1.950   0.725  0.2615 -0.1777  2.0277
 1982TIP3   OH227580   0.426   5.849   2.060  0.0784  0.5100  0.1585
 1982TIP3    H127581   0.456   5.931   2.099  1.7248 -0.0602  0.1897
 1982TIP3    H227582   0.421   5.788   2.134 -0.0475  0.2917 -0.0279
 1983TIP3   OH227583   3.695   0.803   7.023 -0.1950  0.0112  0.0460
 1983TIP3    H127584   3.613   0.821   6.978 -0.9567  0.0004  1.3706
 1983TIP3    H227585   3.693   0.709   7.040  0.9868 -0.3324 -1.5683
 1984TIP3   OH227586   3.716   4.360   1.517 -0.4085  0.4375 -0.3563
 1984TIP3    H127587   3.732   4.319   1.602  0.1570  2.0638  0.3492
 1984TIP3    H227588   3.752   4.448   1.525  0.9769  0.1936 -2.7482
 1985TIP3   OH227589   4.434   1.794   2.239  0.0199 -0.1391  0.5704
 1985TIP3    H127590   4.492   1.848   2.185 -2.3083  1.0602 -0.8619
 1985TIP3    H227591   4.411   1.850   2.313 -1.5739  0.5419 -0.3863
 1986TIP3   OH227592   0.431   5.507   0.608 -0.2959  0.1869 -0.7355
 1986TIP3    H127593   0.433   5.486   0.515  2.5667 -1.0050 -0.5177
 1986TIP3    H227594   0.510   5.561   0.622 -0.2774 -0.2495  1.0874
 1987TIP3   OH227595   3.737   1.899   6.457  0.0867 -0.5606 -0.3073
 1987TIP3    H127596   3.660   1.863   6.414  1.2947 -1.7636 -1.5635
 1987TIP3    H227597   3.810   1.874   6.401  1.4059  0.6052  0.8001
 1988TIP3   OH227598   3.862   2.134   7.995 -0.1928  0.1076  0.3723
 1988TIP3    H127599   3.776   2.175   8.007 -0.4730 -0.1346 -0.7386
 1988TIP3    H227600   3.917   2.175   8.062 -1.3511 -0.2971  1.6361
 1989TIP3   OH227601   6.530   4.248   1.537  0.1955  0.2707  0.8863
 1989TIP3    H127602   6.526   4.155   1.559 -0.1250  0.0329 -0.1081
 1989TIP3    H227603   6.620   4.263   1.510  0.2466  0.2462  1.0462
 1990TIP3   OH227604   1.034   5.600   0.912 -0.1296 -0.0537  0.1516
 1990TIP3    H127605   1.051   5.522   0.964  0.0928 -0.9702 -1.2219
 1990TIP3    H227606   0.941   5.618   0.926  0.2645  0.6880  2.0713
 1991TIP3   OH227607   5.518   5.934   1.254  0.1097  0.2210 -0.5312
 1991TIP3    H127608   5.437   5.982   1.241 -0.0821  0.5569  1.6694
 1991TIP3    H227609   5.501   5.876   1.328  0.6799 -2.5396 -2.3720
 1992TIP3   OH227610   5.978   3.133   1.822 -0.1251  0.3214  0.1290
 1992TIP3    H127611   5.906   3.090   1.776  0.5095  1.1638 -1.7478
 1992TIP3    H227612   5.952   3.132   1.914 -1.9645 -0.4695 -0.3640
 1993TIP3   OH227613   3.528   2.771   1.617 -0.3785  0.0233  0.2834
 1993TIP3    H127614   3.575   2.688   1.619 -1.6986 -0.7362  0.5447
 1993TIP3    H227615   3.537   2.802   1.526 -2.7293 -2.1266 -0.8028
 1994TIP3   OH227616   0.256   4.681   7.535 -0.0371  0.4562 -0.5841
 1994TIP3    H127617   0.188   4.622   7.567  1.8450 -2.4688 -1.5598
 1994TIP3    H227618   0.263   4.749   7.602 -2.4941 -0.2627  0.4960
 1995TIP3   OH227619   3.663   1.321   7.398 -0.2749  0.5833 -0.0092
 1995TIP3    H127620   3.711   1.329   7.480  0.5173 -0.2180 -0.3789
 1995TIP3    H227621   3.634   1.230   7.396  0.4937  0.3530 -1.0347
 1996TIP3   OH227622   2.587   1.815   0.866 -0.3238  0.4650  0.0380
 1996TIP3    H127623   2.495   1.799   0.846 -1.1421 -0.6452  3.9242
 1996TIP3    H227624   2.627   1.728   0.868  0.2723  0.7475  0.6294
 1997TIP3   OH227625   3.938   0.429   6.136  0.0108  0.3101 -0.1743
 1997TIP3    H127626   3.856   0.406   6.178  0.4866  2.1418  1.9331
 1997TIP3    H227627   3.946   0.524   6.148  1.5257  0.4948 -2.0335
 1998TIP3   OH227628   4.256   1.834   1.268  0.1674 -0.2234  0.6533
 1998TIP3    H127629   4.191   1.874   1.325  1.4786  2.8609  0.1788
 1998TIP3    H227630   4.334   1.825   1.324  0.4460 -0.3636  0.2444
 1999TIP3   OH227631   3.864   4.685   0.801 -0.2194  0.4121  0.2336
 1999TIP3    H127632   3.818   4.716   0.723  1.9874 -0.4738 -1.5055
 1999TIP3    H227633   3.821   4.603   0.823 -1.4335  1.1025  0.5304
 2000TIP3   OH227634   0.861   5.076   1.183 -0.3823  0.0631 -0.0251
 2000TIP3    H127635   0.955   5.092   1.196 -0.6182  1.0445  0.5532
 2000TIP3    H227636   0.825   5.076   1.271 -0.9870  0.0667 -0.2695
 2001TIP3   OH227637   5.542   4.448   8.505  0.1349 -0.3650 -0.7245
 2001TIP3    H127638   5.477   4.389   8.465 -1.3869 -0.1687  1.3073
 2001TIP3    H227639   5.516   4.535   8.474  1.0943 -0.5259 -2.0383
 2002TIP3   OH227640   2.996   6.505   8.592 -0.4453  0.4199 -0.3121
 2002TIP3    H127641   3.012   6.475   8.503 -0.0017  0.0054 -0.0948
 2002TIP3    H227642   3.024   6.596   8.593  1.6080 -0.1812 -0.0305
 2003TIP3   OH227643   4.265   1.602   0.780  0.1457 -0.0501 -0.4424
 2003TIP3    H127644   4.264   1.527   0.840 -0.0331  0.1559 -0.1831
 2003TIP3    H227645   4.210   1.668   0.823  0.2525  0.2077 -0.6955
 2004TIP3   OH227646   1.435   2.737   0.132  0.0031 -0.0773  0.0798
 2004TIP3    H127647   1.386   2.820   0.130 -2.7719 -1.5775  1.0371
 2004TIP3    H227648   1.522   2.762   0.165 -0.2157  2.6411 -1.0801
 2005TIP3   OH227649   0.315   6.601   0.427  0.1583 -0.3933 -0.2834
 2005TIP3    H127650   0.292   6.633   0.340 -1.4042 -0.7072 -0.0004
 2005TIP3    H227651   0.360   6.676   0.468 -2.2650  1.0728 -0.1025
 2006TIP3   OH227652   5.297   2.581   8.957 -0.0609  0.1675  0.1900
 2006TIP3    H127653   5.361   2.652   8.953 -0.4054  0.5248  0.8483
 2006TIP3    H227654   5.338   2.509   8.910  0.4763  0.6595 -0.1109
 2007TIP3   OH227655   3.318   0.340   8.070 -0.1804  0.4247 -0.4049
 2007TIP3    H127656   3.329   0.247   8.051 -0.8741  0.6587 -2.0588
 2007TIP3    H227657   3.226   0.348   8.096  0.5546  0.2233  2.7365
 2008TIP3   OH227658   0.554   6.536   7.128 -0.3479  0.4736 -0.6716
 2008TIP3    H127659   0.578   6.459   7.076  1.1425  0.8074 -0.5192
 2008TIP3    H227660   0.531   6.500   7.214  0.4601  0.1828 -0.5612
 2009TIP3   OH227661   5.867   2.020   1.557 -0.0010 -0.4387  0.1806
 2009TIP3    H127662   5.961   2.001   1.550  0.1511  0.3792 -0.0856
 2009TIP3    H227663   5.846   1.998   1.648  0.9784  1.5381  0.9382
 2010TIP3   OH227664   2.664   0.045   6.297  0.3062 -0.1026 -0.3383
 2010TIP3    H127665   2.710  -0.014   6.237  0.3464 -0.1877 -0.2246
 2010TIP3    H227666   2.586  -0.003   6.324 -0.3542  0.4193 -1.2790
 2011TIP3   OH227667   5.086   4.321   2.594 -0.0565 -0.2785  0.0821
 2011TIP3    H127668   5.145   4.320   2.670  1.1405 -1.0516 -0.8217
 2011TIP3    H227669   5.010   4.371   2.624  0.7929  0.2427  1.4794
 2012TIP3   OH227670   4.631   4.068   1.019  0.4666  0.5201  0.8453
 2012TIP3    H127671   4.663   3.991   1.065 -0.9875 -0.1623  0.7566
 2012TIP3    H227672   4.630   4.137   1.085 -1.1889 -0.3397  1.7850
 2013TIP3   OH227673   4.030   5.018   7.839 -0.1334  0.0649  0.6189
 2013TIP3    H127674   4.063   4.955   7.902 -0.9072  1.0568  2.0901
 2013TIP3    H227675   4.099   5.084   7.831  0.2275 -0.3862 -0.0865
 2014TIP3   OH227676   1.915   4.386   8.243  0.1124 -0.4816  0.1690
 2014TIP3    H127677   1.957   4.445   8.181 -0.1938 -1.2502 -0.7863
 2014TIP3    H227678   1.890   4.442   8.317 -0.4469  0.6448 -0.8474
 2015TIP3   OH227679   3.310   6.586   6.548 -0.0861  0.0434 -0.2690
 2015TIP3    H127680   3.252   6.560   6.477  0.5289  0.1322 -0.8116
 2015TIP3    H227681   3.252   6.608   6.620 -0.7949  1.3463 -1.2024
 2016TIP3   OH227682   3.383   1.613   2.364  0.3695 -0.4389  0.3731
 2016TIP3    H127683   3.357   1.599   2.273 -1.5026  0.8674  0.6513
 2016TIP3    H227684   3.325   1.556   2.415 -0.9466  1.2899  0.9066
 2017TIP3   OH227685   0.449   0.826   1.152 -0.1761 -0.8515  0.1187
 2017TIP3    H127686   0.516   0.891   1.171  0.4785 -0.9703 -1.5975
 2017TIP3    H227687   0.478   0.784   1.071 -1.4412 -2.1146  0.2767
 2018TIP3   OH227688   1.714   4.181   7.328 -0.9183  0.0195 -0.4539
 2018TIP3    H127689   1.793   4.141   7.364 -1.6444 -2.5231 -1.4787
 2018TIP3    H227690   1.730   4.185   7.234 -1.4892  0.7724 -0.5292
 2019TIP3   OH227691   4.809   1.297   7.413  0.5085 -0.0214 -0.3177
 2019TIP3    H127692   4.821   1.392   7.409 -1.6670  0.2680 -1.0641
 2019TIP3    H227693   4.874   1.262   7.351  2.7988  0.7365  1.4923
 2020TIP3   OH227694   5.418   5.905   1.827  0.4864 -0.0772 -0.5031
 2020TIP3    H127695   5.422   5.969   1.756 -2.2701  0.3956 -0.3460
 2020TIP3    H227696   5.472   5.942   1.896 -1.0107  2.1643 -0.4272
 2021TIP3   OH227697   0.319   1.955   7.472  0.7670  0.2681  0.4430
 2021TIP3    H127698   0.317   1.907   7.389 -0.5048  1.3345 -0.1861
 2021TIP3    H227699   0.232   1.993   7.479  1.7912  2.7334  0.7470
 2022TIP3   OH227700   1.391   4.360   8.979 -0.3441 -0.7703  0.4341
 2022TIP3    H127701   1.478   4.390   8.951 -0.2685 -1.8776 -0.6034
 2022TIP3    H227702   1.340   4.357   8.898 -0.9020 -1.5581  0.8050
 2023TIP3   OH227703   6.592   5.581   0.753 -0.0094  0.0239  0.7037
 2023TIP3    H127704   6.544   5.630   0.686  0.5062 -0.5729 -0.1320
 2023TIP3    H227705   6.667   5.637   0.774  0.7318 -0.4855 -0.4532
 2024TIP3   OH227706   6.687   0.159   7.486 -0.3578  0.3381  0.8777
 2024TIP3    H127707   6.723   0.245   7.464 -0.7371  0.1971 -0.3269
 2024TIP3    H227708   6.748   0.124   7.551  1.2227  0.4532 -0.4866
 2025TIP3   OH227709   3.628   2.484   8.443 -0.2529  0.0267 -0.2983
 2025TIP3    H127710   3.660   2.434   8.518  3.0906  2.4907  0.1900
 2025TIP3    H227711   3.625   2.574   8.475 -0.4190  0.9226 -2.6367
 2026TIP3   OH227712   3.249   5.951   8.461  0.0317 -1.0520  0.4777
 2026TIP3    H127713   3.214   5.948   8.372  0.6292 -2.1792  0.2656
 2026TIP3    H227714   3.328   6.003   8.453 -1.0765  0.7719  0.7991
 2027TIP3   OH227715   6.673   0.757   0.581  0.3416 -0.3640  0.1500
 2027TIP3    H127716   6.655   0.745   0.488 -0.6843 -1.1623  0.4331
 2027TIP3    H227717   6.753   0.707   0.596  1.0899  0.6051 -0.4889
 2028TIP3   OH227718   2.889   1.019   6.204  0.1149 -0.4679 -0.0173
 2028TIP3    H127719   2.849   0.935   6.224  0.2389 -1.2024 -2.4778
 2028TIP3    H227720   2.854   1.079   6.269 -2.6919 -1.6938 -0.2571
 2029TIP3   OH227721   5.914   6.606   2.283  0.2718 -0.2477 -0.2131
 2029TIP3    H127722   5.985   6.607   2.347 -0.4172  1.1619  0.5783
 2029TIP3    H227723   5.863   6.528   2.305 -1.2615  1.3740  2.5349
 2030TIP3   OH227724   4.003   0.437   1.598 -0.5847 -0.5621  0.1309
 2030TIP3    H127725   4.080   0.450   1.544 -0.6658  0.5866  0.2524
 2030TIP3    H227726   3.969   0.526   1.612 -0.7983 -0.8643  1.7062
 2031TIP3   OH227727   2.040   1.607   7.728 -0.1231  0.9127 -0.0486
 2031TIP3    H127728   1.998   1.645   7.805  0.3220  1.8697 -0.2521
 2031TIP3    H227729   2.093   1.535   7.762  0.4327  1.6185  0.6113
 2032TIP3   OH227730   4.407   3.512   0.244  0.2977 -0.0651  0.3959
 2032TIP3    H127731   4.315   3.488   0.236  0.2514  0.6858 -2.2777
 2032TIP3    H227732   4.423   3.516   0.339 -2.1893 -0.9131  0.9270
 2033TIP3   OH227733   5.753   1.645   0.569  0.5652  0.2390 -0.1279
 2033TIP3    H127734   5.733   1.717   0.509  0.3714  0.2072 -0.1023
 2033TIP3    H227735   5.709   1.569   0.530  0.7251  0.1455 -0.1277
 2034TIP3   OH227736   3.301   5.458   0.513 -0.3962  0.0837  0.5834
 2034TIP3    H127737   3.295   5.551   0.537 -0.4932  0.8096 -1.9678
 2034TIP3    H227738   3.240   5.415   0.573  0.0368  1.5444  2.1892
 2035TIP3   OH227739   3.045   1.073   1.140  0.2491 -0.0611  0.1265
 2035TIP3    H127740   2.990   1.000   1.169  2.3957 -1.3633  1.1605
 2035TIP3    H227741   3.100   1.093   1.216  0.5236  1.8504 -0.5384
 2036TIP3   OH227742   0.953   0.345   6.587  0.0957 -0.7614 -0.3743
 2036TIP3    H127743   1.048   0.344   6.588  0.1046 -0.1340 -0.0636
 2036TIP3    H227744   0.930   0.416   6.527 -0.1447  0.9670  1.6671
 2037TIP3   OH227745   2.233   6.670   6.561 -0.0538 -0.4494 -0.1940
 2037TIP3    H127746   2.170   6.598   6.562  2.0653 -2.4925 -1.8136
 2037TIP3    H227747   2.284   6.657   6.641  1.3688 -1.8604 -1.2633
 2038TIP3   OH227748   1.446   0.568   8.891  0.1872 -0.0390 -0.7898
 2038TIP3    H127749   1.461   0.611   8.807 -0.0144 -1.1746 -1.4346
 2038TIP3    H227750   1.357   0.594   8.916  0.1633  0.1121 -1.0348
 2039TIP3   OH227751   4.222   4.583   7.928 -0.2762  0.5824  0.0437
 2039TIP3    H127752   4.316   4.574   7.938 -0.1873  0.4368 -0.8147
 2039TIP3    H227753   4.210   4.658   7.870 -0.6485  0.1828 -0.4161
 2040TIP3   OH227754   6.530   4.227   8.329  0.2336  0.3916 -0.1420
 2040TIP3    H127755   6.515   4.317   8.301  0.7663  1.5610  2.8954
 2040TIP3    H227756   6.478   4.218   8.409  2.9845 -0.7124  1.6674
 2041TIP3   OH227757   5.870   1.698   0.177  0.1933  0.2654  0.4229
 2041TIP3    H127758   5.799   1.641   0.148  0.7080 -0.3598  0.3852
 2041TIP3    H227759   5.828   1.758   0.240  0.0551 -1.5370  2.1443
 2042TIP3   OH227760   0.103   3.740   1.118  0.7496  0.1470 -0.3038
 2042TIP3    H127761   0.117   3.645   1.122 -0.7195 -0.1713 -1.7270
 2042TIP3    H227762   0.166   3.771   1.052  1.4406  0.2237  0.3814
 2043TIP3   OH227763   6.095   2.317   0.483  0.2179  0.2182  0.7097
 2043TIP3    H127764   6.169   2.377   0.486  3.0548 -2.9438  0.0004
 2043TIP3    H227765   6.121   2.243   0.537 -1.3062 -2.1026 -1.4673
 2044TIP3   OH227766   3.304   6.330   1.634  0.3462  0.8363  0.2603
 2044TIP3    H127767   3.392   6.303   1.608 -0.1906 -0.7056 -0.0841
 2044TIP3    H227768   3.294   6.299   1.724 -0.7247 -1.4114 -0.5546
 2045TIP3   OH227769   4.971   4.880   0.873  0.1307  0.6372  0.6150
 2045TIP3    H127770   5.005   4.926   0.796  2.5855  0.7402  1.6818
 2045TIP3    H227771   4.969   4.788   0.846 -0.0816  0.7895  0.0857
 2046TIP3   OH227772   2.941   5.615   0.330 -0.4690  0.5996 -0.0712
 2046TIP3    H127773   2.897   5.530   0.323 -0.0148  0.3552 -0.0289
 2046TIP3    H227774   2.888   5.674   0.276 -0.1930  0.0385 -0.9843
 2047TIP3   OH227775   0.843   0.601   1.864 -0.4179 -0.9290  0.0043
 2047TIP3    H127776   0.765   0.611   1.919 -1.5645  2.4366 -1.9999
 2047TIP3    H227777   0.916   0.595   1.927 -1.8530  0.5513  1.9147
 2048TIP3   OH227778   1.089   0.380   7.551  0.1077  0.0854  0.2406
 2048TIP3    H127779   1.010   0.415   7.594  0.0649 -0.6757  0.7921
 2048TIP3    H227780   1.161   0.408   7.608  0.1190 -0.2975  0.4132
 2049TIP3   OH227781   1.846   3.081   7.637 -0.1681  0.2733  0.2175
 2049TIP3    H127782   1.930   3.085   7.592  0.2405  0.9729  1.0017
 2049TIP3    H227783   1.823   3.173   7.653 -1.4651  0.1332 -0.6537
 2050TIP3   OH227784   5.116   1.574   0.266 -0.1175 -0.8821  0.4344
 2050TIP3    H127785   5.106   1.507   0.199  0.8790 -0.4783 -0.1386
 2050TIP3    H227786   5.031   1.618   0.270 -0.1464 -0.8289 -0.6568
 2051TIP3   OH227787   6.403   1.305   8.585 -0.1674 -0.0758  0.2931
 2051TIP3    H127788   6.325   1.268   8.628 -0.5018  0.6030  0.2829
 2051TIP3    H227789   6.447   1.354   8.655  1.7085 -2.5966  1.0131
 2052TIP3   OH227790   2.805   5.038   0.243 -0.1772 -0.1221  0.4745
 2052TIP3    H127791   2.839   4.986   0.316  1.4619  0.1972 -0.0335
 2052TIP3    H227792   2.754   4.976   0.191  0.2719 -0.7981  0.8318
 2053TIP3   OH227793   2.198   2.650   0.115 -0.0698 -0.0916  0.3414
 2053TIP3    H127794   2.235   2.738   0.118 -0.4752  0.2340 -2.1450
 2053TIP3    H227795   2.104   2.664   0.108 -0.0943 -0.6760 -0.6521
 2054TIP3   OH227796   6.055   1.442   8.899  1.1438 -0.1795  0.1486
 2054TIP3    H127797   5.960   1.444   8.912  1.2526  1.7730  0.9845
 2054TIP3    H227798   6.091   1.471   8.982  2.3924  0.8938 -0.7295
 2055TIP3   OH227799   4.176   5.044   1.634  0.0414 -0.2650 -0.5855
 2055TIP3    H127800   4.084   5.069   1.642 -0.2776 -1.8764  1.9856
 2055TIP3    H227801   4.209   5.047   1.723  1.8836 -1.8348 -1.1433
 2056TIP3   OH227802   6.146   5.973   8.882 -0.6476 -0.2457  0.1367
 2056TIP3    H127803   6.087   5.960   8.956 -1.6321 -0.6650 -0.6819
 2056TIP3    H227804   6.233   5.957   8.916 -1.2329 -2.3109  0.7873
 2057TIP3   OH227805   1.105   0.583   6.338 -0.0952  0.0295 -0.0589
 2057TIP3    H127806   1.136   0.512   6.395 -1.3298  0.7647  1.5890
 2057TIP3    H227807   1.183   0.609   6.289  0.6624 -1.6313  0.1826
 2058TIP3   OH227808   6.552   5.776   0.122 -1.0210  0.0078  0.2884
 2058TIP3    H127809   6.521   5.694   0.162 -0.8569 -0.0723  0.2538
 2058TIP3    H227810   6.629   5.800   0.174 -0.8753 -0.0355  0.0907
 2059TIP3   OH227811   1.488   6.468   1.830  0.0265  0.0570  0.0148
 2059TIP3    H127812   1.542   6.441   1.755  0.4662 -0.6063  0.5682
 2059TIP3    H227813   1.547   6.467   1.904 -0.4753  0.4635  0.4286
 2060TIP3   OH227814   6.586   1.604   8.140  0.0371  0.3070 -0.2721
 2060TIP3    H127815   6.590   1.700   8.143 -0.8564  0.3800 -0.9747
 2060TIP3    H227816   6.601   1.576   8.230  1.2339  1.0584 -0.2053
 2061TIP3   OH227817   5.190   4.717   7.545 -0.3352 -0.1431  0.0292
 2061TIP3    H127818   5.181   4.699   7.451 -0.9932 -0.6331  0.1793
 2061TIP3    H227819   5.213   4.810   7.549 -0.1146 -0.1607 -0.6231
 2062TIP3   OH227820   2.872   6.568   1.255 -0.2925  0.2240  0.2165
 2062TIP3    H127821   2.950   6.622   1.262 -0.7809  1.1239 -0.7746
 2062TIP3    H227822   2.861   6.528   1.341  1.1064  0.2763  0.4326
 2063TIP3   OH227823   4.441   5.343   1.926  0.4360 -0.0914  0.2665
 2063TIP3    H127824   4.418   5.371   2.015 -1.8713 -0.9675  0.0251
 2063TIP3    H227825   4.465   5.423   1.881  0.1627  0.5839  1.2817
 2064TIP3   OH227826   5.242   5.536   7.252  0.0536 -0.1531 -0.6492
 2064TIP3    H127827   5.190   5.591   7.311  1.6562 -0.3279  0.9979
 2064TIP3    H227828   5.219   5.447   7.276 -0.4373 -0.2263 -1.3734
 2065TIP3   OH227829   5.862   3.868   1.265 -0.6569 -0.1276  0.4026
 2065TIP3    H127830   5.846   3.907   1.179  2.4362  3.2483  1.0856
 2065TIP3    H227831   5.916   3.791   1.246 -0.1719  0.4545 -0.7439
 2066TIP3   OH227832   0.250   0.665   8.979 -0.3743 -0.2981  0.5215
 2066TIP3    H127833   0.338   0.628   8.974 -0.3118  0.0154 -1.9497
 2066TIP3    H227834   0.264   0.756   9.006  0.0832 -0.2264  0.0621
 2067TIP3   OH227835   6.178   1.046   1.719  0.0236  0.0903  0.5866
 2067TIP3    H127836   6.097   1.002   1.747 -0.0620  0.0618  0.2949
 2067TIP3    H227837   6.149   1.128   1.681  0.0692 -0.2586 -0.2191
 2068TIP3   OH227838   0.583   2.674   7.672 -0.5705  0.3158  0.1113
 2068TIP3    H127839   0.499   2.647   7.709 -0.5379  0.5742  0.3805
 2068TIP3    H227840   0.640   2.598   7.681 -0.8057  0.1055 -0.1643
 2069TIP3   OH227841   0.946   4.497   7.640  0.4156  0.1677  0.2318
 2069TIP3    H127842   1.033   4.538   7.640  0.3527  0.4047 -2.0996
 2069TIP3    H227843   0.900   4.542   7.711  1.5943  1.3657  0.2985
 2070TIP3   OH227844   6.332   2.915   8.649  0.0814 -0.1047  0.5948
 2070TIP3    H127845   6.369   2.950   8.568  2.1526 -0.0601  1.4952
 2070TIP3    H227846   6.257   2.970   8.667  0.7224  1.1028 -0.3089
 2071TIP3   OH227847   5.825   3.791   0.602 -0.1550 -0.0076 -0.2769
 2071TIP3    H127848   5.875   3.710   0.588 -0.6589 -0.1444 -1.4104
 2071TIP3    H227849   5.854   3.823   0.687  2.3798  0.2910 -1.1749
 2072TIP3   OH227850   5.165   6.575   1.720 -0.3505 -0.1233 -0.1158
 2072TIP3    H127851   5.233   6.611   1.663  1.5319 -0.9459  1.5035
 2072TIP3    H227852   5.168   6.630   1.799 -0.2766 -1.2626  0.7030
 2073TIP3   OH227853   5.193   1.104   8.423  0.6468 -0.0760  0.4197
 2073TIP3    H127854   5.223   1.033   8.366 -1.2643 -1.1882  0.7213
 2073TIP3    H227855   5.158   1.170   8.363  1.7793  0.3493  0.1814
 2074TIP3   OH227856   6.173   3.857   8.040  0.0385  0.7334  0.0038
 2074TIP3    H127857   6.233   3.783   8.041 -0.6285  0.1748  1.4484
 2074TIP3    H227858   6.090   3.820   8.011 -0.1397  1.0662  0.0847
 2075TIP3   OH227859   1.391   1.201   7.563 -0.3241 -0.6971 -0.1247
 2075TIP3    H127860   1.392   1.158   7.477 -0.5695 -1.2918  0.1694
 2075TIP3    H227861   1.476   1.178   7.601 -0.3638 -0.7240 -0.0552
 2076TIP3   OH227862   3.269   6.781   6.220 -0.1261 -0.1634  0.1037
 2076TIP3    H127863   3.357   6.788   6.182  0.1741 -1.5966  0.4776
 2076TIP3    H227864   3.262   6.689   6.247 -1.4787  0.1019  0.7223
 2077TIP3   OH227865   6.256   6.141   1.159  0.0219  0.0325  0.0423
 2077TIP3    H127866   6.345   6.113   1.181 -0.0586 -0.7347 -0.5445
 2077TIP3    H227867   6.220   6.175   1.241 -0.0490 -2.1159  0.9605
 2078TIP3   OH227868   4.483   4.158   7.913 -0.4182 -0.1198 -0.1860
 2078TIP3    H127869   4.388   4.171   7.919 -0.4964 -1.1105  1.1191
 2078TIP3    H227870   4.495   4.104   7.835 -0.7580  1.3250 -1.2829
 2079TIP3   OH227871   0.411   5.317   6.096  0.5579 -0.3916  0.2850
 2079TIP3    H127872   0.443   5.333   6.185  1.4220  0.2212 -0.1234
 2079TIP3    H227873   0.425   5.399   6.050 -0.1580 -0.6114 -0.3504
 2080TIP3   OH227874   2.912   1.280   2.142 -0.3643  0.1132  0.1891
 2080TIP3    H127875   2.990   1.333   2.157 -0.0512  0.1894 -1.4877
 2080TIP3    H227876   2.839   1.341   2.152 -0.4330 -0.3187  3.5603
 2081TIP3   OH227877   1.821   6.777   1.994 -0.3523 -0.2001 -0.2789
 2081TIP3    H127878   1.813   6.750   1.902  1.0304 -0.7072 -0.2636
 2081TIP3    H227879   1.855   6.700   2.038  1.3223  0.7871  0.2193
 2082TIP3   OH227880   4.283   3.766   1.763 -0.6553 -0.2746  0.8294
 2082TIP3    H127881   4.271   3.680   1.723  0.6605  0.0682 -0.3889
 2082TIP3    H227882   4.377   3.784   1.755 -0.9309  1.3703  0.8546
 2083TIP3   OH227883   1.402   6.701   1.561  0.1800 -0.7826  0.2891
 2083TIP3    H127884   1.448   6.767   1.613  0.0046 -0.7356  0.3845
 2083TIP3    H227885   1.309   6.715   1.581  0.1081 -0.7255 -0.0805
 2084TIP3   OH227886   6.308   3.681   1.743 -0.0971  0.2809 -0.4633
 2084TIP3    H127887   6.339   3.737   1.814  1.0273 -0.5932 -0.2345
 2084TIP3    H227888   6.356   3.712   1.666  1.1824 -0.8643 -0.1718
 2085TIP3   OH227889   5.572   3.113   0.017  0.1519 -0.4618  0.8535
 2085TIP3    H127890   5.547   3.201  -0.011  0.8861 -0.6010 -0.3278
 2085TIP3    H227891   5.560   3.113   0.112 -1.0125  0.5239  0.7271
 2086TIP3   OH227892   5.347   5.183   7.711  0.4052  0.2386  0.1972
 2086TIP3    H127893   5.301   5.266   7.696 -2.0177 -1.1432 -0.5283
 2086TIP3    H227894   5.309   5.149   7.792  0.7240 -0.5809  0.0109
 2087TIP3   OH227895   0.377   3.040   8.887  0.5860  0.5370 -0.7485
 2087TIP3    H127896   0.403   3.059   8.977 -0.4019  0.0250 -0.3472
 2087TIP3    H227897   0.285   3.066   8.883  0.3645 -0.3088 -1.3447
 2088TIP3   OH227898   3.318   1.715   6.606 -0.3646 -0.2341 -0.5889
 2088TIP3    H127899   3.257   1.735   6.535  2.0672  2.6080 -2.1089
 2088TIP3    H227900   3.366   1.639   6.575 -1.2584 -0.8058 -0.6165
 2089TIP3   OH227901   4.868   1.217   0.327  0.6884 -0.1823  0.2266
 2089TIP3    H127902   4.824   1.159   0.389 -0.5274 -1.5202 -1.8013
 2089TIP3    H227903   4.804   1.287   0.311  0.8290 -0.0816  0.1047
 2090TIP3   OH227904   2.109   0.782   7.884 -0.1334  0.5658  0.0370
 2090TIP3    H127905   2.165   0.728   7.941 -0.9390  1.4566  1.7520
 2090TIP3    H227906   2.032   0.728   7.869  1.4067 -1.0181 -3.0397
 2091TIP3   OH227907   2.334   6.215   8.837 -0.3315 -0.3813  0.0144
 2091TIP3    H127908   2.285   6.141   8.801 -0.3154 -0.2770 -0.2242
 2091TIP3    H227909   2.340   6.196   8.931  0.4023 -1.1026 -0.1685
 2092TIP3   OH227910   2.177   1.121   6.622  0.2022  0.6703  0.0012
 2092TIP3    H127911   2.116   1.190   6.595 -1.7212 -1.7171 -2.4068
 2092TIP3    H227912   2.195   1.140   6.714 -2.9945  2.4404  0.4398
 2093TIP3   OH227913   5.818   2.301   1.482  0.0899  0.5158  0.4763
 2093TIP3    H127914   5.814   2.213   1.521  2.0075 -0.2227 -0.8356
 2093TIP3    H227915   5.820   2.285   1.388  3.0722  1.7358  0.2300
 2094TIP3   OH227916   1.917   3.672   8.106  0.2653 -0.3831  0.0100
 2094TIP3    H127917   1.959   3.597   8.150 -1.1633 -1.1800  0.0896
 2094TIP3    H227918   1.863   3.632   8.038 -1.1141  0.5064  0.5418
 2095TIP3   OH227919   5.464   1.553   0.639 -0.3061 -0.4761  0.0896
 2095TIP3    H127920   5.377   1.553   0.599  0.2451 -0.7182 -1.1604
 2095TIP3    H227921   5.451   1.596   0.723 -1.1618  1.8430 -1.1217
 2096TIP3   OH227922   4.246   2.108   7.463  0.0425  0.2114  0.4756
 2096TIP3    H127923   4.282   2.051   7.532  1.0121 -0.8728 -0.8666
 2096TIP3    H227924   4.267   2.063   7.382 -0.9984  1.5106 -0.5561
 2097TIP3   OH227925   1.604   2.659   6.837  0.2934  0.2099  0.3125
 2097TIP3    H127926   1.695   2.631   6.841  0.4976  0.8536  0.3615
 2097TIP3    H227927   1.609   2.754   6.830 -0.3889  0.3764  1.6339
 2098TIP3   OH227928   0.750   4.868   8.601  0.4105  0.1769  0.6466
 2098TIP3    H127929   0.840   4.860   8.633  0.4778 -0.5981  0.2986
 2098TIP3    H227930   0.724   4.778   8.580 -1.0531  0.1514  2.3437
 2099TIP3   OH227931   2.614   5.833   6.405 -0.7000  0.6995  0.2807
 2099TIP3    H127932   2.660   5.901   6.356  0.1104 -0.6501 -0.9167
 2099TIP3    H227933   2.522   5.842   6.378 -0.4963  0.9077 -0.3490
 2100TIP3   OH227934   2.518   2.147   7.899  0.6679  1.1414  0.3372
 2100TIP3    H127935   2.491   2.163   7.989 -0.8080  3.7229 -0.4813
 2100TIP3    H227936   2.456   2.082   7.867 -1.3024  3.0515  0.0978
 2101TIP3   OH227937   2.790   0.337   6.811 -0.3479  0.3508  0.3485
 2101TIP3    H127938   2.801   0.410   6.751 -0.1196  0.9705  1.1315
 2101TIP3    H227939   2.705   0.352   6.853 -0.3479  0.1120  0.4354
 2102TIP3   OH227940   4.670   3.399   0.223 -0.3692 -0.2744  0.0804
 2102TIP3    H127941   4.686   3.371   0.133  0.5699  1.7692 -0.4433
 2102TIP3    H227942   4.582   3.436   0.222 -1.1767 -2.0567  0.5263
 2103TIP3   OH227943   0.585   4.699   8.100 -0.3583 -0.8236 -0.4442
 2103TIP3    H127944   0.548   4.679   8.013 -0.0638 -1.0034 -0.5299
 2103TIP3    H227945   0.611   4.791   8.094 -0.2527 -0.8611 -0.5794
 2104TIP3   OH227946   6.134   0.472   1.484 -0.6862 -0.5638 -0.1120
 2104TIP3    H127947   6.052   0.423   1.481 -0.9149 -0.3274  1.4347
 2104TIP3    H227948   6.187   0.434   1.414 -2.3423 -0.2669 -1.5973
 2105TIP3   OH227949   2.813   2.970   0.261  0.2080  0.0217  0.1228
 2105TIP3    H127950   2.820   2.890   0.313  4.8843 -1.1108 -1.7149
 2105TIP3    H227951   2.814   2.940   0.170  0.3839  2.1088 -0.6255
 2106TIP3   OH227952   6.785   4.049   7.630  0.4221 -0.1506  0.7071
 2106TIP3    H127953   6.803   3.989   7.702  2.3349 -0.3245  0.1354
 2106TIP3    H227954   6.840   4.019   7.559 -1.9257 -0.4094 -1.1348
 2107TIP3   OH227955   4.075   4.792   8.897  0.6831  0.2756  0.9912
 2107TIP3    H127956   4.077   4.697   8.898 -0.4010  0.2556  1.5580
 2107TIP3    H227957   4.129   4.816   8.821  0.2389 -0.8040  0.3234
 2108TIP3   OH227958   4.681   1.987   0.505 -0.2518  0.2786 -0.1524
 2108TIP3    H127959   4.773   1.990   0.480 -0.5792  2.4013 -1.3118
 2108TIP3    H227960   4.664   2.072   0.545 -1.5657 -0.3405  0.6990
 2109TIP3   OH227961   2.895   1.795   0.075  0.0130 -0.0880  0.3265
 2109TIP3    H127962   2.931   1.742   0.004  0.8348 -1.2875  1.5867
 2109TIP3    H227963   2.800   1.790   0.063  0.1024  2.5796 -2.6471
 2110TIP3   OH227964   1.223   4.694   1.204 -0.3277  0.4493  0.4856
 2110TIP3    H127965   1.192   4.611   1.169  2.3731  0.5511 -2.6473
 2110TIP3    H227966   1.235   4.750   1.127  0.1688  2.9664  2.2501
 2111TIP3   OH227967   1.715   6.298   0.367  0.0699 -0.6450 -0.2006
 2111TIP3    H127968   1.736   6.309   0.460 -0.3932 -0.2475 -0.1364
 2111TIP3    H227969   1.737   6.207   0.348  1.0721 -0.4698  0.0545
 2112TIP3   OH227970   4.844   0.247   8.645  0.0421  0.1488  0.3479
 2112TIP3    H127971   4.879   0.282   8.727  1.7218 -0.9605  0.1559
 2112TIP3    H227972   4.921   0.235   8.590 -0.8212 -1.0627 -0.6469
 2113TIP3   OH227973   6.367   3.468   8.554  0.6232  0.2828 -0.4121
 2113TIP3    H127974   6.416   3.385   8.555 -1.0785 -0.7878 -1.4458
 2113TIP3    H227975   6.285   3.449   8.598 -0.3362  1.0350 -1.7746
 2114TIP3   OH227976   1.093   3.177   1.261 -0.6065  0.5563  0.3367
 2114TIP3    H127977   1.011   3.133   1.283 -1.1644  1.4005 -0.0071
 2114TIP3    H227978   1.124   3.131   1.183 -0.3668 -0.2367  0.8820
 2115TIP3   OH227979   0.548   0.991   8.142 -0.5503 -0.1041  0.3194
 2115TIP3    H127980   0.625   0.952   8.184 -2.1179 -2.0982  1.5839
 2115TIP3    H227981   0.574   1.003   8.051  2.2044  2.1630  1.2668
 2116TIP3   OH227982   1.175   2.886   0.495 -0.2773  0.0144 -0.2641
 2116TIP3    H127983   1.226   2.967   0.485  0.2385 -0.0630  1.4487
 2116TIP3    H227984   1.151   2.885   0.587  2.3263 -3.2858  0.5600
 2117TIP3   OH227985   0.622   1.826   8.839 -0.4624 -0.5680  0.2798
 2117TIP3    H127986   0.646   1.737   8.814  0.4139 -0.3672  0.3717
 2117TIP3    H227987   0.681   1.847   8.910  0.9093  0.8947 -1.2071
 2118TIP3   OH227988   0.776   2.293   7.432  0.9136  0.4854 -0.8594
 2118TIP3    H127989   0.779   2.209   7.477 -0.1301  0.0256 -1.6011
 2118TIP3    H227990   0.866   2.310   7.405  1.1481 -0.3319 -0.6016
 2119TIP3   OH227991   6.266   1.382   2.515  0.3546  0.4805  0.6557
 2119TIP3    H127992   6.343   1.408   2.565  0.7607  1.9122 -0.6346
 2119TIP3    H227993   6.262   1.445   2.442 -1.0143 -0.6478 -0.3060
 2120TIP3   OH227994   3.922   0.272   1.145 -0.3094 -0.3381  0.1176
 2120TIP3    H127995   3.994   0.209   1.151  1.6588  1.7543 -0.2987
 2120TIP3    H227996   3.893   0.284   1.235  1.9269  0.9705  0.7462
 2121TIP3   OH227997   1.798   5.751   7.323  0.1253  0.2352 -0.1224
 2121TIP3    H127998   1.881   5.717   7.291  0.6118  0.4741  0.8440
 2121TIP3    H227999   1.785   5.833   7.275  0.1004 -0.1480 -0.7730
 2122TIP3   OH228000   1.369   4.550   0.388  0.3659 -0.1263 -0.9239
 2122TIP3    H128001   1.327   4.574   0.305  0.5210  0.5792 -0.7971
 2122TIP3    H228002   1.314   4.478   0.421  1.2054 -1.5377 -2.4070
 2123TIP3   OH228003   2.024   4.151   0.510  0.4933  0.4639  0.2748
 2123TIP3    H128004   1.949   4.201   0.477  0.3101 -0.1948 -0.3501
 2123TIP3    H228005   2.099   4.184   0.461 -0.0043 -1.5722 -2.0575
 2124TIP3   OH228006   1.298   4.154   6.133  0.0905 -0.4413  0.1339
 2124TIP3    H128007   1.220   4.099   6.121 -0.4115  0.1121  0.7823
 2124TIP3    H228008   1.353   4.133   6.058 -1.1210 -0.0988 -0.8959
 2125TIP3   OH228009   2.491   5.748   1.280  0.0228 -0.3800  0.2806
 2125TIP3    H128010   2.538   5.808   1.337 -0.3478  1.2305 -1.0266
 2125TIP3    H228011   2.560   5.698   1.236  0.5276  1.2605 -0.8781
 2126TIP3   OH228012   2.199   0.358   8.916  0.4015  0.1256  0.1830
 2126TIP3    H128013   2.108   0.342   8.941  0.0660  0.4599 -0.8148
 2126TIP3    H228014   2.250   0.314   8.985 -0.5059 -0.9877  0.1794
 2127TIP3   OH228015   2.599   0.978   7.593  0.1543  0.0200 -0.7050
 2127TIP3    H128016   2.518   1.000   7.547  0.3627 -0.7466 -1.4699
 2127TIP3    H228017   2.668   0.993   7.528  0.5771  0.1729 -0.2266
 2128TIP3   OH228018   0.168   4.318   0.259  0.2269  0.3721 -0.2119
 2128TIP3    H128019   0.229   4.292   0.190 -1.1142  1.5190 -1.8969
 2128TIP3    H228020   0.223   4.359   0.326  1.4123  0.4802 -1.2223
 2129TIP3   OH228021   4.450   0.512   1.566  0.2510  0.3422  0.5769
 2129TIP3    H128022   4.485   0.600   1.552  0.9559  0.0079  0.1489
 2129TIP3    H228023   4.426   0.510   1.659 -0.1445  1.1073  0.4974
 2130TIP3   OH228024   2.428   1.196   1.564  0.0696 -0.0737 -0.5018
 2130TIP3    H128025   2.521   1.208   1.542  0.0126  0.0155 -0.6981
 2130TIP3    H228026   2.404   1.115   1.519  0.1244 -0.2473 -0.2203
 2131TIP3   OH228027   0.564   5.841   6.574  0.3503 -0.3661  0.1289
 2131TIP3    H128028   0.587   5.922   6.619  2.4832 -1.2190  0.6866
 2131TIP3    H228029   0.648   5.805   6.546 -0.5871 -2.1931 -0.4509
 2132TIP3   OH228030   5.088   1.028   1.556 -0.3656 -0.4927 -0.0594
 2132TIP3    H128031   5.077   1.115   1.595  0.7981 -0.4080  0.1327
 2132TIP3    H228032   5.105   0.970   1.630  2.2267 -0.2690 -0.3658
 2133TIP3   OH228033   3.073   5.053   0.480 -0.2696  0.0526 -0.4793
 2133TIP3    H128034   3.098   5.062   0.572 -1.3962  0.1395 -0.1759
 2133TIP3    H228035   3.016   4.977   0.479  1.8490 -1.6440 -1.5564
 2134TIP3   OH228036   6.387   5.588   7.342  0.4536  0.1676 -0.1096
 2134TIP3    H128037   6.322   5.652   7.311  0.5529 -0.1085 -0.9252
 2134TIP3    H228038   6.454   5.641   7.385  0.2213  0.5591 -0.2208
 2135TIP3   OH228039   5.434   6.655   1.602 -0.3961 -0.4750  0.5230
 2135TIP3    H128040   5.469   6.568   1.581 -0.2284 -0.3646  0.3461
 2135TIP3    H228041   5.504   6.699   1.649 -0.4755 -0.4300  0.5994
 2136TIP3   OH228042   1.362   0.691   1.944  0.0245 -0.1989  0.2734
 2136TIP3    H128043   1.400   0.611   1.981  0.5576 -0.8493 -1.5794
 2136TIP3    H228044   1.291   0.713   2.004 -1.2745 -3.0404 -0.0230
 2137TIP3   OH228045   2.008   3.714   1.447  0.0533  0.3189  0.4373
 2137TIP3    H128046   2.046   3.741   1.531  0.9482 -0.8576  0.4364
 2137TIP3    H228047   1.937   3.655   1.470  1.0804 -0.9938  0.3900
 2138TIP3   OH228048   6.148   3.724   0.661  1.4532 -0.3022  0.2945
 2138TIP3    H128049   6.234   3.714   0.620  0.6422 -1.3517 -1.2697
 2138TIP3    H228050   6.129   3.638   0.698  0.3745 -0.6227 -0.9168
 2139TIP3   OH228051   5.685   4.369   8.903 -0.0859  0.7616 -0.1980
 2139TIP3    H128052   5.590   4.375   8.918 -0.2664 -0.3076 -0.8405
 2139TIP3    H228053   5.724   4.394   8.987 -0.9747 -0.4689  0.6170
 2140TIP3   OH228054   3.007   2.003   1.853 -0.7908 -0.2714 -0.5295
 2140TIP3    H128055   3.011   2.090   1.892 -1.7994 -0.2458 -0.4424
 2140TIP3    H228056   2.916   1.976   1.866 -0.4265 -1.4349 -0.3494
 2141TIP3   OH228057   0.802   2.767   0.671 -0.5336 -0.3701 -1.0042
 2141TIP3    H128058   0.716   2.750   0.633 -1.4942 -0.8451  1.2211
 2141TIP3    H228059   0.843   2.681   0.679 -1.1711 -0.5501  0.7795
 2142TIP3   OH228060   0.139   6.539   0.874  0.5023 -0.0880 -0.3025
 2142TIP3    H128061   0.188   6.491   0.807  0.3165 -1.0606  0.2334
 2142TIP3    H228062   0.179   6.626   0.874  0.2540  0.0663 -1.9265
 2143TIP3   OH228063   6.229   4.527   8.430  0.4235  0.1218  0.0319
 2143TIP3    H128064   6.166   4.462   8.463 -1.0327  2.3587  2.0695
 2143TIP3    H228065   6.208   4.536   8.337 -1.4491 -0.1684  0.3801
 2144TIP3   OH228066   0.368   4.719   0.184 -0.4721  0.1537  0.4998
 2144TIP3    H128067   0.390   4.729   0.277 -1.4905 -0.2791  0.7983
 2144TIP3    H228068   0.278   4.687   0.184 -0.5474  0.3296 -0.6478
 2145TIP3   OH228069   1.275   2.821   6.920  0.0960 -0.2799  0.0030
 2145TIP3    H128070   1.322   2.769   6.985  0.9721  0.0671 -0.3331
 2145TIP3    H228071   1.226   2.757   6.869 -0.3469 -0.5814  0.7968
 2146TIP3   OH228072   1.008   4.005   0.682 -0.4237  0.3516  0.2425
 2146TIP3    H128073   0.921   3.991   0.644 -0.4123 -0.0534  0.3617
 2146TIP3    H228074   1.013   3.942   0.754  0.2647 -0.1681 -0.2460
 2147TIP3   OH228075   0.643   2.353   0.853  1.2851  0.7445  0.2095
 2147TIP3    H128076   0.638   2.444   0.824 -1.9707  1.1491  1.5354
 2147TIP3    H228077   0.553   2.331   0.877  2.1079 -2.5726  0.7755
 2148TIP3   OH228078   0.784   3.309   7.021 -0.7072 -0.0689 -0.2853
 2148TIP3    H128079   0.696   3.332   6.992  0.1369  0.4157 -2.7068
 2148TIP3    H228080   0.836   3.388   7.003  0.8733 -1.4611 -2.1422
 2149TIP3   OH228081   1.943   5.410   0.902 -0.0517  0.1623 -0.0929
 2149TIP3    H128082   1.994   5.330   0.911 -1.5357 -0.8169  0.0254
 2149TIP3    H228083   1.976   5.451   0.822 -1.1223 -2.0358 -1.7541
 2150TIP3   OH228084   2.741   2.930   6.559 -0.5309  0.4741 -0.1100
 2150TIP3    H128085   2.746   2.988   6.482 -0.9853  0.2549 -0.3083
 2150TIP3    H228086   2.754   2.842   6.523 -1.6734  0.2774 -0.0804
 2151TIP3   OH228087   3.831   3.092   0.121 -0.0358 -0.2648  0.2394
 2151TIP3    H128088   3.786   3.165   0.078  0.1992 -0.0452  0.3644
 2151TIP3    H228089   3.924   3.115   0.115  0.2067 -1.4998 -1.4994
 2152TIP3   OH228090   3.826   4.970   1.965 -0.1472 -0.0056  0.5733
 2152TIP3    H128091   3.883   5.030   2.013 -1.9818  0.5884  2.1136
 2152TIP3    H228092   3.738   5.007   1.974 -0.9761 -1.5701 -0.6166
 2153TIP3   OH228093   2.484   0.854   8.949 -0.9426 -0.3585 -0.2666
 2153TIP3    H128094   2.542   0.864   9.024  1.4738  0.4393 -2.0808
 2153TIP3    H228095   2.479   0.759   8.935  0.4782 -0.4438 -0.3976
 2154TIP3   OH228096   2.270   5.241   1.436  0.8101  0.1593 -0.5108
 2154TIP3    H128097   2.180   5.271   1.430  0.6420 -0.3235 -0.3812
 2154TIP3    H228098   2.270   5.154   1.396  1.0865 -0.1115  0.0636
 2155TIP3   OH228099   2.779   0.836   0.957  0.2828  0.4040  0.1317
 2155TIP3    H128100   2.729   0.882   1.024 -0.8701 -1.4923  0.6466
 2155TIP3    H228101   2.835   0.776   1.006 -0.0344 -0.4742 -0.5540
 2156TIP3   OH228102   2.705   3.377   7.572 -0.3609  0.5865 -0.3659
 2156TIP3    H128103   2.636   3.406   7.633  1.6577  1.3182  1.7237
 2156TIP3    H228104   2.787   3.402   7.615  1.3107 -1.6968 -1.9769
 2157TIP3   OH228105   4.385   5.812   0.576 -0.6774 -0.0079 -0.1560
 2157TIP3    H128106   4.344   5.774   0.654 -0.8874 -0.2598 -0.3868
 2157TIP3    H228107   4.465   5.854   0.609 -1.0069  0.2912  0.2617
 2158TIP3   OH228108   5.287   2.527   8.064  0.3260  0.4375  0.6475
 2158TIP3    H128109   5.333   2.533   8.148  1.0998 -0.8263  0.3539
 2158TIP3    H228110   5.201   2.493   8.086  1.3005 -2.2193  0.7903
 2159TIP3   OH228111   1.642   2.956   1.241  0.1955  0.6923  0.1876
 2159TIP3    H128112   1.691   2.986   1.165 -1.2468  1.4807 -0.4476
 2159TIP3    H228113   1.592   3.032   1.270 -0.6291 -0.0719  0.8453
 2160TIP3   OH228114   2.736   6.542   0.764  0.7698  0.3926 -0.6215
 2160TIP3    H128115   2.772   6.508   0.846  0.8579  1.7713 -0.0439
 2160TIP3    H228116   2.694   6.625   0.790 -1.5420 -0.4236 -1.5233
 2161TIP3   OH228117   4.095   2.615   0.373  0.2050 -0.0822  0.0251
 2161TIP3    H128118   4.119   2.666   0.451 -0.6109 -0.9106  0.8362
 2161TIP3    H228119   4.083   2.526   0.405  1.1546 -0.7133 -1.2968
 2162TIP3   OH228120   5.158   5.565   1.840 -0.1392  0.1302  0.2219
 2162TIP3    H128121   5.248   5.595   1.832  0.3948 -1.3437  0.3624
 2162TIP3    H228122   5.165   5.471   1.859 -1.7082 -0.1325 -0.2939
 2163TIP3   OH228123   2.992   0.859   7.621  0.0706  0.4046  0.5386
 2163TIP3    H128124   3.014   0.931   7.680 -0.9338  0.6016  0.6819
 2163TIP3    H228125   3.072   0.845   7.570 -0.5857  3.6043 -1.5854
 2164TIP3   OH228126   1.439   6.695   6.576  0.2744 -0.2305 -0.6907
 2164TIP3    H128127   1.345   6.675   6.579  0.2493 -0.0232  1.2252
 2164TIP3    H228128   1.482   6.610   6.572  0.0249 -0.3350 -1.3276
 2165TIP3   OH228129   5.856   1.073   8.712 -0.2791 -0.3193  0.2234
 2165TIP3    H128130   5.852   1.131   8.637 -0.4625 -0.0164  0.4655
 2165TIP3    H228131   5.844   0.985   8.675 -1.0444 -0.1178 -0.0230
 2166TIP3   OH228132   2.644   2.136   1.063 -0.5250  0.3630  0.5465
 2166TIP3    H128133   2.631   2.230   1.047 -2.0783 -0.0078 -0.6344
 2166TIP3    H228134   2.732   2.119   1.030 -0.6752  1.2012 -0.3521
 2167TIP3   OH228135   6.552   3.181   1.804  0.3420 -0.2692 -0.0762
 2167TIP3    H128136   6.584   3.234   1.732  0.3174  1.3035  1.0108
 2167TIP3    H228137   6.560   3.238   1.881  1.0045 -2.0922  1.2885
 2168TIP3   OH228138   5.533   5.728   0.851 -0.5108 -0.1226 -0.3870
 2168TIP3    H128139   5.576   5.643   0.841  0.3132  0.2012  0.3030
 2168TIP3    H228140   5.448   5.717   0.808  0.4691 -0.5909 -2.2937
 2169TIP3   OH228141   3.418   0.909   5.976 -0.5164  0.0616 -0.0894
 2169TIP3    H128142   3.437   1.001   5.957 -1.2667  0.3425  0.4471
 2169TIP3    H228143   3.323   0.906   5.984 -0.4472 -0.6334  0.5301
 2170TIP3   OH228144   3.224   4.591   7.555  0.3952 -0.0007  0.1156
 2170TIP3    H128145   3.167   4.639   7.615 -0.0220 -0.5988  0.2028
 2170TIP3    H228146   3.164   4.553   7.491  0.5868 -1.4357  0.7552
 2171TIP3   OH228147   4.378   4.588   8.790 -0.3925 -0.1439 -0.3303
 2171TIP3    H128148   4.365   4.499   8.757 -1.0251 -0.0252 -0.4320
 2171TIP3    H228149   4.291   4.613   8.823 -0.5394  0.8863 -1.4322
 2172TIP3   OH228150   0.325   6.555   7.927  0.3098  0.3423  0.0117
 2172TIP3    H128151   0.414   6.553   7.963 -0.0440  0.2005  0.9173
 2172TIP3    H228152   0.327   6.623   7.860  1.7556 -1.3325 -1.7907
 2173TIP3   OH228153   2.404   0.596   8.969 -0.2497 -0.5415 -0.4094
 2173TIP3    H128154   2.361   0.600   9.054  0.3445 -0.5246 -0.1066
 2173TIP3    H228155   2.332   0.585   8.906 -0.8049  0.9339 -0.0515
 2174TIP3   OH228156   1.530   4.856   7.854  0.0771  0.4147  0.4616
 2174TIP3    H128157   1.500   4.860   7.944 -0.6215  0.7627  0.2229
 2174TIP3    H228158   1.613   4.905   7.854 -0.1275  0.7659  0.8327
 2175TIP3   OH228159   5.601   2.119   8.702  0.6941  0.0750  0.3626
 2175TIP3    H128160   5.666   2.078   8.644  2.3230  1.4375  1.1194
 2175TIP3    H228161   5.604   2.066   8.782  0.3851 -0.2530  0.1588
 2176TIP3   OH228162   4.189   4.462   7.425  0.0233  0.2191  0.6567
 2176TIP3    H128163   4.137   4.410   7.486 -0.3598 -0.2794 -0.0832
 2176TIP3    H228164   4.194   4.548   7.466 -2.7348  0.7681  0.0335
 2177TIP3   OH228165   0.743   2.786   0.129 -0.3875 -0.1924 -0.2772
 2177TIP3    H128166   0.831   2.789   0.166 -0.5583  0.4360  0.0979
 2177TIP3    H228167   0.689   2.833   0.192 -0.6953  0.8633 -1.2910
 2178TIP3   OH228168   0.800   3.389   7.584  0.1014  0.0586  0.1132
 2178TIP3    H128169   0.836   3.471   7.619  0.0329  0.5101 -0.8110
 2178TIP3    H228170   0.840   3.382   7.497  0.9837 -1.4952  0.6010
 2179TIP3   OH228171   6.477   0.375   0.683  0.3209  0.6941 -0.2890
 2179TIP3    H128172   6.536   0.319   0.632  0.3878  0.2883  0.2370
 2179TIP3    H228173   6.423   0.315   0.733 -1.1343  1.0378 -1.3922
 2180TIP3   OH228174   3.579   4.035   8.061  0.2187 -0.0607 -0.0939
 2180TIP3    H128175   3.575   4.125   8.029 -0.7038 -0.1733 -0.3006
 2180TIP3    H228176   3.488   4.011   8.078  0.5062 -0.7492  0.5470
 2181TIP3   OH228177   3.046   4.438   6.143  0.8165  0.3402 -0.3854
 2181TIP3    H128178   3.055   4.534   6.143 -0.6930  0.5376  1.5640
 2181TIP3    H228179   3.136   4.406   6.148  1.3658  1.6331 -1.4177
 2182TIP3   OH228180   1.470   0.174   6.420 -0.0714 -0.3450 -0.2382
 2182TIP3    H128181   1.493   0.085   6.447 -0.2619 -0.2386  0.2858
 2182TIP3    H228182   1.484   0.227   6.498  0.1174  0.0994 -0.5720
 2183TIP3   OH228183   3.036   2.319   8.598  0.2163 -0.6872 -0.0392
 2183TIP3    H128184   2.980   2.272   8.659 -0.8562 -1.2860 -1.4337
 2183TIP3    H228185   3.124   2.308   8.633 -0.4358 -0.2046  1.9024
 2184TIP3   OH228186   1.802   0.774   1.528 -0.3303  0.0368 -0.9894
 2184TIP3    H128187   1.887   0.731   1.544 -0.8911 -1.2481 -1.2721
 2184TIP3    H228188   1.774   0.805   1.614  0.5995  0.8143 -0.9570
 2185TIP3   OH228189   2.209   3.389   7.117  0.1046  0.1654  0.3126
 2185TIP3    H128190   2.120   3.400   7.152 -1.1717 -2.6670 -1.5891
 2185TIP3    H228191   2.226   3.469   7.068 -1.1816  0.9676  1.1190
 2186TIP3   OH228192   0.251   4.521   2.121 -0.1023  0.0029  0.1108
 2186TIP3    H128193   0.225   4.522   2.029  0.9792 -1.6572 -0.2486
 2186TIP3    H228194   0.236   4.431   2.151  3.7514 -0.8197  0.2094
 2187TIP3   OH228195   5.217   5.300   8.749 -0.0108  0.4693 -0.2896
 2187TIP3    H128196   5.213   5.381   8.799  2.6415  0.6758 -0.2837
 2187TIP3    H228197   5.311   5.283   8.737 -0.5020 -1.8261 -1.5471
 2188TIP3   OH228198   3.683   4.921   8.838  0.8439 -0.0265 -0.0418
 2188TIP3    H128199   3.713   4.872   8.762  1.2208  0.2839 -0.0947
 2188TIP3    H228200   3.610   4.974   8.805  2.2657  1.6216 -0.6876
 2189TIP3   OH228201   2.492   1.402   1.320 -0.2334 -0.6674  0.0875
 2189TIP3    H128202   2.452   1.433   1.401  0.1313 -0.3211  0.1383
 2189TIP3    H228203   2.447   1.320   1.301 -1.6587  0.1860 -0.3885
 2190TIP3   OH228204   6.103   4.538   7.474 -0.4069  0.2707  0.0609
 2190TIP3    H128205   6.086   4.530   7.380  1.5116 -0.8090 -0.2425
 2190TIP3    H228206   6.042   4.477   7.515 -1.7745  1.2911 -0.3880
 2191TIP3   OH228207   4.430   6.374   1.273 -0.2725  0.1092  0.0730
 2191TIP3    H128208   4.520   6.402   1.254 -0.1762 -0.1794  0.1090
 2191TIP3    H228209   4.376   6.446   1.240  0.0522  1.1543  1.7060
 2192TIP3   OH228210   0.770   1.449   1.917 -0.1401  0.1606 -0.2632
 2192TIP3    H128211   0.705   1.501   1.964  0.1162  0.9819 -0.8061
 2192TIP3    H228212   0.798   1.382   1.980  0.1557  1.2073  0.7452
 2193TIP3   OH228213   1.132   3.712   2.350  0.1484  0.0097 -0.2041
 2193TIP3    H128214   1.167   3.640   2.402 -0.9695  0.1252  0.7458
 2193TIP3    H228215   1.066   3.671   2.294  1.0953 -0.0542 -1.3265
 2194TIP3   OH228216   5.950   3.598   7.514 -0.1408 -0.1806 -0.0798
 2194TIP3    H128217   5.953   3.669   7.579  1.8445 -0.0863 -0.2117
 2194TIP3    H228218   5.954   3.518   7.566  0.7922 -0.1197 -0.0536
 2195TIP3   OH228219   3.486   0.892   7.730 -0.3335  0.3483  0.0806
 2195TIP3    H128220   3.561   0.951   7.731 -0.1715  0.1342  0.6611
 2195TIP3    H228221   3.471   0.869   7.821  1.0302 -2.3089 -0.2529
 2196TIP3   OH228222   2.196   4.963   2.028 -0.1586  0.2192  0.2083
 2196TIP3    H128223   2.286   4.993   2.018  0.1425 -0.9198 -0.7542
 2196TIP3    H228224   2.204   4.885   2.083 -0.8545  1.4707  2.1730
 2197TIP3   OH228225   0.615   6.483   0.967  0.3052 -0.0384 -0.1194
 2197TIP3    H128226   0.541   6.473   0.907  1.9257  0.9585 -2.4255
 2197TIP3    H228227   0.586   6.547   1.032 -0.9488  0.0623 -0.7562
 2198TIP3   OH228228   5.408   2.078   1.363 -0.7445 -0.1962 -0.1528
 2198TIP3    H128229   5.485   2.040   1.405 -1.0828 -0.1354  0.5431
 2198TIP3    H228230   5.411   2.171   1.388  0.4471  0.4229 -2.3888
 2199TIP3   OH228231   5.366   1.760   2.099  0.2102  0.3145  0.1921
 2199TIP3    H128232   5.274   1.743   2.121  0.9713 -1.5051  2.3746
 2199TIP3    H228233   5.388   1.838   2.150  0.7213 -1.2341  2.4803
 2200TIP3   OH228234   1.690   2.552   1.209  0.0380  0.1350  0.1551
 2200TIP3    H128235   1.680   2.509   1.294  1.0896 -2.6325 -1.0003
 2200TIP3    H228236   1.645   2.495   1.147 -0.4193  1.9053 -1.2526
 2201TIP3   OH228237   3.354   2.754   7.330  0.2871  0.2654 -0.5116
 2201TIP3    H128238   3.402   2.798   7.260 -0.3985 -2.4530 -2.8937
 2201TIP3    H228239   3.395   2.668   7.337 -0.4442  0.0390  1.6441
 2202TIP3   OH228240   5.696   5.741   8.099  0.0257 -0.0277 -0.4417
 2202TIP3    H128241   5.696   5.651   8.065  1.7662 -0.3707  0.3212
 2202TIP3    H228242   5.718   5.795   8.024 -0.4775 -0.3091 -0.7920
 2203TIP3   OH228243   6.769   4.292   0.442 -0.1966 -0.1900  0.3659
 2203TIP3    H128244   6.820   4.293   0.361 -0.9497  1.4322 -0.1230
 2203TIP3    H228245   6.778   4.202   0.475  1.0555 -0.5615 -0.9049
 2204TIP3   OH228246   4.592   4.333   8.102  0.4037  0.0175  0.6960
 2204TIP3    H128247   4.597   4.427   8.086  2.0203 -0.3282 -1.2077
 2204TIP3    H228248   4.559   4.296   8.020  1.7201 -1.2197  0.6743
 2205TIP3   OH228249   4.857   1.091   7.684 -0.7269 -0.1722 -0.2092
 2205TIP3    H128250   4.898   1.074   7.599  0.1197  0.6023  0.0329
 2205TIP3    H228251   4.886   1.179   7.707 -1.3096 -0.2056  0.6884
 2206TIP3   OH228252   5.337   5.344   0.747  0.4901  0.3533 -0.0233
 2206TIP3    H128253   5.304   5.372   0.833  0.1856  0.1235 -0.0647
 2206TIP3    H228254   5.430   5.368   0.748 -0.1663  3.3516 -0.8630
 2207TIP3   OH228255   6.144   0.919   8.576 -0.2115  0.2542 -0.1946
 2207TIP3    H128256   6.196   0.977   8.632  0.8949 -0.7455 -0.1515
 2207TIP3    H228257   6.150   0.958   8.489 -0.1127  0.6197 -0.0243
 2208TIP3   OH228258   1.403   3.090   1.834 -0.0654  0.2933  0.3987
 2208TIP3    H128259   1.381   3.010   1.785 -0.7651  1.8471 -2.0230
 2208TIP3    H228260   1.460   3.139   1.775  0.4096  1.5768  1.8517
 2209TIP3   OH228261   3.401   1.908   1.501  0.1547  0.8151  0.2017
 2209TIP3    H128262   3.486   1.947   1.519  0.2787  0.4190  0.4836
 2209TIP3    H228263   3.367   1.883   1.587 -0.2872  1.0467  0.1014
 2210TIP3   OH228264   1.543   1.389   1.299  0.7620 -0.2073  0.1225
 2210TIP3    H128265   1.571   1.368   1.211  0.8773 -1.1319  0.3668
 2210TIP3    H228266   1.449   1.369   1.300  0.9378 -1.0592  0.4491
 2211TIP3   OH228267   2.066   3.672   7.337  0.5877 -0.1229  0.1331
 2211TIP3    H128268   2.020   3.682   7.254  0.0670 -0.6142  0.3518
 2211TIP3    H228269   2.005   3.703   7.403  0.1777 -1.6485  0.5153
 2212TIP3   OH228270   4.353   2.426   7.788  0.0442  0.0926  0.1649
 2212TIP3    H128271   4.310   2.477   7.857  0.1148  1.0053 -0.4583
 2212TIP3    H228272   4.288   2.421   7.718  0.5208  0.4523 -0.3025
 2213TIP3   OH228273   6.453   5.220   1.852 -0.4257  0.2533  0.2109
 2213TIP3    H128274   6.392   5.291   1.869  0.4080  1.1596 -0.4705
 2213TIP3    H228275   6.415   5.172   1.779 -1.8585 -1.0820  1.7488
 2214TIP3   OH228276   1.446   1.663   6.976  0.2052  0.2810 -0.7736
 2214TIP3    H128277   1.363   1.706   6.996 -0.1918 -0.1781 -1.3943
 2214TIP3    H228278   1.429   1.614   6.895  1.2621  0.7205 -1.2902
 2215TIP3   OH228279   4.904   0.660   1.186 -0.3563  0.3233 -0.2538
 2215TIP3    H128280   4.855   0.660   1.104 -1.2814  1.9538  0.2643
 2215TIP3    H228281   4.915   0.752   1.208 -0.0586 -0.0714  1.4027
 2216TIP3   OH228282   1.177   4.778   1.462  0.2126  0.3233  0.1637
 2216TIP3    H128283   1.190   4.697   1.511 -0.2478  0.4604  0.5244
 2216TIP3    H228284   1.187   4.753   1.370 -2.2765 -0.6702  0.0906
 2217TIP3   OH228285   3.536   3.420   7.148  0.0641  0.1598  0.1192
 2217TIP3    H128286   3.590   3.342   7.141 -0.7448 -0.3528 -0.6654
 2217TIP3    H228287   3.551   3.468   7.067 -2.2634 -1.0876 -1.1369
 2218TIP3   OH228288   0.947   4.017   8.541 -0.1686 -0.3244  0.1911
 2218TIP3    H128289   0.919   4.103   8.573  0.2798 -0.1748  0.1820
 2218TIP3    H228290   0.968   3.968   8.621 -1.1390 -0.6792  0.2396
 2219TIP3   OH228291   1.906   3.173   0.353 -0.0652  0.5588  0.1651
 2219TIP3    H128292   1.998   3.147   0.365  0.1537  1.7219  1.3271
 2219TIP3    H228293   1.855   3.101   0.390  0.3444 -0.3091 -0.9078
 2220TIP3   OH228294   2.573   0.860   1.848 -0.3048 -0.2524 -0.5984
 2220TIP3    H128295   2.586   0.795   1.917 -0.2434  0.1608 -0.2164
 2220TIP3    H228296   2.480   0.854   1.826 -0.1853 -0.8647 -0.9716
 2221TIP3   OH228297   5.558   1.053   1.144  0.2081 -0.0070  0.0936
 2221TIP3    H128298   5.473   1.097   1.150  0.1565 -0.0917 -0.0264
 2221TIP3    H228299   5.600   1.073   1.228 -0.8463 -1.8897  1.1435
 2222TIP3   OH228300   4.096   1.917   0.893 -0.3560 -0.0010 -0.1763
 2222TIP3    H128301   4.123   1.845   0.950  0.7176  1.0670  0.7451
 2222TIP3    H228302   4.175   1.971   0.886 -1.3516  1.4925 -0.1781
 2223TIP3   OH228303   1.187   0.241   1.330  0.2055  0.4010  0.2702
 2223TIP3    H128304   1.163   0.304   1.398  0.6835  0.4812  0.3735
 2223TIP3    H228305   1.282   0.229   1.341 -0.1384 -1.7486  1.4532
 2224TIP3   OH228306   3.295   1.181   1.271 -0.3393  0.0446 -0.0622
 2224TIP3    H128307   3.281   1.213   1.182 -1.4885  0.7358  0.3429
 2224TIP3    H228308   3.371   1.230   1.303 -1.5596  1.8305  0.2497
 2225TIP3   OH228309   5.393   3.687   1.355 -0.1800 -0.0306  0.3413
 2225TIP3    H128310   5.393   3.617   1.420  0.4708  0.6833  1.1344
 2225TIP3    H228311   5.334   3.754   1.391 -1.4523 -0.4977 -0.8008
 2226TIP3   OH228312   1.267   6.463   8.336  0.0015 -0.2116  0.2519
 2226TIP3    H128313   1.172   6.454   8.328 -0.2445  0.9975  1.3398
 2226TIP3    H228314   1.297   6.480   8.247 -1.0332  1.0419  0.1077
 2227TIP3   OH228315   5.673   0.927   7.929  0.1301  0.1643 -0.7736
 2227TIP3    H128316   5.632   0.885   7.853  0.3240  1.0951 -1.4189
 2227TIP3    H228317   5.635   1.015   7.931 -1.4196 -0.4847  1.4645
 2228TIP3   OH228318   5.472   2.323   0.544  0.0221 -0.4140  0.5398
 2228TIP3    H128319   5.405   2.388   0.524  1.7853  0.6973 -2.2405
 2228TIP3    H228320   5.461   2.255   0.478  0.8235 -0.8803  0.8645
 2229TIP3   OH228321   2.300   1.985   8.121 -0.9595  0.3264 -0.4590
 2229TIP3    H128322   2.250   1.953   8.197 -0.5988  1.8462  0.4571
 2229TIP3    H228323   2.255   1.947   8.045 -2.7988  0.7104  0.3856
 2230TIP3   OH228324   6.312   4.875   1.364  0.0776  0.7460  0.4987
 2230TIP3    H128325   6.222   4.870   1.333  0.8225 -0.7634 -1.6224
 2230TIP3    H228326   6.361   4.910   1.290  1.5275 -0.2243  0.9661
 2231TIP3   OH228327   6.160   2.392   8.484 -0.0294 -0.1938  0.5072
 2231TIP3    H128328   6.175   2.477   8.526  1.7453 -1.3158  2.3349
 2231TIP3    H228329   6.248   2.362   8.459 -0.8276 -0.4885 -2.3441
 2232TIP3   OH228330   0.702   4.945   1.939  0.2368 -0.0950 -0.5826
 2232TIP3    H128331   0.620   4.953   1.987  0.5885 -0.4500  0.0965
 2232TIP3    H228332   0.733   5.035   1.929  0.4345 -0.0503  0.3539
 2233TIP3   OH228333   5.192   1.192   7.477 -0.2681 -0.2811 -0.1343
 2233TIP3    H128334   5.149   1.107   7.486  0.0701 -0.6608 -1.6902
 2233TIP3    H228335   5.279   1.170   7.443 -0.9318  0.7284 -2.7686
 2234TIP3   OH228336   0.111   1.891   6.895  0.2432  0.3738 -0.2232
 2234TIP3    H128337   0.097   1.980   6.864  1.6050  0.3419 -0.9854
 2234TIP3    H228338   0.054   1.884   6.972 -2.4259  0.7883 -2.0224
 2235TIP3   OH228339   6.435   1.795   1.505  0.1126  0.4117  0.3831
 2235TIP3    H128340   6.520   1.751   1.499 -0.1233 -0.3508  2.1068
 2235TIP3    H228341   6.422   1.833   1.418  1.0833 -1.5301 -0.6776
 2236TIP3   OH228342   3.683   1.588   7.838 -0.8982 -0.4886  0.1751
 2236TIP3    H128343   3.694   1.584   7.743 -1.6715 -1.2327  0.1048
 2236TIP3    H228344   3.671   1.497   7.865 -0.3279 -0.3265  1.0419
 2237TIP3   OH228345   3.073   2.465   6.648  0.0893 -0.5445 -0.1447
 2237TIP3    H128346   3.013   2.482   6.576 -0.4723  1.1691  0.6617
 2237TIP3    H228347   3.030   2.503   6.725  1.5149 -0.6332  0.7480
 2238TIP3   OH228348   4.895   3.775   8.705 -0.8631 -0.0012  0.7167
 2238TIP3    H128349   4.899   3.853   8.760 -0.2208  0.9771 -0.6551
 2238TIP3    H228350   4.956   3.793   8.633 -1.5030 -1.3180 -0.1961
 2239TIP3   OH228351   0.046   5.017   0.621  0.1142 -0.5842 -0.5461
 2239TIP3    H128352   0.028   5.090   0.679 -0.5367  0.3934 -1.9098
 2239TIP3    H228353   0.111   5.050   0.559 -0.1040 -1.1771 -1.1140
 2240TIP3   OH228354   2.557   5.375   1.791 -0.4881  0.5530  0.5673
 2240TIP3    H128355   2.514   5.401   1.873 -1.6717 -2.6664  1.1155
 2240TIP3    H228356   2.650   5.392   1.806 -0.5558 -0.8054  3.0108
 2241TIP3   OH228357   1.579   5.923   0.464  0.0363  0.0679  0.2547
 2241TIP3    H128358   1.623   5.981   0.402  0.1687  0.5331  0.7809
 2241TIP3    H228359   1.649   5.872   0.504 -0.0809 -0.4936 -0.2260
 2242TIP3   OH228360   2.360   5.103   0.600  0.1888 -0.6246  0.9646
 2242TIP3    H128361   2.410   5.023   0.583  1.2522  0.3605 -0.8267
 2242TIP3    H228362   2.421   5.160   0.647  0.5289  0.2925 -0.5445
 2243TIP3   OH228363   5.978   1.113   8.973 -0.8272  0.6068  0.1849
 2243TIP3    H128364   6.004   1.023   8.991  1.8040  1.0934 -0.7763
 2243TIP3    H228365   5.914   1.106   8.902  0.2415 -0.4855 -0.7105
 2244TIP3   OH228366   0.673   1.256   8.617  0.1860 -0.5402 -0.3806
 2244TIP3    H128367   0.694   1.215   8.701  0.5427  1.9517  0.8503
 2244TIP3    H228368   0.715   1.200   8.551  1.6718 -1.4364  1.2444
 2245TIP3   OH228369   4.562   0.681   7.573  0.1643  0.1466 -0.1411
 2245TIP3    H128370   4.516   0.745   7.628  0.2618 -0.2011  0.3566
 2245TIP3    H228371   4.544   0.708   7.483  0.4835  1.0734  0.0632
 2246TIP3   OH228372   6.036   2.911   7.662  0.5159  0.4612  0.0327
 2246TIP3    H128373   6.091   2.897   7.585  0.2746  0.3682 -0.1220
 2246TIP3    H228374   5.955   2.864   7.643  0.4202  0.5151  0.3041
 2247TIP3   OH228375   6.569   0.256   1.266  0.1718 -0.5933 -0.2724
 2247TIP3    H128376   6.635   0.243   1.198 -1.2545 -0.6690 -1.7151
 2247TIP3    H228377   6.523   0.172   1.270 -2.8228  0.6943 -2.7180
 2248TIP3   OH228378   1.499   4.642   7.689  0.5747 -0.6298  0.5958
 2248TIP3    H128379   1.551   4.649   7.609  1.2786 -1.9871  0.8955
 2248TIP3    H228380   1.516   4.724   7.736  0.3953  0.0393 -0.4973
 2249TIP3   OH228381   1.902   4.835   6.289 -0.1722  0.3358 -0.1556
 2249TIP3    H128382   1.961   4.871   6.223 -1.0529  0.0631 -1.1212
 2249TIP3    H228383   1.892   4.743   6.265 -0.5299  0.2436  0.3305
 2250TIP3   OH228384   6.227   6.393   1.793  0.1306 -0.1665  0.5274
 2250TIP3    H128385   6.141   6.351   1.789  0.3888 -0.7217  0.6809
 2250TIP3    H228386   6.248   6.397   1.886  0.5303 -0.5773  0.4583
 2251TIP3   OH228387   3.116   2.351   0.385  0.3472  0.1326  0.5322
 2251TIP3    H128388   3.075   2.376   0.303  1.1277 -0.3460 -0.0160
 2251TIP3    H228389   3.102   2.426   0.443  0.0647  0.5995 -0.1279
 2252TIP3   OH228390   4.277   2.559   1.038  0.4765 -0.4233  0.6224
 2252TIP3    H128391   4.295   2.575   0.946 -0.7058 -1.8665  0.0883
 2252TIP3    H228392   4.330   2.622   1.085  0.6860  0.7098 -1.0698
 2253TIP3   OH228393   6.522   2.300   1.589  0.2282  0.0329 -0.2308
 2253TIP3    H128394   6.559   2.268   1.507  0.8434 -1.2078  0.5064
 2253TIP3    H228395   6.430   2.273   1.586 -0.1309  1.2204 -1.0957
 2254TIP3   OH228396   0.178   3.303   1.687  0.3144  0.2851 -0.1799
 2254TIP3    H128397   0.133   3.346   1.760 -1.7136  0.1835 -1.2968
 2254TIP3    H228398   0.170   3.365   1.615 -2.3290 -1.6433 -1.7195
 2255TIP3   OH228399   6.658   4.627   7.906 -0.1104 -0.2813 -0.4378
 2255TIP3    H128400   6.622   4.715   7.910  0.4427 -0.0315 -0.7715
 2255TIP3    H228401   6.722   4.624   7.977 -0.7383 -0.7044  0.1225
 2256TIP3   OH228402   0.807   0.760   1.083  0.3485  0.1339 -0.0597
 2256TIP3    H128403   0.878   0.778   1.144  0.3166 -0.1811  0.0740
 2256TIP3    H228404   0.807   0.835   1.023 -0.4641  1.0848  1.0947
 2257TIP3   OH228405   0.202   5.445   7.545  0.1120  0.6604 -0.5414
 2257TIP3    H128406   0.198   5.383   7.618  0.8860  0.7092 -0.4550
 2257TIP3    H228407   0.243   5.396   7.474  3.5442  1.8728  0.4063
 2258TIP3   OH228408   5.951   5.727   8.627  0.2861  0.3085  0.2027
 2258TIP3    H128409   5.952   5.667   8.701  1.4137 -1.6496 -1.3120
 2258TIP3    H228410   6.026   5.785   8.643  1.7082 -1.3128 -0.2890
 2259TIP3   OH228411   1.504   0.377   6.248  0.2795 -0.0669 -0.8836
 2259TIP3    H128412   1.483   0.311   6.314  0.7835  1.0055  0.4132
 2259TIP3    H228413   1.599   0.388   6.254  0.0471  1.8491  0.0578
 2260TIP3   OH228414   4.719   2.666   1.407 -0.3628 -0.1582  0.5319
 2260TIP3    H128415   4.652   2.604   1.435  0.1672 -0.7834  0.4536
 2260TIP3    H228416   4.755   2.627   1.327 -0.7962  0.8202 -0.1596
 2261TIP3   OH228417   4.395   6.224   1.972 -0.2555 -0.3779 -0.0969
 2261TIP3    H128418   4.357   6.304   1.934 -0.7943 -0.4217  0.3215
 2261TIP3    H228419   4.334   6.155   1.947  0.7631 -0.8577 -1.3579
 2262TIP3   OH228420   1.971   5.244   6.690 -0.3192 -0.0256 -0.4973
 2262TIP3    H128421   1.960   5.149   6.693 -0.9781  0.0794  1.8283
 2262TIP3    H228422   2.061   5.258   6.720 -0.9589  0.1528  1.4593
 2263TIP3   OH228423   3.131   2.091   7.552  0.1735  0.4600  0.1494
 2263TIP3    H128424   3.181   2.155   7.501 -2.8085  2.9943  0.0834
 2263TIP3    H228425   3.059   2.066   7.494  0.4812 -1.9610  0.7264
 2264TIP3   OH228426   6.182   0.799   6.604 -0.4725 -0.4795 -0.0585
 2264TIP3    H128427   6.122   0.870   6.627  0.7505  0.3213  0.7747
 2264TIP3    H228428   6.212   0.820   6.516 -1.4548 -0.9323 -0.5165
 2265TIP3   OH228429   1.995   4.847   8.955 -0.4727  0.3482 -0.3250
 2265TIP3    H128430   2.044   4.819   9.031  2.1673 -1.0603 -2.3818
 2265TIP3    H228431   1.996   4.943   8.960 -1.3036  0.3039  1.8657
 2266TIP3   OH228432   3.924   4.252   6.532  0.1175  0.6470 -0.4293
 2266TIP3    H128433   4.019   4.251   6.546 -0.0805  0.6993  1.1990
 2266TIP3    H228434   3.906   4.337   6.492  0.6189  1.2543  0.5941
 2267TIP3   OH228435   5.631   6.009   8.360 -0.2525 -0.2536 -0.0047
 2267TIP3    H128436   5.674   5.976   8.440  0.8284 -0.4069 -0.6338
 2267TIP3    H228437   5.700   6.009   8.294 -0.9843  0.4661 -0.7903
 2268TIP3   OH228438   2.729   2.308   7.835  0.2958 -0.4345 -0.0367
 2268TIP3    H128439   2.667   2.236   7.850 -1.5393  0.6847 -1.6412
 2268TIP3    H228440   2.752   2.300   7.742 -1.5347  2.1166 -0.8134
 2269TIP3   OH228441   1.843   5.737   6.934  0.9301  0.2221 -0.3690
 2269TIP3    H128442   1.795   5.783   6.865 -2.1789 -1.2751  0.6046
 2269TIP3    H228443   1.829   5.645   6.915 -0.6512 -0.2700  2.4829
 2270TIP3   OH228444   6.758   3.476   0.850 -0.5910 -0.0200 -0.0795
 2270TIP3    H128445   6.728   3.399   0.802  0.4175  0.2159 -1.1461
 2270TIP3    H228446   6.826   3.443   0.909 -0.0558  0.0484 -0.6403
 2271TIP3   OH228447   4.985   5.385   0.764  0.0768  0.3765  0.5904
 2271TIP3    H128448   5.078   5.389   0.743 -0.0445 -1.5938 -0.5091
 2271TIP3    H228449   4.957   5.299   0.734 -2.0513  0.8114  1.1709
 2272TIP3   OH228450   5.128   4.192   1.133  0.6348  0.1093 -0.3335
 2272TIP3    H128451   5.087   4.233   1.209  1.4418  0.3775 -0.0301
 2272TIP3    H228452   5.187   4.259   1.098 -0.4858  0.3518 -1.8225
 2273TIP3   OH228453   2.737   4.895   1.284  0.3629 -0.0469  0.2904
 2273TIP3    H128454   2.771   4.984   1.292 -0.1326  0.1758 -0.0485
 2273TIP3    H228455   2.669   4.890   1.350  1.6405 -0.7938  1.6133
 2274TIP3   OH228456   0.713   6.126   7.104  0.1293  0.2036  0.2700
 2274TIP3    H128457   0.729   6.184   7.178  0.0076 -0.5068  0.8670
 2274TIP3    H228458   0.786   6.141   7.045 -1.0717  2.6529 -0.7038
 2275TIP3   OH228459   2.980   6.675   8.221 -0.4327 -0.0352  0.3367
 2275TIP3    H128460   2.891   6.665   8.256 -0.2640  0.8921  1.0967
 2275TIP3    H228461   2.997   6.594   8.174 -1.5026 -0.4276  0.5912
 2276TIP3   OH228462   1.824   5.959   6.205  0.0479  0.3875 -0.4094
 2276TIP3    H128463   1.841   6.018   6.279 -0.3738  0.6863 -0.5512
 2276TIP3    H228464   1.813   5.873   6.245 -1.6447  0.7763  0.0364
 2277TIP3   OH228465   5.134   1.370   1.411 -0.4029 -0.1919 -0.1116
 2277TIP3    H128466   5.126   1.356   1.317  0.8197 -1.0699 -0.0947
 2277TIP3    H228467   5.073   1.442   1.429  1.0555  1.6316 -1.9585
 2278TIP3   OH228468   1.213   1.474   7.195 -0.1923  0.2371  0.1250
 2278TIP3    H128469   1.200   1.532   7.270  0.9705 -0.2228  0.7254
 2278TIP3    H228470   1.292   1.508   7.152 -1.4687  1.1724 -1.5880
 2279TIP3   OH228471   2.176   0.419   7.079 -0.1453  0.3132  0.1232
 2279TIP3    H128472   2.125   0.395   7.157 -1.5153  1.0548 -0.4903
 2279TIP3    H228473   2.255   0.366   7.084  0.4062  1.2267  2.6750
 2280TIP3   OH228474   3.725   6.183   1.923  0.7221  0.3720  0.4499
 2280TIP3    H128475   3.700   6.258   1.976 -0.6851  0.1628  0.1264
 2280TIP3    H228476   3.650   6.124   1.927  2.2899 -1.7132  1.8572
 2281TIP3   OH228477   1.743   5.814   0.955  0.0360 -0.1883 -0.2038
 2281TIP3    H128478   1.660   5.825   1.002 -0.5736  0.5515 -1.3905
 2281TIP3    H228479   1.792   5.750   1.007 -1.2061 -0.5172  0.6123
 2282TIP3   OH228480   6.548   2.012   8.580  0.1414 -0.0784  0.3416
 2282TIP3    H128481   6.524   1.930   8.537  0.3054 -0.5795  1.1881
 2282TIP3    H228482   6.604   2.057   8.516  0.0737 -0.6333 -0.1191
 2283TIP3   OH228483   4.402   1.453   6.936 -0.0847  0.5005  0.4377
 2283TIP3    H128484   4.472   1.429   6.997 -0.6043 -1.5384  0.3083
 2283TIP3    H228485   4.447   1.505   6.869  1.2706 -0.4235  0.5698
 2284TIP3   OH228486   0.477   1.123   7.316 -0.3330  0.1917  0.4888
 2284TIP3    H128487   0.553   1.179   7.331 -1.5606  1.6482  1.5600
 2284TIP3    H228488   0.495   1.081   7.232  0.9942  1.5976  0.0240
 2285TIP3   OH228489   0.403   3.745   8.730 -0.1495 -0.0920 -0.8538
 2285TIP3    H128490   0.495   3.751   8.755  0.1941  0.4853 -2.1645
 2285TIP3    H228491   0.395   3.661   8.685 -0.0114  0.2966 -1.6311
 2286TIP3   OH228492   5.704   0.230   1.455 -0.3126 -0.3407  0.2881
 2286TIP3    H128493   5.674   0.170   1.387 -1.2523  0.9416 -0.4785
 2286TIP3    H228494   5.626   0.249   1.507 -0.0604  0.3066  0.4417
 2287TIP3   OH228495   3.095   4.187   0.823 -0.3669  0.2245  0.5197
 2287TIP3    H128496   3.072   4.162   0.913  0.9553  0.6547  0.9996
 2287TIP3    H228497   3.190   4.199   0.825 -0.0735 -1.3204 -1.3285
 2288TIP3   OH228498   1.483   3.554   6.565 -0.3514 -0.2519  0.6431
 2288TIP3    H128499   1.575   3.575   6.551 -0.2346 -1.3292 -0.3798
 2288TIP3    H228500   1.440   3.586   6.485 -0.8278  0.0014  0.9988
 2289TIP3   OH228501   4.627   1.956   2.175 -0.3548  0.1326  0.1919
 2289TIP3    H128502   4.656   2.041   2.209  0.9482 -0.4459  0.5682
 2289TIP3    H228503   4.708   1.907   2.162 -0.8145  0.0293 -3.0205
 2290TIP3   OH228504   5.149   3.554   8.224  0.1423 -0.2580 -0.2547
 2290TIP3    H128505   5.111   3.620   8.282 -0.3806 -0.7178 -0.0673
 2290TIP3    H228506   5.132   3.587   8.136 -1.6638 -0.9545 -0.2106
 2291TIP3   OH228507   5.250   2.465   2.671 -0.2756 -0.3547  0.9816
 2291TIP3    H128508   5.156   2.474   2.656  0.2395  0.2961 -3.0572
 2291TIP3    H228509   5.284   2.554   2.666  0.6867 -0.7078  0.9061
 2292TIP3   OH228510   3.972   3.167   1.729  0.2886 -0.0498 -0.5142
 2292TIP3    H128511   3.930   3.115   1.660  2.2116  0.0072 -1.8329
 2292TIP3    H228512   4.056   3.124   1.743  0.1837  0.2957  1.4336
 2293TIP3   OH228513   3.096   6.135   0.780 -0.3038  0.1245 -0.0171
 2293TIP3    H128514   3.017   6.189   0.781  1.0612  2.2573  1.5460
 2293TIP3    H228515   3.102   6.100   0.869  0.1826 -0.5428 -0.3035
 2294TIP3   OH228516   3.076   5.671   8.397  0.0192 -0.4213 -0.2214
 2294TIP3    H128517   3.093   5.755   8.440  0.8614 -0.6339 -0.1211
 2294TIP3    H228518   2.988   5.680   8.362 -1.4003 -0.8208  2.9183
 2295TIP3   OH228519   1.672   2.332   8.011  0.4899  0.5150  0.0097
 2295TIP3    H128520   1.727   2.405   8.040  2.4094 -1.4834  1.7999
 2295TIP3    H228521   1.678   2.334   7.916  1.4447  1.9890  0.0640
 2296TIP3   OH228522   3.915   6.209   0.341 -0.1476  0.5558 -0.0606
 2296TIP3    H128523   3.839   6.265   0.331 -0.0722  0.7608  0.4830
 2296TIP3    H228524   3.880   6.124   0.369 -0.3380  0.0528 -1.7078
 2297TIP3   OH228525   4.716   6.001   1.000 -0.1013  0.1765  0.2087
 2297TIP3    H128526   4.806   6.034   0.992 -0.4369  0.9523 -0.6035
 2297TIP3    H228527   4.721   5.909   0.975  0.6005  0.0109  0.9481
 2298TIP3   OH228528   5.279   5.738   0.744  0.6020 -0.2760 -1.0396
 2298TIP3    H128529   5.190   5.703   0.744  0.3689  0.3005 -1.5092
 2298TIP3    H228530   5.270   5.826   0.708  0.9691  0.7721  1.2180
 2299TIP3   OH228531   0.070   0.596   1.425 -0.1554 -0.0818  0.1017
 2299TIP3    H128532   0.142   0.655   1.450  0.2741 -0.9779  1.0473
 2299TIP3    H228533   0.058   0.612   1.332  0.1006  1.3427  0.2802
 2300TIP3   OH228534   4.571   0.680   7.158  0.3665  0.3342  0.4953
 2300TIP3    H128535   4.567   0.756   7.101 -1.8340  0.3604  0.5902
 2300TIP3    H228536   4.492   0.687   7.213  0.2313 -1.8623  0.6746
 2301TIP3   OH228537   4.453   0.964   8.759  0.5835  0.0453  0.9912
 2301TIP3    H128538   4.442   0.959   8.664  0.8744 -0.0819  0.9615
 2301TIP3    H228539   4.526   0.905   8.777 -0.1825 -0.7892  1.4247
 2302TIP3   OH228540   3.983   0.880   7.843 -0.2564  0.0859 -0.6303
 2302TIP3    H128541   4.038   0.826   7.899  0.7437 -0.7576 -2.3355
 2302TIP3    H228542   4.040   0.906   7.771 -1.7593  0.1829 -1.8571
 2303TIP3   OH228543   2.237   4.909   8.689  0.0312 -0.5250  0.5333
 2303TIP3    H128544   2.169   4.928   8.624 -0.9712 -0.0140  1.7070
 2303TIP3    H228545   2.315   4.955   8.655 -0.2113 -0.9954 -0.7392
 2304TIP3   OH228546   1.554   4.633   0.580 -0.0417  0.0363  0.6206
 2304TIP3    H128547   1.496   4.637   0.505  0.2342  0.9034  0.4452
 2304TIP3    H228548   1.604   4.552   0.567 -0.7408 -0.3765  0.4397
 2305TIP3   OH228549   2.131   5.472   0.700  0.1351  0.5956 -0.4282
 2305TIP3    H128550   2.160   5.455   0.610 -0.4838  1.8861 -0.8948
 2305TIP3    H228551   2.122   5.567   0.705 -0.7194  0.4738  0.7248
 2306TIP3   OH228552   4.948   2.291   0.220 -0.3355  0.0356 -0.1668
 2306TIP3    H128553   5.010   2.363   0.209 -0.7554  0.1315 -2.5165
 2306TIP3    H228554   4.985   2.237   0.289  1.7992  0.6570 -0.7467
 2307TIP3   OH228555   2.997   5.988   8.589 -0.3845 -0.4202  0.5979
 2307TIP3    H128556   3.092   5.998   8.587 -0.4905  0.6472  0.4093
 2307TIP3    H228557   2.965   6.049   8.522 -1.1305 -1.8664 -0.4395
 2308TIP3   OH228558   1.988   1.666   0.701 -0.2213  0.4509  0.0247
 2308TIP3    H128559   1.949   1.656   0.788  0.3205 -0.4009  0.1758
 2308TIP3    H228560   2.006   1.760   0.693  0.5699  0.4157  1.1998
 2309TIP3   OH228561   4.798   4.281   1.444  0.2679  0.4266 -0.1493
 2309TIP3    H128562   4.776   4.192   1.415 -1.7881  0.6895  0.4787
 2309TIP3    H228563   4.885   4.272   1.483 -1.0223 -1.9561  2.5608
 2310TIP3   OH228564   6.484   1.365   1.773 -0.1060 -0.1816 -1.2454
 2310TIP3    H128565   6.412   1.401   1.722 -0.1894  0.8122 -0.4523
 2310TIP3    H228566   6.475   1.405   1.859  1.1518 -0.3680 -1.0126
 2311TIP3   OH228567   2.467   5.433   0.625  0.4511  0.1358  0.0023
 2311TIP3    H128568   2.526   5.438   0.699 -0.8379  0.8902  1.0218
 2311TIP3    H228569   2.400   5.370   0.652  1.4916 -1.7893 -1.6832
 2312TIP3   OH228570   4.955   6.655   0.358  0.0939  0.4660  0.2851
 2312TIP3    H128571   4.928   6.686   0.445  2.9317 -0.1374  1.4861
 2312TIP3    H228572   4.947   6.560   0.363  0.9853  0.3764  0.1915
 2313TIP3   OH228573   5.892   6.574   8.158  0.3954 -0.6439  0.7171
 2313TIP3    H128574   5.923   6.522   8.085  1.0510  0.2130  0.3644
 2313TIP3    H228575   5.972   6.610   8.197 -0.0533  0.2828  0.7984
 2314TIP3   OH228576   3.563   1.972   0.983 -0.0422  0.4190  0.1112
 2314TIP3    H128577   3.501   1.926   1.040 -1.0219  1.1260 -0.3706
 2314TIP3    H228578   3.539   2.064   0.990 -1.0220  0.4431 -2.3810
 2315TIP3   OH228579   3.601   6.334   8.393 -0.5676 -0.2198 -0.7557
 2315TIP3    H128580   3.591   6.387   8.472 -1.7509  0.1312 -1.1115
 2315TIP3    H228581   3.695   6.333   8.376 -0.4727  1.4651 -0.5334
 2316TIP3   OH228582   4.304   1.975   7.694 -0.0502 -0.4222 -0.5607
 2316TIP3    H128583   4.284   2.046   7.755  0.3664  0.3427 -1.3008
 2316TIP3    H228584   4.228   1.916   7.701 -0.3925  0.0775  0.0630
 2317TIP3   OH228585   5.598   0.498   7.353  0.6641  0.0730  0.2821
 2317TIP3    H128586   5.583   0.592   7.339  1.1018 -0.0447 -1.1696
 2317TIP3    H228587   5.547   0.477   7.431  0.3495  1.4620  0.4830
 2318TIP3   OH228588   6.769   3.101   1.465  0.3443  0.2439 -0.0411
 2318TIP3    H128589   6.822   3.066   1.536 -0.9563 -1.5120  0.1146
 2318TIP3    H228590   6.693   3.044   1.461 -0.1055  0.9000 -2.2034
 2319TIP3   OH228591   4.157   3.323   1.909  0.1708  0.6924 -0.2453
 2319TIP3    H128592   4.205   3.250   1.948 -0.4863  0.5505  0.3044
 2319TIP3    H228593   4.073   3.286   1.881  0.1092  1.0848 -0.6054
 2320TIP3   OH228594   4.794   0.123   7.300 -0.5222 -0.4472 -0.1911
 2320TIP3    H128595   4.848   0.165   7.366 -0.4695 -1.9256  0.7678
 2320TIP3    H228596   4.856   0.078   7.242 -0.6341 -0.5267 -0.2514
 2321TIP3   OH228597   6.398   2.370   0.771  0.0546  0.4647  0.3514
 2321TIP3    H128598   6.371   2.316   0.697 -0.1589  0.8288  0.1558
 2321TIP3    H228599   6.322   2.369   0.831 -0.4981  1.6456 -0.2876
 2322TIP3   OH228600   4.404   4.099   0.845 -0.4722  0.6910  0.4290
 2322TIP3    H128601   4.476   4.079   0.905 -0.2777  1.5205  0.4802
 2322TIP3    H228602   4.433   4.177   0.798  0.4098 -1.1757 -2.3983
 2323TIP3   OH228603   0.378   1.090   8.770 -0.0196  0.6509  0.6507
 2323TIP3    H128604   0.462   1.076   8.812 -0.5872  0.3115  1.7208
 2323TIP3    H228605   0.398   1.096   8.676  1.0450 -0.5748  0.7776
 2324TIP3   OH228606   4.321   3.393   6.601 -0.4449 -0.0694 -0.5287
 2324TIP3    H128607   4.277   3.413   6.518 -0.9810  1.2466  0.0525
 2324TIP3    H228608   4.250   3.378   6.663 -0.0595  0.0566 -0.0477
 2325TIP3   OH228609   3.870   0.011   0.939 -0.6132  0.1574 -0.2297
 2325TIP3    H128610   3.908  -0.071   0.908 -0.9912 -0.2856  0.4432
 2325TIP3    H228611   3.800  -0.016   0.999 -0.5569  0.9674  0.2202
 2326TIP3   OH228612   4.315   1.874   8.698  0.6955  0.5951 -0.1780
 2326TIP3    H128613   4.380   1.937   8.729  1.0974  0.1180 -0.0342
 2326TIP3    H228614   4.231   1.913   8.720  0.9574  0.2216  1.6107
 2327TIP3   OH228615   1.210   0.383   6.524  0.1077  0.1202 -0.4071
 2327TIP3    H128616   1.293   0.387   6.572 -0.6416  1.6725  0.8404
 2327TIP3    H228617   1.230   0.332   6.446  2.6110  1.6326 -0.8659
 2328TIP3   OH228618   3.933   1.954   7.297  0.3560  0.0570 -0.4637
 2328TIP3    H128619   3.916   1.923   7.208  1.4496 -0.7427 -0.4036
 2328TIP3    H228620   4.010   2.009   7.289 -0.9328  1.9973 -0.3873
 2329TIP3   OH228621   2.869   1.615   0.979 -0.4237 -0.1708  0.6241
 2329TIP3    H128622   2.953   1.571   0.964  0.6424  1.8379  0.2672
 2329TIP3    H228623   2.808   1.570   0.921  0.5682 -1.2415  0.3705
 2330TIP3   OH228624   3.166   6.734   1.587  0.1041  0.2924 -0.2031
 2330TIP3    H128625   3.195   6.717   1.677  1.9597  2.4985 -0.2853
 2330TIP3    H228626   3.236   6.699   1.532 -0.0812  0.6810 -0.6921
 2331TIP3   OH228627   0.576   1.561   2.079  0.1981 -0.1536 -0.0339
 2331TIP3    H128628   0.546   1.602   2.160 -0.5351 -0.5663 -0.0950
 2331TIP3    H228629   0.589   1.635   2.019 -1.0339  0.0238 -0.1143
 2332TIP3   OH228630   6.365   0.581   6.556  0.1280  0.0530  0.3166
 2332TIP3    H128631   6.332   0.547   6.473 -0.0363 -0.9417  0.7640
 2332TIP3    H228632   6.300   0.645   6.583  0.8557  1.3589 -0.9415
 2333TIP3   OH228633   3.064   1.478   6.621  0.1386 -0.6784  0.4565
 2333TIP3    H128634   2.983   1.467   6.571  0.7477 -1.6640 -0.3502
 2333TIP3    H228635   3.128   1.506   6.556  1.4710 -4.0193  0.1510
 2334TIP3   OH228636   0.703   2.394   8.879 -0.3921  0.0916 -0.2052
 2334TIP3    H128637   0.656   2.458   8.933 -2.5789  0.1802 -2.0608
 2334TIP3    H228638   0.643   2.319   8.873  1.4104 -1.5028  0.5360
 2335TIP3   OH228639   3.478   0.849   7.313 -0.7385 -0.7981 -0.1785
 2335TIP3    H128640   3.526   0.768   7.297  0.5408  0.0010 -0.4967
 2335TIP3    H228641   3.405   0.822   7.369  0.4896 -1.9482  0.9630
 2336TIP3   OH228642   6.564   1.126   0.414 -0.0955 -0.0292  0.1209
 2336TIP3    H128643   6.530   1.136   0.325 -0.9967  0.4491  0.5012
 2336TIP3    H228644   6.507   1.061   0.454  1.2915 -1.4560 -0.1092
 2337TIP3   OH228645   2.777   2.231   8.920  0.5592  0.2335  0.4078
 2337TIP3    H128646   2.693   2.194   8.947  0.4961  0.0203 -0.0648
 2337TIP3    H228647   2.806   2.283   8.995 -1.3135  2.6338 -0.4316
 2338TIP3   OH228648   2.560   2.076   0.007 -0.3195 -0.0430 -0.0341
 2338TIP3    H128649   2.595   1.996   0.047 -0.9038  0.1738  0.9427
 2338TIP3    H228650   2.466   2.071   0.022 -0.5041  0.2537 -1.0409
 2339TIP3   OH228651   2.156   3.886   0.566 -0.2226  0.1731 -0.3146
 2339TIP3    H128652   2.182   3.975   0.542 -0.5531  0.0717 -1.0890
 2339TIP3    H228653   2.120   3.849   0.485 -1.1525 -0.2777  0.2963
 2340TIP3   OH228654   1.047   0.308   2.514  0.3508 -0.3996  0.0358
 2340TIP3    H128655   1.096   0.241   2.561  1.4903  0.8821  0.7213
 2340TIP3    H228656   0.957   0.297   2.544  0.2989 -2.2426 -0.6206
 2341TIP3   OH228657   5.806   3.813   8.216  0.1925 -0.4177  0.0555
 2341TIP3    H128658   5.832   3.772   8.298 -0.2825 -0.9087 -0.0343
 2341TIP3    H228659   5.721   3.775   8.195 -1.0519  1.7821  0.7897
 2342TIP3   OH228660   5.172   1.872   7.248  0.3613 -0.7350  0.2906
 2342TIP3    H128661   5.216   1.883   7.332  0.9711  0.3265 -0.1452
 2342TIP3    H228662   5.199   1.785   7.218  0.8121 -0.7813  0.8064
 2343TIP3   OH228663   3.932   0.974   0.474  0.5390 -0.0709  0.4711
 2343TIP3    H128664   3.881   0.895   0.488 -0.3578  0.3193 -0.4616
 2343TIP3    H228665   3.990   0.953   0.400  0.1563  0.1863  0.0872
 2344TIP3   OH228666   2.895   1.075   8.297  0.0423  0.5977 -0.0230
 2344TIP3    H128667   2.874   1.033   8.381  0.3030  0.0743 -0.2107
 2344TIP3    H228668   2.842   1.028   8.233 -1.3172  1.9959  0.0244
 2345TIP3   OH228669   6.462   1.061   1.749 -0.2186  0.5765  0.2140
 2345TIP3    H128670   6.372   1.050   1.719  0.4380  0.7328 -2.0266
 2345TIP3    H228671   6.478   1.155   1.744 -0.0354  0.5877  0.9513
 2346TIP3   OH228672   4.050   1.854   7.685  0.4804 -0.0641 -0.0772
 2346TIP3    H128673   3.979   1.903   7.726  2.0428 -0.0291  2.8429
 2346TIP3    H228674   4.045   1.767   7.724 -0.5528 -1.5063 -3.1312
 2347TIP3   OH228675   5.139   5.830   1.299 -0.0995  0.7202 -0.1802
 2347TIP3    H128676   5.155   5.865   1.386  0.5963 -4.1067  1.9281
 2347TIP3    H228677   5.211   5.768   1.284  0.1363  1.6873 -4.5571
 2348TIP3   OH228678   0.718   5.479   6.764  0.0425  0.0136  0.5737
 2348TIP3    H128679   0.675   5.557   6.801  0.7214  0.4251  0.5146
 2348TIP3    H228680   0.705   5.488   6.670 -3.4324 -2.0476  0.6814
 2349TIP3   OH228681   6.541   4.221   8.805 -0.0190  0.2000  0.1487
 2349TIP3    H128682   6.586   4.300   8.837 -0.4557  0.2870  0.5612
 2349TIP3    H228683   6.493   4.251   8.728  0.0895  0.2601  0.1038
 2350TIP3   OH228684   5.760   6.399   7.293 -0.0395 -0.0673 -0.5123
 2350TIP3    H128685   5.794   6.470   7.347  0.2769  1.3217 -2.4185
 2350TIP3    H228686   5.837   6.347   7.271 -0.0558 -0.2141 -0.2268
 2351TIP3   OH228687   2.321   1.406   7.184 -0.6999 -0.4791 -0.0001
 2351TIP3    H128688   2.262   1.444   7.120 -0.8027 -0.6682 -0.0169
 2351TIP3    H228689   2.277   1.418   7.268 -0.7060 -0.5115  0.0012
 2352TIP3   OH228690   0.203   2.297   0.313 -0.7744  0.2498  0.1951
 2352TIP3    H128691   0.171   2.281   0.225  1.0506  0.3520 -0.5344
 2352TIP3    H228692   0.290   2.256   0.315 -0.5010  0.8269  1.7232
 2353TIP3   OH228693   3.663   5.488   7.193 -0.1908 -0.1230 -0.0173
 2353TIP3    H128694   3.658   5.490   7.098  2.2188  1.8422 -0.1880
 2353TIP3    H228695   3.727   5.420   7.213 -1.3679 -1.1777  0.2996
 2354TIP3   OH228696   5.677   2.954   0.631  0.2933 -0.0576  0.2723
 2354TIP3    H128697   5.718   2.945   0.544 -0.4081 -3.2058  0.1711
 2354TIP3    H228698   5.750   2.947   0.692  0.4941 -0.4524 -0.0075
 2355TIP3   OH228699   3.865   6.144   7.208 -0.2389  0.5207 -0.5579
 2355TIP3    H128700   3.797   6.207   7.184  1.8151  2.0718 -2.8000
 2355TIP3    H228701   3.913   6.128   7.127  1.3700 -1.4183  0.6659
 2356TIP3   OH228702   1.218   0.843   1.371 -0.3078 -0.2497 -0.1704
 2356TIP3    H128703   1.287   0.887   1.321  0.0801 -1.1786 -0.4869
 2356TIP3    H228704   1.250   0.843   1.461 -0.9356  1.2890  0.0800
 2357TIP3   OH228705   1.273   2.704   8.735  0.0665  0.3172  0.2543
 2357TIP3    H128706   1.287   2.610   8.744  1.1254  0.3581 -0.7157
 2357TIP3    H228707   1.192   2.722   8.783  0.0377 -1.0285  0.7237
 2358TIP3   OH228708   2.521   2.148   8.573  0.0382 -0.5277  0.5655
 2358TIP3    H128709   2.611   2.162   8.604 -0.8100 -0.0790  3.0829
 2358TIP3    H228710   2.494   2.233   8.539  0.4456 -0.5888  0.0716
 2359TIP3   OH228711   0.775   1.391   0.918 -0.3579 -0.0353 -0.3212
 2359TIP3    H128712   0.776   1.318   0.856 -0.8037 -1.3159  1.1113
 2359TIP3    H228713   0.730   1.462   0.871 -2.0014 -1.4442 -0.9821
 2360TIP3   OH228714   0.852   1.595   7.436  0.1115 -1.2133  0.9856
 2360TIP3    H128715   0.843   1.561   7.347 -0.6971  1.0149  0.1405
 2360TIP3    H228716   0.765   1.582   7.475 -0.3202  0.0916  0.5280
 2361TIP3   OH228717   1.853   1.483   7.183 -0.6448  0.0978  0.0698
 2361TIP3    H128718   1.905   1.519   7.254 -1.1316  0.0654  0.4530
 2361TIP3    H228719   1.795   1.554   7.156 -2.4560 -0.6967  1.6438
 2362TIP3   OH228720   4.858   5.554   0.445  1.0545  0.0269 -0.0666
 2362TIP3    H128721   4.787   5.502   0.483  1.5559 -2.2900 -2.0955
 2362TIP3    H228722   4.819   5.596   0.369  1.8342 -1.4038 -1.2986
 2363TIP3   OH228723   1.643   0.673   2.642 -0.3096 -0.2166  0.2300
 2363TIP3    H128724   1.607   0.636   2.561 -0.3942  1.2586 -0.4579
 2363TIP3    H228725   1.615   0.614   2.711 -2.1662 -0.3173 -0.5562
 2364TIP3   OH228726   4.263   2.092   2.249  0.5220  0.7085  0.5804
 2364TIP3    H128727   4.306   2.162   2.298 -1.6829  2.1746  0.5731
 2364TIP3    H228728   4.191   2.064   2.306 -0.5939  0.7365 -0.7841
 2365TIP3   OH228729   6.678   6.113   7.881 -0.0741 -1.1712 -0.4634
 2365TIP3    H128730   6.589   6.085   7.860 -0.9536  0.3398  0.9537
 2365TIP3    H228731   6.696   6.185   7.820 -1.6527  1.5212  1.9673
 2366TIP3   OH228732   4.505   6.490   0.865  0.2545 -0.0644  0.3507
 2366TIP3    H128733   4.575   6.551   0.887  0.7453 -1.2314  2.2554
 2366TIP3    H228734   4.551   6.411   0.837 -0.2789 -0.6893  1.1892
 2367TIP3   OH228735   3.080   2.999   0.907 -0.4203 -0.7556 -0.0366
 2367TIP3    H128736   2.995   3.011   0.949 -0.4611  1.5680 -0.6082
 2367TIP3    H228737   3.077   3.058   0.831  1.9458 -0.0126  0.3649
 2368TIP3   OH228738   4.860   0.243   8.127 -0.3998 -0.0146 -0.1941
 2368TIP3    H128739   4.871   0.272   8.037  0.0955  2.3153  0.5694
 2368TIP3    H228740   4.949   0.225   8.157 -0.4283  0.5816  0.2521
 2369TIP3   OH228741   1.408   3.440   7.718 -0.2952 -0.2354 -0.9029
 2369TIP3    H128742   1.350   3.416   7.646 -0.9313  1.6324 -1.0629
 2369TIP3    H228743   1.452   3.520   7.688  0.5871 -0.2854  0.1783
 2370TIP3   OH228744   6.157   4.174   6.997 -0.0172 -0.7782  0.1312
 2370TIP3    H128745   6.142   4.086   7.031  2.0521 -0.5404  1.8469
 2370TIP3    H228746   6.175   4.160   6.904  0.5536 -2.2114  0.4220
 2371TIP3   OH228747   5.914   4.524   1.789 -0.5338 -0.5855  0.3104
 2371TIP3    H128748   5.974   4.595   1.813  1.1639 -1.0248 -2.2105
 2371TIP3    H228749   5.875   4.553   1.706 -0.9236 -1.9512 -0.0052
 2372TIP3   OH228750   1.885   3.757   7.536  0.3021 -0.3440  0.2287
 2372TIP3    H128751   1.807   3.730   7.487 -0.0810  1.4460 -0.2235
 2372TIP3    H228752   1.856   3.764   7.627 -0.4952  1.6933 -0.1378
 2373TIP3   OH228753   0.739   5.687   8.442 -0.1107 -0.6341  0.1302
 2373TIP3    H128754   0.720   5.722   8.529  1.3733  0.6766 -0.0356
 2373TIP3    H228755   0.703   5.598   8.444 -1.6638 -0.0384  1.4638
 2374TIP3   OH228756   1.178   5.388   6.982  0.2976 -0.1773 -0.9662
 2374TIP3    H128757   1.089   5.422   6.983  0.5363  0.5058 -1.9695
 2374TIP3    H228758   1.169   5.298   6.951 -0.2123 -0.7063  0.6094
 2375TIP3   OH228759   3.543   5.958   6.345  0.4634  0.1563 -0.1591
 2375TIP3    H128760   3.506   5.878   6.382  0.6474  0.0204 -0.2695
 2375TIP3    H228761   3.598   5.928   6.273 -1.9436  0.5566 -2.2787
 2376TIP3   OH228762   1.518   3.398   0.710 -0.5746  0.1989 -0.0568
 2376TIP3    H128763   1.566   3.469   0.752 -0.5868  0.3005 -0.2138
 2376TIP3    H228764   1.570   3.376   0.633 -0.6615  0.1534 -0.1027
 2377TIP3   OH228765   1.546   4.943   8.763  0.5033  0.3906 -0.4069
 2377TIP3    H128766   1.527   4.984   8.847 -0.1143  1.0738 -0.8647
 2377TIP3    H228767   1.461   4.933   8.721  0.8600  0.6889 -1.2330
 2378TIP3   OH228768   3.998   2.967   8.780 -0.1615  0.1123  0.0673
 2378TIP3    H128769   3.907   2.962   8.809  0.1672 -0.1604  1.0710
 2378TIP3    H228770   4.027   2.876   8.777  0.0388  0.1862 -0.4149
 2379TIP3   OH228771   3.030   1.836   8.208 -0.0986  0.3342 -0.0606
 2379TIP3    H128772   3.015   1.742   8.216  0.3634  0.3540  1.4361
 2379TIP3    H228773   3.111   1.843   8.158 -0.4256 -0.0347 -0.6532
 2380TIP3   OH228774   4.035   0.754   8.792  0.5159  0.3958  0.1622
 2380TIP3    H128775   4.024   0.802   8.873  1.3687  1.1937 -0.1751
 2380TIP3    H228776   3.999   0.812   8.724 -0.3391 -0.3298 -0.0225
 2381TIP3   OH228777   4.853   1.600   6.710 -0.1571  0.2997  0.2328
 2381TIP3    H128778   4.833   1.598   6.616  1.2550  0.9658 -0.1090
 2381TIP3    H228779   4.818   1.518   6.744  0.5545 -0.6044 -1.1468
 2382TIP3   OH228780   4.362   5.207   8.364 -0.1179  0.2363 -0.7339
 2382TIP3    H128781   4.432   5.218   8.300  2.4819 -1.1975  1.6176
 2382TIP3    H228782   4.298   5.151   8.321  0.8421  0.4467 -2.5011
 2383TIP3   OH228783   5.911   1.217   2.062  0.3120  0.1131 -0.2312
 2383TIP3    H128784   5.970   1.224   2.137 -0.6608  1.0612  0.4859
 2383TIP3    H228785   5.949   1.274   1.995  0.8039 -0.1660 -0.1867
 2384TIP3   OH228786   1.652   1.760   2.104 -0.3072 -0.5644 -0.7093
 2384TIP3    H128787   1.598   1.683   2.083  0.7510 -1.6165  0.2372
 2384TIP3    H228788   1.599   1.835   2.077 -1.4753 -1.6142 -1.4539
 2385TIP3   OH228789   1.739   0.197   0.996 -0.1030  0.0381 -0.4818
 2385TIP3    H128790   1.690   0.254   1.055  1.1752  0.0968  0.5641
 2385TIP3    H228791   1.675   0.172   0.929 -0.9874  1.7862 -0.3558
 2386TIP3   OH228792   6.296   5.868   7.244 -0.0317  0.1018  1.0027
 2386TIP3    H128793   6.376   5.902   7.283  0.8957 -0.3047 -0.4778
 2386TIP3    H228794   6.260   5.941   7.194 -0.7431  0.3600  1.8699
 2387TIP3   OH228795   0.442   0.317   0.672 -1.0078 -0.3649 -0.2395
 2387TIP3    H128796   0.347   0.311   0.685 -1.2780 -2.0659 -2.4696
 2387TIP3    H228797   0.469   0.229   0.647  0.9904  0.3165 -0.6876
 2388TIP3   OH228798   6.658   4.445   8.918 -0.2814 -0.0228 -0.2614
 2388TIP3    H128799   6.626   4.525   8.960 -1.8734  0.3972 -2.1085
 2388TIP3    H228800   6.753   4.458   8.910 -0.3995  1.2928  0.2767
 2389TIP3   OH228801   1.392   1.166   1.522 -0.1602 -0.3742 -0.4237
 2389TIP3    H128802   1.396   1.213   1.439 -1.6804  0.2498 -0.1760
 2389TIP3    H228803   1.299   1.167   1.546  0.1934 -0.8877  1.0846
 2390TIP3   OH228804   1.319   5.819   0.469 -0.2061  0.2476  0.4831
 2390TIP3    H128805   1.406   5.857   0.476 -0.9003  1.9637  0.4668
 2390TIP3    H228806   1.288   5.813   0.560 -0.5263  0.8129  0.4162
 2391TIP3   OH228807   6.434   2.642   7.383  0.7199 -0.4192  0.7931
 2391TIP3    H128808   6.426   2.689   7.301  0.7920  0.9126  1.5315
 2391TIP3    H228809   6.493   2.569   7.363 -3.3176 -3.4337 -1.7154
 2392TIP3   OH228810   3.887   3.184   2.065 -0.8802 -0.3742  0.1188
 2392TIP3    H128811   3.926   3.241   2.132  0.7660  0.5292 -1.5231
 2392TIP3    H228812   3.954   3.118   2.047  0.1871  1.3348 -2.9130
 2393TIP3   OH228813   5.693   4.870   1.784  0.4756  1.0279  0.7064
 2393TIP3    H128814   5.640   4.948   1.770  0.0547  0.7936  0.9690
 2393TIP3    H228815   5.673   4.843   1.874  0.3306  0.4077  0.4931
 2394TIP3   OH228816   5.610   6.529   2.482  0.3387 -0.3620  0.4162
 2394TIP3    H128817   5.624   6.491   2.568 -0.3231  1.0752  1.2002
 2394TIP3    H228818   5.679   6.491   2.427  0.9345 -1.0977  1.6301
 2395TIP3   OH228819   0.569   2.608   0.015  0.1407  0.3427 -0.4173
 2395TIP3    H128820   0.552   2.653  -0.068  2.2141  1.5374 -0.2557
 2395TIP3    H228821   0.624   2.669   0.065  0.0233 -0.8915  1.3172
 2396TIP3   OH228822   5.169   3.322   7.761 -0.7045  0.2767 -0.1310
 2396TIP3    H128823   5.239   3.378   7.794 -1.2243  0.7076  0.2687
 2396TIP3    H228824   5.117   3.299   7.838 -1.3778  0.5099 -0.5009
 2397TIP3   OH228825   6.497   0.004   6.561 -0.3279 -0.2325  0.2225
 2397TIP3    H128826   6.443   0.071   6.520  0.0053  0.3966  0.7819
 2397TIP3    H228827   6.586   0.039   6.556  0.4389 -2.2301 -2.7167
 2398TIP3   OH228828   5.865   5.453   7.509  0.0254  0.9867 -0.0619
 2398TIP3    H128829   5.793   5.445   7.572  1.7455 -0.6709  1.8498
 2398TIP3    H228830   5.873   5.366   7.470  1.3494  0.9694  0.2006
 2399TIP3   OH228831   0.659   2.487   0.494 -0.0952 -0.4850 -0.6283
 2399TIP3    H128832   0.711   2.463   0.570 -0.0424  0.4720 -0.3517
 2399TIP3    H228833   0.649   2.405   0.445 -1.1072 -1.3569  0.9709
 2400TIP3   OH228834   1.100   2.011   0.914  0.0000  0.0215 -0.2186
 2400TIP3    H128835   1.059   2.034   0.998 -0.6382 -1.2838 -0.1350
 2400TIP3    H228836   1.048   2.058   0.849 -1.9109 -1.7895 -0.1352
 2401TIP3   OH228837   0.815   2.954   0.868 -0.8449 -0.0654 -0.1775
 2401TIP3    H128838   0.826   2.903   0.788  0.1231  2.4493 -1.7801
 2401TIP3    H228839   0.720   2.961   0.879 -0.9849 -1.2983 -0.5167
 2402TIP3   OH228840   2.394   0.216   1.116 -0.6428  0.0772  0.2789
 2402TIP3    H128841   2.342   0.296   1.117 -1.7418 -0.5697  2.5553
 2402TIP3    H228842   2.407   0.195   1.209 -0.2903 -2.3122 -0.2394
 2403TIP3   OH228843   6.294   2.668   1.228  0.3542  0.2787 -0.5672
 2403TIP3    H128844   6.229   2.606   1.195  1.1788 -0.8011 -0.2273
 2403TIP3    H228845   6.295   2.654   1.323  1.2940  0.0475 -0.6019
 2404TIP3   OH228846   2.929   2.339   7.341  0.7992  0.2007 -0.1311
 2404TIP3    H128847   2.960   2.251   7.319  0.2924  0.0381 -0.2083
 2404TIP3    H228848   3.008   2.393   7.339  1.2016 -0.3470  0.4501
 2405TIP3   OH228849   6.011   2.459   1.929 -0.0570  0.0877  0.0104
 2405TIP3    H128850   6.096   2.497   1.903 -0.5149 -0.3238 -2.2964
 2405TIP3    H228851   6.031   2.407   2.007  1.0079  3.1803  2.0043
 2406TIP3   OH228852   6.559   6.683   8.312 -0.0088 -0.4391 -0.6232
 2406TIP3    H128853   6.524   6.770   8.295  1.1824 -0.0979 -1.4248
 2406TIP3    H228854   6.519   6.657   8.396 -0.7164  0.6766 -0.5964
 2407TIP3   OH228855   3.675   3.865   7.040 -0.0726 -0.4725 -0.2882
 2407TIP3    H128856   3.603   3.916   7.003  0.1032 -0.1475 -0.1916
 2407TIP3    H228857   3.650   3.774   7.025 -0.9344 -0.3973  0.5187
 2408TIP3   OH228858   3.656   2.571   8.755  0.0467 -0.4398 -0.1402
 2408TIP3    H128859   3.666   2.563   8.850 -1.9648  2.1737  0.4247
 2408TIP3    H228860   3.739   2.542   8.719  0.7094 -1.9560  2.3791
 2409TIP3   OH228861   2.604   6.038   7.819 -0.3278  0.0456  0.2121
 2409TIP3    H128862   2.648   5.989   7.750 -1.6549 -0.4824 -0.2871
 2409TIP3    H228863   2.578   5.972   7.883 -1.0365  0.2406  0.1351
 2410TIP3   OH228864   3.554   1.648   0.582 -0.4029 -0.1572  0.3562
 2410TIP3    H128865   3.561   1.740   0.607 -1.7401  0.5018 -1.4572
 2410TIP3    H228866   3.598   1.643   0.497  0.6628 -1.4686  0.9535
 2411TIP3   OH228867   3.610   1.721   2.281  0.2787 -0.2959  0.4817
 2411TIP3    H128868   3.550   1.784   2.240  0.2807  0.8648  2.1782
 2411TIP3    H228869   3.553   1.660   2.326  0.3227 -0.3275  0.4942
 2412TIP3   OH228870   5.275   6.633   8.230 -0.5056 -0.0760  0.2514
 2412TIP3    H128871   5.300   6.554   8.279 -2.2586  0.0859  1.4712
 2412TIP3    H228872   5.185   6.618   8.204 -0.8730  1.5345  0.5100
 2413TIP3   OH228873   5.230   0.328   6.512 -0.0419  0.0195 -0.3389
 2413TIP3    H128874   5.231   0.234   6.528  0.4623  0.2920  1.4317
 2413TIP3    H228875   5.157   0.341   6.452 -1.1710 -1.3268  0.6687
 2414TIP3   OH228876   0.144   5.863   1.005 -0.3404 -0.1212  0.1846
 2414TIP3    H128877   0.079   5.827   0.944 -1.1038 -1.3843  1.6619
 2414TIP3    H228878   0.165   5.790   1.063  1.7410  0.5221  0.3257
 2415TIP3   OH228879   2.337   1.521   8.726  0.4431 -0.0427  0.1099
 2415TIP3    H128880   2.252   1.503   8.687 -0.0253 -1.4074  1.6242
 2415TIP3    H228881   2.395   1.539   8.652 -0.4349 -2.2921 -1.2156
 2416TIP3   OH228882   6.350   2.962   0.166 -0.0647 -0.2336 -1.0382
 2416TIP3    H128883   6.326   3.042   0.119  2.3810  2.7902  2.3431
 2416TIP3    H228884   6.443   2.949   0.145  0.1298 -0.8855  0.1698
 2417TIP3   OH228885   3.329   4.298   0.891  0.2491  0.5313 -0.4623
 2417TIP3    H128886   3.306   4.370   0.948  2.8689  1.1972 -0.1447
 2417TIP3    H228887   3.402   4.330   0.838 -0.7379 -0.7468 -2.7859
 2418TIP3   OH228888   3.321   0.360   0.320  0.6254  0.3858  0.1911
 2418TIP3    H128889   3.228   0.376   0.301  0.5572  1.4660  1.3309
 2418TIP3    H228890   3.358   0.333   0.236 -0.3108  1.9194 -0.7571
 2419TIP3   OH228891   2.646   2.857   6.800 -0.9571  0.6045  0.7309
 2419TIP3    H128892   2.646   2.763   6.782 -0.5267  0.7624 -0.1108
 2419TIP3    H228893   2.679   2.897   6.720 -2.5694  1.5876  0.5249
 2420TIP3   OH228894   3.220   2.812   8.272 -0.0443 -0.9105 -0.5632
 2420TIP3    H128895   3.178   2.748   8.214 -0.2268 -1.0271 -0.3010
 2420TIP3    H228896   3.292   2.849   8.219  0.7370 -2.0957 -0.3614
 2421TIP3   OH228897   0.210   1.181   1.947  0.5502  0.9980 -0.1687
 2421TIP3    H128898   0.301   1.204   1.966  0.4298  1.4401 -0.1047
 2421TIP3    H228899   0.159   1.233   2.010  0.2849  0.1746  0.3105
 2422TIP3   OH228900   6.401   1.004   8.651 -0.1703 -0.2130  0.1285
 2422TIP3    H128901   6.395   1.090   8.609  1.4506 -0.1837 -0.1294
 2422TIP3    H228902   6.490   0.975   8.631 -0.9666 -2.3475 -0.5199
 2423TIP3   OH228903   2.475   4.702   8.745 -0.1417  0.4166  0.1108
 2423TIP3    H128904   2.423   4.676   8.669  0.4193 -1.0427  0.1887
 2423TIP3    H228905   2.413   4.746   8.803 -0.9767 -0.0701 -0.3978
 2424TIP3   OH228906   6.095   2.720   0.558 -0.5738 -0.1161 -0.5039
 2424TIP3    H128907   6.008   2.689   0.531 -1.2273  1.4714 -0.4058
 2424TIP3    H228908   6.123   2.776   0.486  1.7072 -2.7882 -1.8543
 2425TIP3   OH228909   4.558   3.424   8.523 -0.1752 -0.1754  0.3833
 2425TIP3    H128910   4.620   3.497   8.521 -0.8513  0.3980 -0.5590
 2425TIP3    H228911   4.559   3.390   8.434  0.0630 -1.2725  0.7905
 2426TIP3   OH228912   2.068   4.288   8.507  0.1314 -0.4141  0.9199
 2426TIP3    H128913   2.144   4.275   8.450 -0.9379 -0.4104 -0.5643
 2426TIP3    H228914   2.032   4.373   8.481 -0.7856 -0.7275  1.1079
 2427TIP3   OH228915   0.642   6.572   0.429  0.3211 -0.2053  0.0752
 2427TIP3    H128916   0.610   6.597   0.343  1.5697  2.3401  0.2632
 2427TIP3    H228917   0.643   6.653   0.479  0.8828 -1.3753  2.0852
 2428TIP3   OH228918   2.979   1.015   0.728 -0.2736 -0.3771  0.4242
 2428TIP3    H128919   3.018   0.943   0.778  2.1852  0.8067  0.3499
 2428TIP3    H228920   2.937   1.070   0.794  0.1768 -0.4896  0.8144
 2429TIP3   OH228921   4.995   2.717   1.490 -0.1192  0.1588  0.8128
 2429TIP3    H128922   4.910   2.681   1.519 -0.6299 -0.2124 -1.0258
 2429TIP3    H228923   4.972   2.794   1.439  0.5876 -0.2895 -0.2259
 2430TIP3   OH228924   2.648   6.370   8.806 -0.0564 -0.0827  0.3122
 2430TIP3    H128925   2.643   6.448   8.860 -0.2533  0.1224  0.0001
 2430TIP3    H228926   2.638   6.402   8.716  2.4208 -0.1555 -0.0500
 2431TIP3   OH228927   3.984   1.072   1.285  0.0994  0.2802 -0.5163
 2431TIP3    H128928   3.995   1.022   1.366 -0.1040  1.1840  0.0915
 2431TIP3    H228929   4.024   1.018   1.217 -2.8209 -2.1888 -0.4853
 2432TIP3   OH228930   0.931   5.775   1.328 -0.2048  0.7623 -0.4769
 2432TIP3    H128931   0.948   5.786   1.235 -1.3475 -2.8434 -1.2755
 2432TIP3    H228932   1.012   5.737   1.363 -0.1501  1.1167 -0.2099
 2433TIP3   OH228933   0.615   0.480   0.524 -0.0219  0.2245  0.4160
 2433TIP3    H128934   0.542   0.454   0.579 -1.3393  0.2119 -1.2577
 2433TIP3    H228935   0.674   0.404   0.526 -1.1782 -0.7225 -0.0223
 2434TIP3   OH228936   0.542   1.556   7.498 -0.5590 -0.2680 -0.5063
 2434TIP3    H128937   0.490   1.510   7.564  0.2329  0.2019  0.4645
 2434TIP3    H228938   0.511   1.521   7.415 -1.7615 -0.6760  0.0980
 2435TIP3   OH228939   4.197   4.374   2.234  0.1911 -0.3142  0.1274
 2435TIP3    H128940   4.150   4.291   2.240  0.9624 -0.6976  0.9712
 2435TIP3    H228941   4.132   4.440   2.256  0.2666 -0.9164  2.3328
 2436TIP3   OH228942   1.829   5.280   8.397 -0.0043 -0.0845  0.1721
 2436TIP3    H128943   1.890   5.243   8.461  0.2727 -0.9879 -0.5945
 2436TIP3    H228944   1.862   5.252   8.312 -1.6299 -0.8570 -0.2538
 2437TIP3   OH228945   1.328   5.712   7.873 -0.2124 -0.3379 -0.1491
 2437TIP3    H128946   1.275   5.739   7.798 -0.6186  0.1627  0.3094
 2437TIP3    H228947   1.272   5.653   7.923 -0.0194 -0.5068 -0.1281
 2438TIP3   OH228948   6.551   3.270   8.582 -0.1333  0.2137 -0.6015
 2438TIP3    H128949   6.531   3.177   8.571 -2.4692  0.5973 -0.0666
 2438TIP3    H228950   6.629   3.271   8.638 -0.3028 -1.4145 -0.2756
 2439TIP3   OH228951   3.687   3.421   2.314 -0.2554  0.2569  0.3672
 2439TIP3    H128952   3.663   3.413   2.406 -1.3398  0.3490  0.1001
 2439TIP3    H228953   3.605   3.412   2.266 -0.0130  2.0382 -0.4940
 2440TIP3   OH228954   2.274   0.515   6.795  0.4657 -0.2344 -0.0882
 2440TIP3    H128955   2.225   0.522   6.878 -0.0010 -1.1876 -0.2653
 2440TIP3    H228956   2.349   0.459   6.817  1.8527  1.6726  0.3228
 2441TIP3   OH228957   3.374   3.250   7.801 -0.1693 -0.0996  1.0162
 2441TIP3    H128958   3.456   3.238   7.848  0.2813 -0.4623  0.1617
 2441TIP3    H228959   3.400   3.265   7.710 -1.0685 -0.9850  0.5947
 2442TIP3   OH228960   6.444   6.187   1.842  0.0417 -0.1570 -0.5311
 2442TIP3    H128961   6.509   6.169   1.911 -1.2764 -2.4602  0.2279
 2442TIP3    H228962   6.399   6.266   1.872  0.2572 -0.4672  0.6604
 2443TIP3   OH228963   0.351   1.117   0.540  0.1591  0.6877 -0.4454
 2443TIP3    H128964   0.341   1.040   0.597  0.4252  1.5247  0.7610
 2443TIP3    H228965   0.350   1.191   0.600 -0.1863  1.6418 -1.6084
 2444TIP3   OH228966   3.843   3.243   8.636  0.2459 -0.3061  0.7541
 2444TIP3    H128967   3.928   3.283   8.619  0.2386 -0.1008  1.2004
 2444TIP3    H228968   3.835   3.242   8.731 -0.4027 -0.0119  0.7062
 2445TIP3   OH228969   5.417   0.261   7.914 -0.6050  0.1507 -0.0471
 2445TIP3    H128970   5.369   0.196   7.966 -0.3608  0.5481  0.6939
 2445TIP3    H228971   5.505   0.261   7.953 -0.6826  1.1128  0.1317
 2446TIP3   OH228972   1.829   0.360   2.229  1.0123  0.0232  0.3082
 2446TIP3    H128973   1.773   0.368   2.306  0.2964 -2.0318  0.0615
 2446TIP3    H228974   1.902   0.418   2.246 -0.5013  1.7433  1.2716
 2447TIP3   OH228975   3.770   6.030   8.433 -0.2548  0.2896  0.0316
 2447TIP3    H128976   3.811   5.972   8.368  0.3959  2.4987 -1.6511
 2447TIP3    H228977   3.841   6.088   8.461 -1.2627  1.4223  0.3060
 2448TIP3   OH228978   0.590   6.361   8.419 -0.2247 -0.1394 -0.5523
 2448TIP3    H128979   0.511   6.320   8.385 -1.2205  1.5728 -0.4106
 2448TIP3    H228980   0.588   6.342   8.513 -1.9788  2.1663 -0.0538
 2449TIP3   OH228981   4.998   2.716   8.339  0.3376 -0.6440 -0.0430
 2449TIP3    H128982   5.054   2.640   8.320  0.5935 -0.4588 -0.0254
 2449TIP3    H228983   5.057   2.791   8.338  0.1124 -0.4630  0.1099
 2450TIP3   OH228984   3.393   1.852   8.333 -0.3376 -0.1216  0.2675
 2450TIP3    H128985   3.327   1.885   8.394 -0.3899  0.0093  0.1415
 2450TIP3    H228986   3.349   1.853   8.247 -1.2158 -2.8835  0.5822
 2451TIP3   OH228987   2.669   5.549   7.260  0.3429 -0.0695 -0.0457
 2451TIP3    H128988   2.672   5.641   7.233  0.1780  1.1774  3.7122
 2451TIP3    H228989   2.758   5.531   7.292 -0.2991 -0.4083  1.5915
 2452TIP3   OH228990   0.467   2.232   8.819  0.0047 -0.5686  0.1341
 2452TIP3    H128991   0.506   2.210   8.735  0.7189  0.2930  0.2264
 2452TIP3    H228992   0.400   2.165   8.832  1.5933 -2.2691  0.0874
 2453TIP3   OH228993   3.221   4.552   0.591 -0.4970  0.2217  0.1237
 2453TIP3    H128994   3.293   4.496   0.565 -2.0321 -1.1282 -1.4909
 2453TIP3    H228995   3.200   4.603   0.513 -0.8632  1.0787  0.7652
 2454TIP3   OH228996   2.811   0.589   6.309  0.0792  0.1677 -0.2227
 2454TIP3    H128997   2.746   0.519   6.305 -0.8217  0.9305  0.4456
 2454TIP3    H228998   2.890   0.546   6.340  0.3000 -1.0324 -2.2660
 2455TIP3   OH228999   2.763   6.254   8.426 -0.7559 -0.1528  0.6465
 2455TIP3    H129000   2.805   6.335   8.396 -0.1026 -0.6638  0.1614
 2455TIP3    H229001   2.820   6.223   8.497 -0.5609 -0.6202  0.2830
 2456TIP3   OH229002   1.927   6.658   0.641  0.1386  0.8754  0.2877
 2456TIP3    H129003   2.015   6.660   0.679  1.2091 -0.1793 -1.9179
 2456TIP3    H229004   1.916   6.744   0.601  1.0388  0.3512 -1.1519
 2457TIP3   OH229005   6.666   4.887   1.801  0.0815 -0.8575  0.0669
 2457TIP3    H129006   6.628   4.818   1.855 -1.7214  1.2403  1.6589
 2457TIP3    H229007   6.615   4.886   1.720  0.2167 -1.4837 -0.0208
 2458TIP3   OH229008   4.028   1.287   8.500  0.7007 -0.4417 -0.0895
 2458TIP3    H129009   4.072   1.223   8.444 -0.3991 -1.5661  0.2869
 2458TIP3    H229010   3.969   1.334   8.441  0.8929 -0.3513 -0.2114
 2459TIP3   OH229011   2.288   6.059   8.413 -0.2874 -0.4727 -0.3557
 2459TIP3    H129012   2.293   5.966   8.435 -0.8887 -0.4862 -0.2550
 2459TIP3    H229013   2.195   6.080   8.421 -0.1158  0.2011 -0.1166
 2460TIP3   OH229014   1.778   6.380   1.176 -0.1603  0.1189 -0.2767
 2460TIP3    H129015   1.711   6.343   1.119 -1.8994  0.8584  1.1670
 2460TIP3    H229016   1.757   6.347   1.263 -1.6819  3.9833  1.0810
 2461TIP3   OH229017   3.328   3.145   1.153 -0.0506 -0.3903 -0.0439
 2461TIP3    H129018   3.273   3.210   1.110 -2.3738 -1.7451  0.7141
 2461TIP3    H229019   3.389   3.116   1.086 -0.2039  1.2085 -0.9088
 2462TIP3   OH229020   5.060   3.246   0.091  0.6726 -0.4839  0.1676
 2462TIP3    H129021   5.121   3.273   0.022  0.9190 -1.3110  0.0509
 2462TIP3    H229022   5.101   3.169   0.130  0.4402 -0.1305  1.1253
 2463TIP3   OH229023   1.153   0.089   0.373 -0.1945  0.1903 -0.1918
 2463TIP3    H129024   1.113   0.167   0.334 -1.7883 -0.4381  0.1010
 2463TIP3    H229025   1.130   0.094   0.466  0.9756  0.1210  0.1198
 2464TIP3   OH229026   3.403   1.267   0.088 -0.2658 -0.0817  0.0993
 2464TIP3    H129027   3.461   1.272   0.012  0.8717 -1.7188  0.7954
 2464TIP3    H229028   3.401   1.356   0.122 -0.5370  0.6128 -1.6285
 2465TIP3   OH229029   4.891   0.834   0.844  0.0352  0.2007 -0.0260
 2465TIP3    H129030   4.981   0.804   0.841  0.7228  2.1610 -0.4220
 2465TIP3    H229031   4.897   0.928   0.858 -1.9364  0.4778 -0.6992
 2466TIP3   OH229032   3.407   2.930   8.053 -0.2209 -0.4254 -0.7310
 2466TIP3    H129033   3.473   2.998   8.065  1.1216 -1.3081 -2.5606
 2466TIP3    H229034   3.345   2.967   7.990 -1.2281  0.2108  0.5982
 2467TIP3   OH229035   4.958   3.405   0.300 -0.0178  0.5422  0.0804
 2467TIP3    H129036   5.035   3.374   0.251 -0.2576  1.5655 -0.9807
 2467TIP3    H229037   4.888   3.346   0.273  0.2074  0.0910  0.4573
 2468TIP3   OH229038   5.049   0.027   0.640 -0.4824  0.4718 -0.4701
 2468TIP3    H129039   5.141   0.042   0.619 -0.5363  1.9927  0.2416
 2468TIP3    H229040   5.011   0.114   0.645 -1.7399 -0.0882  0.2005
 2469TIP3   OH229041   6.123   5.596   0.573  0.0425 -0.0300 -0.1418
 2469TIP3    H129042   6.139   5.510   0.533 -0.1112  0.1091 -0.5052
 2469TIP3    H229043   6.053   5.634   0.520  2.4213  1.7847 -2.2010
 2470TIP3   OH229044   3.036   2.603   8.551 -0.2152  0.0942 -0.3826
 2470TIP3    H129045   3.023   2.513   8.581  0.5099  0.0954 -0.0426
 2470TIP3    H229046   3.042   2.595   8.456 -1.9757  0.0250 -0.5236
 2471TIP3   OH229047   6.629   3.237   0.436 -0.5745 -0.1702  0.2679
 2471TIP3    H129048   6.667   3.236   0.348  1.2918 -1.0678  1.0363
 2471TIP3    H229049   6.546   3.283   0.425 -0.0621  0.3754 -1.8221
 2472TIP3   OH229050   1.359   0.030   8.054  0.1065 -0.0417 -0.7656
 2472TIP3    H129051   1.447  -0.007   8.048  0.0197 -0.1985 -1.0822
 2472TIP3    H229052   1.301  -0.041   8.027 -0.1043  0.1201 -0.7431
 2473TIP3   OH229053   0.474   3.928   1.213 -0.0409 -0.7677  0.0925
 2473TIP3    H129054   0.446   3.848   1.169  0.4086 -1.8729  1.7500
 2473TIP3    H229055   0.393   3.975   1.231 -0.2444 -0.3833 -1.6920
 2474TIP3   OH229056   6.710   1.016   8.676  0.3912 -0.6882 -0.5640
 2474TIP3    H129057   6.791   0.993   8.720  0.7896  2.3054  0.5051
 2474TIP3    H229058   6.738   1.047   8.590  0.1589 -1.4063 -0.9071
 2475TIP3   OH229059   2.832   6.128   7.949  0.3342 -0.0721 -0.9095
 2475TIP3    H129060   2.745   6.105   7.915  0.6500 -1.1703 -1.0073
 2475TIP3    H229061   2.892   6.107   7.878  0.6828  0.7519 -0.8658
 2476TIP3   OH229062   0.223   5.985   0.538  0.1984  0.2856  0.1689
 2476TIP3    H129063   0.256   6.068   0.505  0.9794  0.0198  0.2683
 2476TIP3    H229064   0.268   5.972   0.621  0.8406 -0.7128 -0.3146
 2477TIP3   OH229065   6.195   3.015   0.662  0.0917  0.3253 -0.6312
 2477TIP3    H129066   6.103   3.029   0.680  0.4083  0.8892  0.6619
 2477TIP3    H229067   6.196   2.955   0.587 -1.3452 -1.6412  0.8302
 2478TIP3   OH229068   2.658   2.786   0.022  0.0760  0.0907 -0.5761
 2478TIP3    H129069   2.630   2.793  -0.070 -0.1968 -1.9031 -0.7097
 2478TIP3    H229070   2.615   2.858   0.066  1.5551  2.1459 -2.2865
 2479TIP3   OH229071   5.593   4.459   8.115  0.2509 -0.2821  0.1799
 2479TIP3    H129072   5.610   4.365   8.116  0.5483 -0.2483  2.3701
 2479TIP3    H229073   5.676   4.497   8.085  0.3912 -0.6743  0.0568
 2480TIP3   OH229074   2.478   4.345   0.582  0.2080  0.2192  0.6830
 2480TIP3    H129075   2.553   4.288   0.565  1.8749  2.2346  0.7432
 2480TIP3    H229076   2.487   4.369   0.675 -0.8975  0.0078  0.8572
 2481TIP3   OH229077   1.109   1.734   7.406  0.7465 -0.5225  0.0209
 2481TIP3    H129078   1.087   1.818   7.447  1.2433 -0.8920  1.0832
 2481TIP3    H229079   1.031   1.680   7.421  1.1748 -0.8701  1.1161
 2482TIP3   OH229080   2.775   2.898   8.188  0.1494 -0.2092  0.4480
 2482TIP3    H129081   2.803   2.808   8.205 -1.4650 -0.5437  1.5674
 2482TIP3    H229082   2.844   2.934   8.133  1.0530 -1.9946  0.3228
 2483TIP3   OH229083   2.550   6.107   0.666  0.1512 -1.0181  0.0014
 2483TIP3    H129084   2.465   6.091   0.625 -0.6201  1.2076  0.5710
 2483TIP3    H229085   2.593   6.170   0.609  0.2896 -0.1220  1.0722
 2484TIP3   OH229086   1.819   0.295   8.589  0.0839  0.2924 -0.4590
 2484TIP3    H129087   1.852   0.383   8.606  0.7288 -0.3100  1.7825
 2484TIP3    H229088   1.897   0.239   8.594 -0.8555 -0.9920  3.4843
 2485TIP3   OH229089   1.175   6.408   2.241 -0.2716  0.0721 -0.1339
 2485TIP3    H129090   1.153   6.442   2.154  1.4856  1.0934 -0.2263
 2485TIP3    H229091   1.227   6.478   2.282 -0.3277 -0.7450  1.4156
 2486TIP3   OH229092   5.508   1.074   2.740 -0.3247  0.1783 -0.3041
 2486TIP3    H129093   5.557   1.155   2.724  0.1015  0.2304  1.1662
 2486TIP3    H229094   5.474   1.083   2.829  0.3103 -1.5508  0.1561
 2487TIP3   OH229095   0.680   6.697   6.841  0.3002  0.4596 -0.3188
 2487TIP3    H129096   0.608   6.740   6.886  0.9315  0.5996  0.5769
 2487TIP3    H229097   0.736   6.768   6.812  1.0392  0.2846  0.6398
 2488TIP3   OH229098   0.141   0.941   7.991  0.1769 -0.3030 -0.3050
 2488TIP3    H129099   0.122   0.851   8.016  1.2425 -0.0885  1.5198
 2488TIP3    H229100   0.227   0.959   8.030 -0.2369  1.6496 -0.1719
 2489TIP3   OH229101   4.239   3.147   6.722  0.0600  0.4212 -0.2222
 2489TIP3    H129102   4.212   3.237   6.735 -0.9176 -0.0168  0.9157
 2489TIP3    H229103   4.327   3.142   6.760 -0.3956  0.5978  0.8852
 2490TIP3   OH229104   2.198   6.661   8.055  0.2184 -0.3902  0.0494
 2490TIP3    H129105   2.150   6.588   8.016 -1.7500  0.6740  0.3346
 2490TIP3    H229106   2.145   6.687   8.130  2.0438 -0.0685  1.2972
 2491TIP3   OH229107   6.023   3.275   7.936 -0.0354 -0.4164  0.0581
 2491TIP3    H129108   5.978   3.322   7.866 -0.9612 -0.3717  0.6585
 2491TIP3    H229109   6.009   3.183   7.916  0.4358 -0.4137 -0.2784
 2492TIP3   OH229110   1.319   1.450   8.982 -0.5013 -0.0234  0.9381
 2492TIP3    H129111   1.266   1.467   9.061  0.6193 -0.2399  1.7624
 2492TIP3    H229112   1.377   1.525   8.976 -1.4088  0.5912 -0.4125
 2493TIP3   OH229113   6.035   0.717   1.541  0.6752 -0.1910 -0.3363
 2493TIP3    H129114   6.098   0.650   1.563  1.4539  0.3190 -0.9637
 2493TIP3    H229115   6.022   0.766   1.622  1.8511  0.3196 -0.4442
 2494TIP3   OH229116   1.250   4.260   8.698 -0.0870 -0.0526 -0.2186
 2494TIP3    H129117   1.236   4.173   8.660  1.9483 -0.8135  0.6398
 2494TIP3    H229118   1.321   4.298   8.646  0.1026  0.4510  0.3987
 2495TIP3   OH229119   0.028   0.532   8.538  0.1295  0.2766  0.1353
 2495TIP3    H129120   0.070   0.575   8.613 -0.5105  0.9603  0.1120
 2495TIP3    H229121   0.064   0.577   8.462 -1.6510  1.8493  0.1564
 2496TIP3   OH229122   5.998   5.459   1.061 -0.4302  0.2618 -0.5796
 2496TIP3    H129123   5.973   5.542   1.021 -0.2333  0.0585 -1.1353
 2496TIP3    H229124   6.063   5.422   1.001 -0.2575 -0.1300 -0.1583
 2497TIP3   OH229125   4.299   3.418   6.988 -0.3003  0.1648  0.0643
 2497TIP3    H129126   4.271   3.349   7.048 -1.4878  1.7562  1.4217
 2497TIP3    H229127   4.248   3.402   6.908 -2.2488  0.7111  1.1334
 2498TIP3   OH229128   6.273   0.439   1.720 -0.2766 -0.1179 -0.5350
 2498TIP3    H129129   6.298   0.528   1.745 -1.9326 -0.4041  2.6555
 2498TIP3    H229130   6.197   0.450   1.663 -0.8484  0.5509  0.3363
 2499TIP3   OH229131   6.061   1.818   0.051  0.2561  0.0153 -0.2362
 2499TIP3    H129132   6.022   1.855  -0.028  3.2417 -1.6616 -2.7157
 2499TIP3    H229133   5.987   1.786   0.102 -1.8636  2.2810 -1.6799
 2500TIP3   OH229134   2.803   4.920   7.696  0.4415  0.3227  0.2743
 2500TIP3    H129135   2.793   4.907   7.790 -0.6090  1.0675  0.2792
 2500TIP3    H229136   2.806   5.015   7.685 -0.5727  0.2753 -0.5405
 2501TIP3   OH229137   5.292   5.037   7.172 -0.6081 -0.1665  0.2663
 2501TIP3    H129138   5.257   4.954   7.205 -0.0134  0.1481  1.7631
 2501TIP3    H229139   5.356   5.064   7.238  0.0733  0.8961 -0.7964
 2502TIP3   OH229140   2.984   1.581   8.912 -0.1547 -0.2903 -0.3052
 2502TIP3    H129141   3.080   1.575   8.915  0.0300  1.1446 -1.8295
 2502TIP3    H229142   2.957   1.509   8.856  0.2399  0.4455 -1.4930
 2503TIP3   OH229143   6.383   0.584   7.687 -0.2397 -0.6762  0.0376
 2503TIP3    H129144   6.448   0.569   7.756 -0.8189 -0.4109  0.6492
 2503TIP3    H229145   6.422   0.545   7.609  1.3276  0.7221  0.0458
 2504TIP3   OH229146   3.658   3.936   1.144 -0.3150  0.2937 -0.1453
 2504TIP3    H129147   3.580   3.985   1.118  0.2550  1.0357 -0.4924
 2504TIP3    H229148   3.636   3.901   1.230 -0.7723  1.1016  0.0823
 2505TIP3   OH229149   4.140   0.705   8.480 -0.4283  0.3714  0.0113
 2505TIP3    H129150   4.228   0.679   8.508  0.4456  0.6241 -2.2225
 2505TIP3    H229151   4.156   0.764   8.406 -2.4878 -0.7149 -1.3873
 2506TIP3   OH229152   2.233   0.088   8.500  0.0490 -0.2123  0.1367
 2506TIP3    H129153   2.302   0.060   8.441  0.6769 -0.2130  0.8555
 2506TIP3    H229154   2.230   0.184   8.492  2.2129  0.1284  2.2809
 2507TIP3   OH229155   3.864   4.812   1.174  0.2488  0.7695  0.2910
 2507TIP3    H129156   3.907   4.741   1.127  0.7430  1.5891 -0.5516
 2507TIP3    H229157   3.928   4.838   1.241 -0.0188  0.2802  0.7329
 2508TIP3   OH229158   5.890   6.251   0.948  0.9941  0.4535 -0.6130
 2508TIP3    H129159   5.888   6.162   0.912  1.9002  0.5331 -0.8866
 2508TIP3    H229160   5.820   6.252   1.013  0.5641 -0.2690 -1.0491
 2509TIP3   OH229161   5.563   3.845   1.964  0.1488  0.4317 -0.3868
 2509TIP3    H129162   5.528   3.813   2.047  0.5865  1.3413  0.1683
 2509TIP3    H229163   5.524   3.932   1.954  1.9367  1.3460  0.1001
 2510TIP3   OH229164   3.778   3.041   1.553 -0.1443  0.0876 -0.4877
 2510TIP3    H129165   3.815   3.047   1.464  0.6355  1.2454 -0.1244
 2510TIP3    H229166   3.801   2.953   1.583  2.5530  0.7724 -0.2413
 2511TIP3   OH229167   0.568   3.042   0.957 -0.6556  0.1971  0.1270
 2511TIP3    H129168   0.600   3.081   1.039  1.7028 -1.0545 -0.1024
 2511TIP3    H229169   0.502   2.978   0.986  0.7304 -0.8257  1.1983
 2512TIP3   OH229170   2.505   4.223   7.616 -0.1295  0.3283 -0.0113
 2512TIP3    H129171   2.555   4.302   7.595  1.4021 -0.1872  1.4905
 2512TIP3    H229172   2.556   4.151   7.578 -0.1845 -0.1255  0.7394
 2513TIP3   OH229173   0.872   2.676   8.440  0.0245  0.4051  0.0077
 2513TIP3    H129174   0.961   2.710   8.453 -0.0678  2.0254 -2.7156
 2513TIP3    H229175   0.860   2.678   8.345 -2.5646 -0.7865  0.2383
 2514TIP3   OH229176   1.433   1.516   7.903 -0.6759 -0.4554  0.1420
 2514TIP3    H129177   1.499   1.569   7.859  1.0399 -2.5546 -0.0031
 2514TIP3    H229178   1.356   1.522   7.848  0.2235  0.0001 -1.1024
 2515TIP3   OH229179   3.799   1.431   8.382  0.0617 -0.1939  0.0737
 2515TIP3    H129180   3.801   1.481   8.301 -2.2152  1.7436  1.0621
 2515TIP3    H229181   3.732   1.365   8.368 -0.0568 -0.1099  0.2413
 2516TIP3   OH229182   5.285   2.636   8.319 -0.4031  0.0172  0.1595
 2516TIP3    H129183   5.370   2.671   8.293  0.1139 -0.5741  0.9893
 2516TIP3    H229184   5.306   2.558   8.371 -1.3749  0.6827  1.6463
 2517TIP3   OH229185   2.374   3.976   0.383  0.3847  0.5225 -0.0635
 2517TIP3    H129186   2.351   3.891   0.345 -0.0227  0.4494  0.3400
 2517TIP3    H229187   2.356   4.039   0.313 -0.5768  0.4154  0.0803
 2518TIP3   OH229188   5.513   2.981   8.142  0.4399 -0.5327 -0.0817
 2518TIP3    H129189   5.477   2.892   8.144  1.9319 -1.1535  0.7390
 2518TIP3    H229190   5.469   3.025   8.215 -0.5869 -0.4514 -0.7239
 2519TIP3   OH229191   5.417   1.416   0.062  0.3242 -0.2880 -1.0185
 2519TIP3    H129192   5.395   1.479  -0.007 -0.1202 -0.5440 -1.1138
 2519TIP3    H229193   5.333   1.377   0.086  0.5147 -0.3885 -0.5125
 2520TIP3   OH229194   0.589   4.306   7.555 -0.2889  1.1414  0.1168
 2520TIP3    H129195   0.629   4.223   7.527 -1.2998  0.9471 -0.7982
 2520TIP3    H229196   0.561   4.289   7.645 -0.8613  0.3416 -0.2006
 2521TIP3   OH229197   2.580   1.248   0.469  0.0069  0.7249 -0.2795
 2521TIP3    H129198   2.522   1.275   0.541 -0.9933 -0.9671 -0.4161
 2521TIP3    H229199   2.548   1.298   0.394 -2.2995 -1.1914 -0.6970
 2522TIP3   OH229200   3.740   3.646   0.771 -0.5279 -0.3493  0.3395
 2522TIP3    H129201   3.781   3.690   0.845 -0.0580  0.5591 -0.4373
 2522TIP3    H229202   3.686   3.715   0.730 -0.0666 -0.5796 -0.6842
 2523TIP3   OH229203   1.443   1.081   8.835 -0.5966  0.5429  0.4326
 2523TIP3    H129204   1.485   0.999   8.859  0.9398  1.3844  0.7261
 2523TIP3    H229205   1.417   1.068   8.744 -0.1463 -0.1796  0.3966
 2524TIP3   OH229206   5.924   1.338   7.171 -0.3884 -0.3272  0.1207
 2524TIP3    H129207   5.855   1.365   7.109  0.1359 -2.3140 -1.4141
 2524TIP3    H229208   6.001   1.386   7.143 -0.7696  0.8394  0.9782
 2525TIP3   OH229209   2.771   0.899   0.153  0.1373  0.1876  0.1636
 2525TIP3    H129210   2.758   0.943   0.237 -0.7545  0.6911 -0.2211
 2525TIP3    H229211   2.750   0.965   0.088  1.3716 -0.0289 -0.4785
 2526TIP3   OH229212   5.240   4.007   6.782  0.1410 -1.3802 -0.0077
 2526TIP3    H129213   5.218   4.012   6.689 -0.3412 -1.9542  0.0728
 2526TIP3    H229214   5.336   3.996   6.783  0.4579  0.8181 -0.3607
 2527TIP3   OH229215   5.835   3.626   8.861  0.5838 -0.3594  0.4766
 2527TIP3    H129216   5.771   3.672   8.915  0.4283  0.7553 -0.6067
 2527TIP3    H229217   5.919   3.642   8.904  0.2601 -1.0652  1.4041
 2528TIP3   OH229218   0.833   3.154   7.787 -0.1101  0.2781 -0.5623
 2528TIP3    H129219   0.851   3.238   7.745 -0.1253  0.1766 -0.7769
 2528TIP3    H229220   0.815   3.175   7.878 -0.7991  0.5770 -0.7654
 2529TIP3   OH229221   5.196   6.429   0.351 -0.3266 -0.2255 -0.2209
 2529TIP3    H129222   5.240   6.367   0.410  2.6314  0.9058 -1.0327
 2529TIP3    H229223   5.216   6.515   0.389 -0.4314  0.4044 -1.5482
 2530TIP3   OH229224   5.527   3.072   1.568 -0.1597 -0.0635  0.1436
 2530TIP3    H129225   5.510   3.014   1.642 -0.2905  0.2451  0.3590
 2530TIP3    H229226   5.551   3.155   1.608  1.8733 -0.4534 -0.1280
 2531TIP3   OH229227   5.200   3.195   2.049 -0.4486  0.4532 -0.0032
 2531TIP3    H129228   5.239   3.235   2.127 -0.8166  0.9843 -0.0905
 2531TIP3    H229229   5.242   3.109   2.043  1.2526  1.2758 -0.5099
 2532TIP3   OH229230   5.287   0.941   8.750 -0.3255  0.0292  0.8229
 2532TIP3    H129231   5.230   0.929   8.674 -2.4365 -0.8386  2.4327
 2532TIP3    H229232   5.372   0.906   8.724 -1.1657 -0.7895 -0.9121
 2533TIP3   OH229233   4.290   0.306   6.356  0.0345 -0.5198  0.3929
 2533TIP3    H129234   4.258   0.225   6.316 -2.5407  0.4543  0.2599
 2533TIP3    H229235   4.307   0.283   6.447 -0.9503 -1.1728  0.4313
 2534TIP3   OH229236   5.891   0.540   7.743  0.2285  0.2442  0.5876
 2534TIP3    H129237   5.912   0.576   7.829 -0.7595  0.8530  0.5838
 2534TIP3    H229238   5.962   0.570   7.687 -1.1970  3.4200  0.2612
 2535TIP3   OH229239   2.407   5.830   7.062 -0.6165 -0.0260  0.4111
 2535TIP3    H129240   2.380   5.891   7.131  0.0584 -1.7775  2.3064
 2535TIP3    H229241   2.332   5.771   7.051 -0.2492 -0.5262  0.5665
 2536TIP3   OH229242   0.906   0.500   1.594  0.0766 -0.2325  0.3673
 2536TIP3    H129243   0.824   0.481   1.547  1.3500 -2.4361 -1.1536
 2536TIP3    H229244   0.878   0.542   1.675 -2.3849  1.7698 -1.3543
 2537TIP3   OH229245   4.371   5.718   8.419 -0.4089  0.7095  0.7630
 2537TIP3    H129246   4.376   5.785   8.351 -1.0956 -0.4583 -0.4944
 2537TIP3    H229247   4.346   5.639   8.372  2.1768 -0.9010  1.9147
 2538TIP3   OH229248   3.048   2.493   8.274  0.0826 -0.1489  0.3184
 2538TIP3    H129249   2.980   2.453   8.219  0.0601  0.9642 -0.4966
 2538TIP3    H229250   3.123   2.434   8.264  0.6044  0.7886 -2.2417
 2539TIP3   OH229251   3.045   1.717   6.387  0.1680 -0.3324  0.3487
 2539TIP3    H129252   3.099   1.638   6.392  0.8065  0.0054 -0.7200
 2539TIP3    H229253   2.955   1.685   6.383  0.2204 -0.9023  2.4748
 2540TIP3   OH229254   5.041   1.651   0.743 -0.5624  0.7341 -0.0523
 2540TIP3    H129255   4.971   1.630   0.805 -0.9592 -0.8772 -1.0030
 2540TIP3    H229256   5.091   1.720   0.787 -2.3241  1.4577  0.9424
 2541TIP3   OH229257   1.222   5.669   6.682 -0.0172  0.0161  0.6397
 2541TIP3    H129258   1.246   5.737   6.620 -0.2708 -0.8333 -0.4087
 2541TIP3    H229259   1.134   5.692   6.711 -0.7877 -0.7173 -0.9759
 2542TIP3   OH229260   0.121   6.051   8.633  0.4196 -1.0844 -0.2017
 2542TIP3    H129261   0.117   5.962   8.598  2.3746 -0.4605 -2.2934
 2542TIP3    H229262   0.073   6.104   8.569  1.2779 -0.3451 -0.2519
 2543TIP3   OH229263   2.083   5.727   8.712  0.4287  0.1690  0.3634
 2543TIP3    H129264   2.016   5.687   8.768  0.6251 -3.8947 -1.8954
 2543TIP3    H229265   2.161   5.674   8.730  1.5215  1.2832 -0.9800
 2544TIP3   OH229266   0.704   5.329   0.306 -0.2132  0.2613  0.1423
 2544TIP3    H129267   0.760   5.407   0.309  1.8205 -1.1227  0.2105
 2544TIP3    H229268   0.717   5.294   0.218  0.8510 -1.3189  0.8940
 2545TIP3   OH229269   2.157   2.180   1.082 -0.8751  0.4080  0.8035
 2545TIP3    H129270   2.151   2.195   0.988  0.7971 -1.8694  0.2161
 2545TIP3    H229271   2.067   2.162   1.110 -1.2542 -0.0416 -0.6226
 2546TIP3   OH229272   1.280   2.337   1.231 -0.7783  0.8377  0.5712
 2546TIP3    H129273   1.255   2.352   1.322  0.7881 -0.5358  1.2725
 2546TIP3    H229274   1.228   2.261   1.204  1.1704 -0.9105  1.4703
 2547TIP3   OH229275   5.051   3.655   1.180  0.2477 -0.2903  0.3376
 2547TIP3    H129276   5.061   3.746   1.208  0.4901 -0.3379  0.4040
 2547TIP3    H229277   5.101   3.604   1.244 -2.2061 -0.7493  2.0237
 2548TIP3   OH229278   2.229   4.245   7.686  0.6973  0.2995 -0.6304
 2548TIP3    H129279   2.321   4.243   7.659  1.0688 -0.6908  0.5757
 2548TIP3    H229280   2.231   4.215   7.777 -0.4666  3.3543  0.5463
 2549TIP3   OH229281   2.593   0.777   0.442 -0.1226 -0.8451 -0.4261
 2549TIP3    H129282   2.623   0.830   0.516 -1.2916  1.4237 -1.4878
 2549TIP3    H229283   2.502   0.754   0.464 -0.5783  0.1040 -1.2603
 2550TIP3   OH229284   6.345   5.307   1.334 -0.5983  0.2042 -0.0575
 2550TIP3    H129285   6.282   5.266   1.275 -1.8446 -0.5860  1.7534
 2550TIP3    H229286   6.309   5.394   1.352  0.3305  0.8713 -1.2343
 2551TIP3   OH229287   6.621   1.520   1.289 -0.9173 -0.4805  0.1640
 2551TIP3    H129288   6.645   1.567   1.209  0.5307  1.7894  1.7906
 2551TIP3    H229289   6.525   1.521   1.289 -0.9345 -0.2466 -1.3742
 2552TIP3   OH229290   5.676   3.643   7.711  0.4522  0.6716  0.5302
 2552TIP3    H129291   5.654   3.676   7.623  2.3767  2.1730  0.5478
 2552TIP3    H229292   5.645   3.712   7.770  0.2315  0.2174  0.9492
 2553TIP3   OH229293   0.502   6.713   1.298  0.4777  0.0544  0.3484
 2553TIP3    H129294   0.455   6.793   1.278 -0.3331 -0.5003 -0.0170
 2553TIP3    H229295   0.590   6.726   1.262  0.5228  0.9800  0.7764
 2554TIP3   OH229296   1.914   6.719   7.917  0.2090  0.3136 -0.1289
 2554TIP3    H129297   1.970   6.786   7.955  1.4027 -0.2815 -0.7947
 2554TIP3    H229298   1.890   6.752   7.831 -0.0373  0.3286 -0.0571
 2555TIP3   OH229299   5.924   4.509   8.217 -0.2691  0.1131 -0.3790
 2555TIP3    H129300   5.936   4.442   8.150  2.4345  0.2203 -0.1142
 2555TIP3    H229301   5.957   4.589   8.176 -0.7903  0.6801  0.2848
 2556TIP3   OH229302   6.371   5.480   8.918  0.3063  0.0067 -0.3660
 2556TIP3    H129303   6.353   5.530   8.839 -1.1144 -0.5177 -0.4087
 2556TIP3    H229304   6.392   5.392   8.887 -0.0317 -0.1452 -0.1703
 2557TIP3   OH229305   0.159   6.445   7.519  0.2148 -0.5100  0.2879
 2557TIP3    H129306   0.077   6.493   7.533  0.8135  0.6832 -0.1116
 2557TIP3    H229307   0.165   6.435   7.424  1.0252  0.3611  0.2273
 2558TIP3   OH229308   2.141   3.012   8.408 -0.1514  0.2984  0.3714
 2558TIP3    H129309   2.149   3.022   8.503 -2.0097 -0.0446  0.5812
 2558TIP3    H229310   2.047   3.005   8.391  0.1711 -0.2547 -1.4431
 2559TIP3   OH229311   3.530   0.224   2.018  0.1227 -0.6121  0.0434
 2559TIP3    H129312   3.610   0.259   2.058  0.3194  0.0336 -0.8861
 2559TIP3    H229313   3.470   0.212   2.092 -0.0497  1.9530  0.4127
 2560TIP3   OH229314   5.154   6.494   1.002 -0.0145 -0.3039  0.1281
 2560TIP3    H129315   5.107   6.564   0.957 -0.5773 -0.5287  0.3517
 2560TIP3    H229316   5.205   6.539   1.070  2.9626  0.3591 -2.3258
 2561TIP3   OH229317   1.449   5.602   6.827 -0.0974 -0.4701  0.1570
 2561TIP3    H129318   1.494   5.680   6.860  0.7768 -0.0898 -1.7574
 2561TIP3    H229319   1.364   5.634   6.798 -0.0624 -0.3942  0.1379
 2562TIP3   OH229320   6.224   5.795   0.764 -0.2541  0.6585 -0.1974
 2562TIP3    H129321   6.206   5.702   0.751  0.4332  0.4213  0.5031
 2562TIP3    H229322   6.261   5.800   0.852 -2.6181  1.9005  0.8141
 2563TIP3   OH229323   6.723   6.646   0.666 -0.2132  0.5791  0.1224
 2563TIP3    H129324   6.781   6.573   0.644 -1.2715 -0.6121  1.1475
 2563TIP3    H229325   6.660   6.609   0.728 -0.7706  2.3757  0.6854
 2564TIP3   OH229326   5.144   0.772   8.562 -0.5513 -0.2899 -0.1271
 2564TIP3    H129327   5.148   0.678   8.581 -2.9531 -0.8046 -1.6688
 2564TIP3    H229328   5.172   0.779   8.471  0.4273  0.6215  0.2299
 2565TIP3   OH229329   3.059   0.555   8.714  0.1910 -0.1731 -0.8991
 2565TIP3    H129330   3.047   0.472   8.760 -2.1210  0.0353 -1.0113
 2565TIP3    H229331   3.118   0.534   8.641  0.3949 -1.4709 -0.3874
 2566TIP3   OH229332   1.603   4.410   8.242  0.4473 -0.4770  0.1594
 2566TIP3    H129333   1.524   4.406   8.188 -1.0233  0.4750  2.1305
 2566TIP3    H229334   1.646   4.491   8.216  0.5491 -0.7690 -0.6015
 2567TIP3   OH229335   2.418   3.947   6.549  0.9521 -0.2931 -0.2755
 2567TIP3    H129336   2.379   3.968   6.464  2.7481  0.2028 -1.0328
 2567TIP3    H229337   2.439   4.032   6.587 -1.2730 -0.4342  1.4369
 2568TIP3   OH229338   0.270   5.471   2.008 -0.5915 -0.0327  0.4547
 2568TIP3    H129339   0.214   5.547   1.994  0.6618  0.6704 -0.9089
 2568TIP3    H229340   0.219   5.397   1.976 -0.7231  0.6089 -0.8540
 2569TIP3   OH229341   1.609   2.027   0.339 -0.0092 -0.4795  0.4844
 2569TIP3    H129342   1.643   2.038   0.427  0.5489 -1.1151  0.3562
 2569TIP3    H229343   1.668   2.079   0.284 -1.4436  1.4701  0.6688
 2570TIP3   OH229344   4.352   0.310   2.021 -0.0445  0.2466  0.1785
 2570TIP3    H129345   4.331   0.309   2.115  0.5942  1.2370  0.3431
 2570TIP3    H229346   4.440   0.273   2.016 -0.7026 -1.3442 -0.2261
 2571TIP3   OH229347   1.002   5.797   6.772  0.1493  0.2208 -0.3084
 2571TIP3    H129348   1.025   5.847   6.851 -1.8576 -0.9585  1.1115
 2571TIP3    H229349   0.929   5.846   6.733 -0.4374 -0.4583 -0.0789
 2572TIP3   OH229350   1.719   2.534   0.323  0.1269  0.4452 -0.2930
 2572TIP3    H129351   1.729   2.451   0.277 -0.8442  0.6378 -0.8800
 2572TIP3    H229352   1.625   2.543   0.336  0.1320  1.8367 -0.9816
 2573TIP3   OH229353   4.929   5.853   8.336 -0.3093  0.2544  0.1057
 2573TIP3    H129354   4.974   5.791   8.394  0.1502 -0.6143 -1.1528
 2573TIP3    H229355   4.975   5.936   8.349 -0.2097  0.0730  0.9748
 2574TIP3   OH229356   1.661   5.421   6.675 -0.0393 -0.1423  0.5444
 2574TIP3    H129357   1.621   5.349   6.626  0.4285  0.9491 -1.5426
 2574TIP3    H229358   1.588   5.473   6.706 -0.3308 -0.2766  0.0911
 2575TIP3   OH229359   1.445   2.858   8.165  0.0103 -0.1100 -0.3429
 2575TIP3    H129360   1.510   2.898   8.223 -1.3368 -0.1923  1.2989
 2575TIP3    H229361   1.489   2.782   8.128  1.3451  0.7149 -0.4884
 2576TIP3   OH229362   0.521   1.804   8.366  0.0754 -0.1365 -0.1824
 2576TIP3    H129363   0.473   1.886   8.377  0.0649  0.1078 -1.7802
 2576TIP3    H229364   0.456   1.742   8.333  0.2687 -0.5583  0.2165
 2577TIP3   OH229365   4.948   5.931   0.804 -0.1965 -0.4105 -0.5804
 2577TIP3    H129366   4.939   5.837   0.823 -2.0524 -0.2312 -0.4003
 2577TIP3    H229367   4.961   5.971   0.890 -0.2943 -0.4068 -0.5678
 2578TIP3   OH229368   4.138   1.693   1.060  0.0252  0.6569 -0.1450
 2578TIP3    H129369   4.191   1.732   1.130 -0.3256  1.0720 -0.1029
 2578TIP3    H229370   4.174   1.606   1.048 -0.6627  0.1231  1.3829
 2579TIP3   OH229371   3.872   1.384   7.211 -0.5836  0.2687  0.4945
 2579TIP3    H129372   3.799   1.398   7.270  0.8243 -1.3239  2.7543
 2579TIP3    H229373   3.838   1.325   7.143 -1.9360  1.3114  0.2165
 2580TIP3   OH229374   5.322   0.631   6.774 -0.2500 -0.3568  0.1721
 2580TIP3    H129375   5.377   0.707   6.757  0.2322 -1.0615 -1.5170
 2580TIP3    H229376   5.378   0.570   6.822 -0.4455  0.0591  0.9546
 2581TIP3   OH229377   2.280   3.592   0.247 -0.6940 -0.0029  0.4188
 2581TIP3    H129378   2.338   3.568   0.319 -0.5780 -0.2755  0.2395
 2581TIP3    H229379   2.225   3.514   0.234 -0.7875  0.0846  0.2857
 2582TIP3   OH229380   1.671   5.785   8.858  0.2702 -0.1501 -0.0130
 2582TIP3    H129381   1.663   5.771   8.952  0.3346  4.4039  0.8558
 2582TIP3    H229382   1.732   5.716   8.830 -1.4006 -3.0188  2.7368
 2583TIP3   OH229383   5.804   4.371   8.560  0.0277  0.5402 -0.3201
 2583TIP3    H129384   5.727   4.405   8.515 -0.7118 -0.1117  0.4153
 2583TIP3    H229385   5.815   4.429   8.635  0.2563  0.6412 -0.4327
 2584TIP3   OH229386   1.356   0.318   2.225  0.9364  0.1938 -0.2470
 2584TIP3    H129387   1.427   0.308   2.161  1.0784 -0.5109  0.0103
 2584TIP3    H229388   1.298   0.383   2.186  0.0540 -1.5262 -1.9667
 2585TIP3   OH229389   5.784   2.051   0.984 -0.2602 -0.4096  1.2108
 2585TIP3    H129390   5.823   1.966   1.004  0.2228 -0.5833 -0.3690
 2585TIP3    H229391   5.700   2.030   0.943 -0.4201 -0.1074  1.3790
 2586TIP3   OH229392   1.072   0.232   7.899 -0.0084  0.6314  0.1625
 2586TIP3    H129393   1.076   0.280   7.982  0.1871  2.7708 -1.0068
 2586TIP3    H229394   1.094   0.297   7.833  2.5455 -1.6085 -1.4060
 2587TIP3   OH229395   2.334   5.068   0.095 -0.2320 -0.1853  0.3296
 2587TIP3    H129396   2.301   5.113   0.173  2.4171  0.5175  1.1516
 2587TIP3    H229397   2.274   5.095   0.025 -1.4489  0.8684  1.7007
 2588TIP3   OH229398   3.399   2.631   8.115  0.1596  0.3650 -0.2658
 2588TIP3    H129399   3.485   2.657   8.149  0.4985  0.9179 -1.5072
 2588TIP3    H229400   3.382   2.691   8.043 -0.3625 -1.0290 -1.3426
 2589TIP3   OH229401   6.561   5.125   0.474 -0.0132 -0.3818  0.1819
 2589TIP3    H129402   6.624   5.080   0.530 -0.1386  0.0647  0.6822
 2589TIP3    H229403   6.608   5.200   0.439  0.5564 -1.4685 -1.5523
 2590TIP3   OH229404   2.060   0.137   0.574 -0.1688  0.4143 -0.1207
 2590TIP3    H129405   2.109   0.109   0.496 -0.5275 -0.1203 -0.1561
 2590TIP3    H229406   2.118   0.115   0.647  0.3280  1.2510 -0.2448
 2591TIP3   OH229407   1.124   5.949   0.838 -0.4444  0.2031  0.3528
 2591TIP3    H129408   1.068   5.966   0.763 -1.4795  0.0864  1.0743
 2591TIP3    H229409   1.135   5.854   0.838  0.4062  0.2936 -0.2334
 2592TIP3   OH229410   6.408   3.237   7.670 -0.1052  0.7190 -0.0218
 2592TIP3    H129411   6.313   3.253   7.667 -0.1335  0.6397  0.3047
 2592TIP3    H229412   6.439   3.256   7.582 -0.9830 -2.5960 -1.1956
 2593TIP3   OH229413   0.858   4.234   7.840 -0.0472 -0.7638 -0.0063
 2593TIP3    H129414   0.898   4.199   7.761 -0.5259 -0.2087 -0.5028
 2593TIP3    H229415   0.903   4.317   7.856  0.6045 -1.2493  0.7748
 2594TIP3   OH229416   3.178   5.823   5.959 -0.1699  0.2731 -0.1538
 2594TIP3    H129417   3.269   5.850   5.964  0.0453 -0.4233 -0.1807
 2594TIP3    H229418   3.137   5.861   6.037 -0.2305  1.8928 -0.9309
 2595TIP3   OH229419   0.103   0.516   0.855 -0.6899  0.2010 -0.1503
 2595TIP3    H129420   0.172   0.492   0.916 -1.6893  2.2469  1.9125
 2595TIP3    H229421   0.022   0.485   0.897 -1.2368 -0.5345 -1.6507
 2596TIP3   OH229422   1.018   6.338   0.940  0.1937  0.3974  0.1793
 2596TIP3    H129423   0.952   6.293   0.993  0.3146 -0.6069 -0.5092
 2596TIP3    H229424   0.987   6.429   0.937  0.4564  0.6182  2.3835
 2597TIP3   OH229425   1.403   4.011   7.452  0.4753 -0.2345 -0.7766
 2597TIP3    H129426   1.343   4.082   7.476 -1.3751 -1.5287 -1.3676
 2597TIP3    H229427   1.482   4.028   7.503 -1.1220  0.4104  1.6591
 2598TIP3   OH229428   6.258   4.878   8.781 -0.2529 -0.0841  0.0762
 2598TIP3    H129429   6.318   4.886   8.856  1.0822 -2.4344 -0.6154
 2598TIP3    H229430   6.178   4.842   8.819 -0.7907  1.7332  0.7937
 2599TIP3   OH229431   3.929   6.156   7.635 -0.5166  0.0720  0.2424
 2599TIP3    H129432   3.907   6.202   7.716 -1.3269  3.2716 -1.6297
 2599TIP3    H229433   4.018   6.185   7.615 -1.7064  2.6438 -1.9415
 2600TIP3   OH229434   4.715   2.463   0.308 -0.3236  0.2006 -0.1868
 2600TIP3    H129435   4.793   2.412   0.288 -1.4122 -1.7030  0.1122
 2600TIP3    H229436   4.713   2.468   0.404 -0.3203  0.6761 -0.2068
 2601TIP3   OH229437   0.642   1.038   1.234 -0.5565 -0.0693  0.0069
 2601TIP3    H129438   0.647   1.121   1.282  0.2496  0.0794 -0.3176
 2601TIP3    H229439   0.701   1.049   1.160 -1.9464 -0.2226 -1.1651
 2602TIP3   OH229440   4.504   6.464   7.131  0.4199  0.1363 -0.0061
 2602TIP3    H129441   4.588   6.446   7.089  1.1027  1.1544  0.8773
 2602TIP3    H229442   4.509   6.420   7.216 -0.4797 -0.8966 -0.4536
 2603TIP3   OH229443   4.538   1.483   8.266 -0.1407  0.1517  0.0446
 2603TIP3    H129444   4.615   1.512   8.218  0.7488 -1.3297  0.4967
 2603TIP3    H229445   4.466   1.537   8.233  1.0277  1.3386 -0.6117
 2604TIP3   OH229446   3.780   1.368   8.825 -0.0632 -0.4974 -0.1509
 2604TIP3    H129447   3.826   1.452   8.820 -1.6212  0.3111 -2.9126
 2604TIP3    H229448   3.849   1.303   8.813  1.4724  0.1108  3.7395
 2605TIP3   OH229449   3.128   5.683   1.535 -0.3512 -0.3190 -0.4493
 2605TIP3    H129450   3.114   5.612   1.598 -1.8610  0.8617  0.6202
 2605TIP3    H229451   3.087   5.759   1.575 -1.5331  0.4683 -2.9513
 2606TIP3   OH229452   2.414   1.341   8.932 -0.0490 -0.4350 -0.0779
 2606TIP3    H129453   2.409   1.245   8.926 -2.1208 -0.4572  1.0819
 2606TIP3    H229454   2.357   1.372   8.862 -0.2550 -0.0663  0.2518
 2607TIP3   OH229455   1.286   0.640   7.459 -0.0379 -0.6083  0.0120
 2607TIP3    H129456   1.253   0.609   7.544 -0.0228  0.5129  0.4421
 2607TIP3    H229457   1.312   0.730   7.475 -1.3512  0.0792 -1.5357
 2608TIP3   OH229458   0.356   4.433   0.704 -0.3385 -0.3913  0.4109
 2608TIP3    H129459   0.373   4.349   0.746 -1.0775 -0.7586 -0.0232
 2608TIP3    H229460   0.325   4.489   0.775  0.8371 -0.2488  0.8518
 2609TIP3   OH229461   6.385   5.548   8.268 -0.0303  0.0520 -0.1632
 2609TIP3    H129462   6.392   5.456   8.295  1.0606  0.2789  0.3438
 2609TIP3    H229463   6.439   5.554   8.190 -0.4896  0.1660 -0.4767
 2610TIP3   OH229464   1.306   2.642   7.997  0.0065  0.4145 -0.4663
 2610TIP3    H129465   1.247   2.668   7.927  0.4502  2.5709 -0.1090
 2610TIP3    H229466   1.272   2.687   8.075  0.0707 -1.1706  0.5227
 2611TIP3   OH229467   5.650   1.800   6.803  0.2207  0.0442  0.0445
 2611TIP3    H129468   5.715   1.801   6.733 -1.2421 -2.3811 -1.4998
 2611TIP3    H229469   5.611   1.887   6.801  2.4884  1.1239  0.1864
 2612TIP3   OH229470   5.072   4.598   7.117  0.9687 -0.9473 -0.4930
 2612TIP3    H129471   4.992   4.557   7.083 -0.2678  0.0564  1.0496
 2612TIP3    H229472   5.142   4.561   7.064 -0.6183 -0.9068 -2.7892
 2613TIP3   OH229473   1.534   1.915   7.213  0.3779 -0.7728  0.0894
 2613TIP3    H129474   1.612   1.965   7.238 -0.0968 -0.7456  1.5784
 2613TIP3    H229475   1.502   1.959   7.134  1.7002 -0.6151 -0.3825
 2614TIP3   OH229476   5.197   5.294   7.443 -0.6091 -0.4396 -0.0124
 2614TIP3    H129477   5.265   5.357   7.469  0.2491 -1.3487 -0.0045
 2614TIP3    H229478   5.160   5.264   7.526  1.1753 -2.2938  0.1984
 2615TIP3   OH229479   5.127   2.739   0.327  0.1097 -0.4720  0.7155
 2615TIP3    H129480   5.041   2.734   0.286 -0.2031 -2.9374  1.5392
 2615TIP3    H229481   5.188   2.746   0.254 -0.5518 -2.9367 -0.1526
 2616TIP3   OH229482   3.133   6.016   1.483  0.4984  0.2866 -0.0668
 2616TIP3    H129483   3.095   6.101   1.503 -0.8670 -0.3930  0.2940
 2616TIP3    H229484   3.059   5.962   1.456  1.4080 -0.6640 -0.7442
 2617TIP3   OH229485   3.106   0.649   7.043 -0.4577  0.8953 -0.1109
 2617TIP3    H129486   3.077   0.717   7.104 -1.6214  1.5998 -1.4027
 2617TIP3    H229487   3.144   0.697   6.970  0.5720  0.0718 -0.1426
 2618TIP3   OH229488   0.247   3.312   8.471  1.1132 -0.2483 -0.6653
 2618TIP3    H129489   0.233   3.396   8.427  0.3306 -0.3932 -0.7106
 2618TIP3    H229490   0.341   3.296   8.462  1.0187 -0.1723 -2.1225
 2619TIP3   OH229491   2.278   1.232   0.531 -0.4068 -0.2280  0.4964
 2619TIP3    H129492   2.186   1.224   0.554 -0.7840  0.1378 -0.7999
 2619TIP3    H229493   2.325   1.222   0.614 -1.6483  0.6286  1.3321
 2620TIP3   OH229494   5.881   2.608   8.967 -0.0432  0.3291 -0.3174
 2620TIP3    H129495   5.805   2.665   8.972 -0.2659  0.2864 -2.3754
 2620TIP3    H229496   5.863   2.537   9.029 -1.1248  0.9353  0.0759
 2621TIP3   OH229497   3.435   4.439   7.633 -0.8676 -0.8004 -0.1875
 2621TIP3    H129498   3.348   4.468   7.605 -0.8336 -0.1008  0.4166
 2621TIP3    H229499   3.495   4.483   7.573 -0.8212  0.3395  0.6677
 2622TIP3   OH229500   1.563   3.524   8.715 -0.4603 -0.2519  0.0889
 2622TIP3    H129501   1.630   3.565   8.770  0.1227 -1.0705  0.0000
 2622TIP3    H229502   1.589   3.547   8.625  1.4736 -3.0506 -0.1723
 2623TIP3   OH229503   4.394   1.276   8.163 -0.5639 -0.0190 -0.1089
 2623TIP3    H129504   4.442   1.327   8.228 -2.2088  0.2979  0.9236
 2623TIP3    H229505   4.435   1.299   8.080  1.0472  0.2138  0.7145
 2624TIP3   OH229506   0.653   5.277   8.017  0.3253  0.3312  0.4103
 2624TIP3    H129507   0.659   5.279   7.921 -1.5713 -0.4863  0.2203
 2624TIP3    H229508   0.561   5.296   8.035  0.4981 -0.2427  2.0323
 2625TIP3   OH229509   0.093   5.082   0.161 -0.2782 -0.1745 -0.0939
 2625TIP3    H129510   0.037   5.044   0.228  2.0771 -0.6279  1.7848
 2625TIP3    H229511   0.072   5.176   0.162 -0.4839 -0.2202  1.1160
 2626TIP3   OH229512   0.623   1.327   2.292  0.4101  0.2077 -0.1248
 2626TIP3    H129513   0.701   1.288   2.255  0.2860  0.6682 -0.8821
 2626TIP3    H229514   0.608   1.407   2.241  0.1286  0.7607  0.7817
 2627TIP3   OH229515   6.655   2.793   8.122 -0.1749  0.1234 -0.3071
 2627TIP3    H129516   6.744   2.787   8.087  0.3899 -0.8552  1.2097
 2627TIP3    H229517   6.661   2.854   8.195 -0.5300 -0.7089  0.4291
 2628TIP3   OH229518   3.837   5.975   1.512  0.1313  0.0100 -0.2039
 2628TIP3    H129519   3.850   6.023   1.593 -0.7148  0.9008 -0.5891
 2628TIP3    H229520   3.856   5.884   1.535 -1.0672  0.0924  1.2498
 2629TIP3   OH229521   1.397   6.479   8.080  0.2922  0.4748 -0.3071
 2629TIP3    H129522   1.469   6.426   8.115  0.3003  1.4963  1.3480
 2629TIP3    H229523   1.435   6.565   8.065 -0.6586  1.2161  1.1868
 2630TIP3   OH229524   0.372   2.815   7.147 -0.1682  0.5432 -0.1989
 2630TIP3    H129525   0.318   2.894   7.141 -0.9194  0.1128  0.6878
 2630TIP3    H229526   0.403   2.800   7.057 -2.3596  0.2459 -0.9593
 2631TIP3   OH229527   0.521   0.116   0.254 -0.4806 -0.2412 -0.4192
 2631TIP3    H129528   0.595   0.067   0.218 -0.2693  1.4649 -2.4967
 2631TIP3    H229529   0.501   0.072   0.337  3.0609 -0.6213  0.4021
 2632TIP3   OH229530   5.275   1.840   6.668 -0.3778 -0.1807  0.2289
 2632TIP3    H129531   5.184   1.838   6.696 -0.6405  1.9552 -0.2975
 2632TIP3    H229532   5.321   1.782   6.729 -1.7933  0.1165  1.6119
 2633TIP3   OH229533   4.806   0.101   1.402  0.1296 -0.2250  0.5320
 2633TIP3    H129534   4.799   0.185   1.446  0.7531 -0.2901  0.7721
 2633TIP3    H229535   4.866   0.117   1.329 -0.7708 -0.1559 -0.2030
 2634TIP3   OH229536   4.741   3.338   0.946  0.1222 -0.2727 -0.3636
 2634TIP3    H129537   4.769   3.342   0.854 -0.1594  0.4757 -0.4285
 2634TIP3    H229538   4.821   3.352   0.996  0.0449  0.8928 -0.5334
 2635TIP3   OH229539   6.321   5.267   6.657  0.6246 -0.1973  0.7310
 2635TIP3    H129540   6.302   5.186   6.610 -0.6924  0.0602  0.7990
 2635TIP3    H229541   6.283   5.336   6.603  2.9950  0.5713 -0.0851
 2636TIP3   OH229542   1.082   1.868   0.538 -0.4988 -0.0507  0.0485
 2636TIP3    H129543   1.129   1.788   0.564 -1.2641 -0.7673 -0.7319
 2636TIP3    H229544   1.130   1.900   0.462  1.0447  1.4101  1.5411
 2637TIP3   OH229545   0.512   2.669   0.957  0.3158  0.1659  0.1418
 2637TIP3    H129546   0.516   2.639   0.866 -0.7217 -0.9760  0.4440
 2637TIP3    H229547   0.435   2.726   0.959  0.9417  1.0321  0.0903
 2638TIP3   OH229548   1.774   4.388   0.874 -0.3904 -0.0978  0.4274
 2638TIP3    H129549   1.745   4.355   0.789 -1.2135 -0.5680  0.8806
 2638TIP3    H229550   1.804   4.478   0.856 -1.9598  0.3526 -0.1040
 2639TIP3   OH229551   1.171   3.960   6.745 -0.3753  0.2939  0.4491
 2639TIP3    H129552   1.170   4.046   6.787  0.8716  1.9978 -2.7152
 2639TIP3    H229553   1.112   3.968   6.670  0.5785 -1.2567 -0.5322
 2640TIP3   OH229554   6.290   6.393   8.315 -0.6370 -0.5360 -0.3125
 2640TIP3    H129555   6.197   6.373   8.329 -0.4217 -2.0404 -0.8295
 2640TIP3    H229556   6.336   6.316   8.348  0.4950  0.4455  0.5044
 2641TIP3   OH229557   2.619   0.239   8.055  0.1483  0.3613  0.0003
 2641TIP3    H129558   2.558   0.190   8.108  0.2221  1.3717  1.0708
 2641TIP3    H229559   2.703   0.193   8.065  0.0785  0.3311  0.4738
 2642TIP3   OH229560   3.718   4.926   7.841 -0.1150 -0.0110  0.0240
 2642TIP3    H129561   3.635   4.909   7.795  0.2495 -0.8687 -0.3279
 2642TIP3    H229562   3.774   4.966   7.774 -0.1038  0.2075  0.1609
 2643TIP3   OH229563   2.460   3.373   8.974 -0.4291 -0.3579 -0.3718
 2643TIP3    H129564   2.373   3.334   8.971 -1.7085  2.1552  1.2046
 2643TIP3    H229565   2.497   3.342   9.056 -0.1132 -0.8485 -0.6961
 2644TIP3   OH229566   1.988   0.740   6.840  0.6384 -0.8219  0.2937
 2644TIP3    H129567   1.993   0.661   6.786  1.7705  0.5392 -1.7151
 2644TIP3    H229568   1.907   0.783   6.813  1.6081  0.2741 -1.0068
 2645TIP3   OH229569   5.446   0.903   2.532 -0.0999  0.6305 -0.0110
 2645TIP3    H129570   5.505   0.949   2.472 -0.0151 -0.7431 -1.0328
 2645TIP3    H229571   5.442   0.959   2.609  3.6941  0.1815  0.7575
 2646TIP3   OH229572   4.850   4.584   3.050 -0.0755  0.7426  0.4360
 2646TIP3    H129573   4.908   4.556   2.979  0.6540  2.8235  0.1261
 2646TIP3    H229574   4.763   4.586   3.011 -0.0001 -0.0875  0.2038
 2647TIP3   OH229575   4.337   4.711   2.192 -0.4095  0.4695 -0.0908
 2647TIP3    H129576   4.258   4.670   2.227  0.3879 -1.8321 -0.7979
 2647TIP3    H229577   4.371   4.647   2.129  1.2094  2.0571 -0.9183
 2648TIP3   OH229578   0.563   6.392   0.624 -0.1375  0.2813  0.4177
 2648TIP3    H129579   0.471   6.385   0.600 -0.2301 -0.3028  0.9225
 2648TIP3    H229580   0.593   6.472   0.581 -0.6240 -0.0400 -0.5639
 2649TIP3   OH229581   6.131   5.421   2.693  0.7250  0.0194  0.0170
 2649TIP3    H129582   6.199   5.372   2.646  3.4254  1.4146  2.1828
 2649TIP3    H229583   6.117   5.372   2.773  1.5876  1.3741  1.0366
 2650TIP3   OH229584   6.220   2.276   7.415 -0.0699 -0.6730 -0.3656
 2650TIP3    H129585   6.308   2.263   7.380 -0.5909 -0.1616 -1.9706
 2650TIP3    H229586   6.163   2.273   7.338 -1.2229  1.2374  0.3463
 2651TIP3   OH229587   2.561   4.921   0.551  0.0745  0.5822 -0.1355
 2651TIP3    H129588   2.544   4.915   0.457 -1.6983 -0.7325  0.2117
 2651TIP3    H229589   2.562   4.830   0.581 -1.0325  1.0230  1.3612
 2652TIP3   OH229590   1.103   2.617   0.952 -0.4729  0.0120  0.1443
 2652TIP3    H129591   1.034   2.594   1.014  1.6126  0.9160  2.9989
 2652TIP3    H229592   1.144   2.533   0.929 -0.8919 -0.2870  0.4804
 2653TIP3   OH229593   5.385   6.115   8.383  0.4270 -0.0643  0.1788
 2653TIP3    H129594   5.475   6.083   8.372  1.7997  3.1179  0.9566
 2653TIP3    H229595   5.376   6.128   8.477  0.4168  2.6420 -0.1150
 2654TIP3   OH229596   0.526   3.321   7.530  0.1425  0.6608 -0.0111
 2654TIP3    H129597   0.616   3.319   7.499  0.4077 -1.4163  0.7098
 2654TIP3    H229598   0.474   3.291   7.455  0.1837  0.7995 -0.0941
 2655TIP3   OH229599   6.533   5.966   7.342  0.0453 -0.5605  0.2242
 2655TIP3    H129600   6.488   6.046   7.371 -1.8449 -1.3622 -0.3887
 2655TIP3    H229601   6.601   5.953   7.408  2.1709  2.9384 -0.9930
 2656TIP3   OH229602   4.018   0.431   8.533 -1.0642 -0.2524 -0.4840
 2656TIP3    H129603   4.011   0.526   8.521  0.6095  0.0452  0.5679
 2656TIP3    H229604   3.944   0.409   8.589 -0.3246  0.8128  0.9781
 2657TIP3   OH229605   3.671   5.463   8.158 -0.0998 -0.1907  0.2681
 2657TIP3    H129606   3.668   5.521   8.234  0.5784 -1.5465  1.3828
 2657TIP3    H229607   3.581   5.459   8.126 -0.6175 -0.4695  1.7014
 2658TIP3   OH229608   1.340   0.907   7.445 -0.0651 -0.2038  0.2077
 2658TIP3    H129609   1.264   0.928   7.500  0.0447 -0.2828  0.3910
 2658TIP3    H229610   1.331   0.965   7.369 -0.1909 -0.0579  0.3333
 2659TIP3   OH229611   2.481   3.686   8.129  0.2840  0.8395 -0.2562
 2659TIP3    H129612   2.476   3.699   8.223 -0.3636  1.9260 -0.4272
 2659TIP3    H229613   2.542   3.613   8.118  0.0181  0.3961  1.0168
 2660TIP3   OH229614   3.988   5.835   8.552  0.1867  0.1551  0.1518
 2660TIP3    H129615   3.971   5.810   8.462  1.3350  0.6435 -0.2206
 2660TIP3    H229616   3.906   5.875   8.582  0.3642  1.6703 -1.2796
 2661TIP3   OH229617   3.374   5.625   1.416 -0.6627 -0.1443  0.1679
 2661TIP3    H129618   3.299   5.638   1.473 -0.0834  1.5998  0.6033
 2661TIP3    H229619   3.339   5.582   1.338 -1.2997 -3.7026  2.1790
 2662TIP3   OH229620   6.743   6.481   8.287  0.3699 -0.6597  0.3240
 2662TIP3    H129621   6.682   6.554   8.292  0.5017 -0.4646 -0.6724
 2662TIP3    H229622   6.695   6.412   8.242 -0.0178 -1.4916  1.9414
 2663TIP3   OH229623   3.209   4.172   8.071 -0.0843  0.0613 -0.3742
 2663TIP3    H129624   3.142   4.189   8.004 -1.6090  1.0048  1.2899
 2663TIP3    H229625   3.241   4.084   8.051  0.1839  0.6410 -2.8364
 2664TIP3   OH229626   4.351   2.007   8.100  0.2252  0.9318  0.1141
 2664TIP3    H129627   4.266   1.982   8.136 -0.7883  1.5875 -1.6659
 2664TIP3    H229628   4.389   1.925   8.069  0.9668  0.4092  2.2561
 2665TIP3   OH229629   6.298   0.404   1.254  0.0326 -0.2816 -0.8781
 2665TIP3    H129630   6.321   0.457   1.178  0.7226  0.1757 -0.3676
 2665TIP3    H229631   6.367   0.423   1.318 -0.8354 -0.2085  0.0644
 2666TIP3   OH229632   5.853   3.252   0.660 -0.1818 -0.2703  0.7950
 2666TIP3    H129633   5.838   3.175   0.714 -0.8238  0.8964  2.3526
 2666TIP3    H229634   5.893   3.218   0.580  0.4543 -2.0949  1.8383
 2667TIP3   OH229635   4.673   4.259   0.117  0.1755 -0.0836  0.2019
 2667TIP3    H129636   4.760   4.248   0.157 -0.1079 -0.9437  0.6025
 2667TIP3    H229637   4.617   4.199   0.166 -1.0406  1.7210  1.1075
 2668TIP3   OH229638   4.320   4.908   8.798 -0.0361  0.1267 -0.1228
 2668TIP3    H129639   4.283   4.911   8.887 -1.0242 -1.4976 -0.4400
 2668TIP3    H229640   4.384   4.979   8.797 -0.2892  0.4470  1.7575
 2669TIP3   OH229641   5.010   3.345   1.906  0.2879  0.3165  0.2695
 2669TIP3    H129642   5.052   3.429   1.892  0.8726 -0.1131 -0.6501
 2669TIP3    H229643   5.081   3.285   1.926  0.2079 -0.4789 -1.5955
 2670TIP3   OH229644   1.370   5.337   0.046  0.4776  0.0406  0.3554
 2670TIP3    H129645   1.377   5.303  -0.043  0.6984 -0.2387  0.4769
 2670TIP3    H229646   1.310   5.278   0.090  2.2959 -1.3627  1.1015
 2671TIP3   OH229647   3.569   3.169   8.796 -0.2088  0.6224 -0.1191
 2671TIP3    H129648   3.478   3.191   8.820 -0.3674  0.2083 -0.3308
 2671TIP3    H229649   3.564   3.140   8.705  0.0998  0.3813 -0.0626
 2672TIP3   OH229650   1.921   4.776   8.540  0.0241  0.0606  0.2266
 2672TIP3    H129651   1.876   4.842   8.593 -1.7047  1.0656 -2.2803
 2672TIP3    H229652   1.993   4.823   8.499 -0.4782  0.1079 -0.6230
 2673TIP3   OH229653   3.366   5.595   8.910  0.2621 -0.0492 -0.0843
 2673TIP3    H129654   3.335   5.677   8.947 -1.0967 -0.6886  0.2416
 2673TIP3    H229655   3.366   5.609   8.815 -0.2252  0.2437 -0.0433
 2674TIP3   OH229656   2.942   3.474   8.449 -0.1869  0.6418 -0.9129
 2674TIP3    H129657   2.995   3.442   8.523 -0.8665 -0.1407 -0.7520
 2674TIP3    H229658   2.879   3.404   8.433  0.0196  0.7476 -2.3249
 2675TIP3   OH229659   3.488   4.486   1.785  0.3473  0.5718 -0.1375
 2675TIP3    H129660   3.569   4.478   1.835 -0.3783 -0.9178  0.8918
 2675TIP3    H229661   3.423   4.439   1.838 -0.7339  0.0101 -1.9040
 2676TIP3   OH229662   5.715   5.919   0.240 -0.4346  0.1313  0.4723
 2676TIP3    H129663   5.747   5.853   0.301 -1.2315 -0.7298 -0.0164
 2676TIP3    H229664   5.621   5.926   0.259 -0.5918  0.2239 -0.3012
 2677TIP3   OH229665   0.845   5.000   0.456  0.0525  0.2065 -0.1575
 2677TIP3    H129666   0.756   4.988   0.422  0.1841  0.6104 -0.6580
 2677TIP3    H229667   0.879   4.911   0.465 -0.2465  0.0676 -0.3880
 2678TIP3   OH229668   5.553   1.058   1.651  0.0383 -0.2994 -0.5863
 2678TIP3    H129669   5.534   1.152   1.649  0.8602 -0.1060  0.2665
 2678TIP3    H229670   5.632   1.050   1.704 -0.6360 -1.5837  0.2851
 2679TIP3   OH229671   0.672   0.339   7.543 -0.3917  0.2049  0.0142
 2679TIP3    H129672   0.721   0.379   7.471 -1.3291 -1.5219 -1.6726
 2679TIP3    H229673   0.730   0.347   7.619  1.2277  0.8564 -1.2238
 2680TIP3   OH229674   4.113   4.234   8.923  0.1520  0.0993  0.1464
 2680TIP3    H129675   4.084   4.202   9.009 -2.5039 -0.0203 -0.6847
 2680TIP3    H229676   4.099   4.160   8.864 -3.3315  1.6708 -1.2856
 2681TIP3   OH229677   6.039   4.892   1.288  0.3274 -0.6416  0.0267
 2681TIP3    H129678   6.017   4.978   1.252 -1.5520 -1.2436 -0.3563
 2681TIP3    H229679   6.015   4.899   1.381  2.2431 -0.0992  0.5389
 2682TIP3   OH229680   2.466   5.433   8.445 -0.0911  0.3207  0.0129
 2682TIP3    H129681   2.558   5.453   8.429  0.3430 -0.6837  1.0900
 2682TIP3    H229682   2.454   5.345   8.409 -0.8434  0.7511 -0.8170
 2683TIP3   OH229683   0.812   1.001   0.968  0.1753  0.0646 -0.0929
 2683TIP3    H129684   0.832   1.086   1.009  1.6338  0.0360 -0.7001
 2683TIP3    H229685   0.796   1.022   0.876  0.0666 -0.2678 -0.1513
 2684TIP3   OH229686   6.527   5.640   7.779 -0.5186  0.3752  0.0710
 2684TIP3    H129687   6.567   5.629   7.693 -0.0961  0.9414  0.1926
 2684TIP3    H229688   6.489   5.727   7.777 -0.0550  0.5998  0.6370
 2685TIP3   OH229689   4.221   0.179   8.067 -0.0020  0.0440 -0.3954
 2685TIP3    H129690   4.203   0.271   8.044  2.1566  0.3351 -1.1162
 2685TIP3    H229691   4.277   0.147   7.997 -1.2398 -2.0813 -0.5065
 2686TIP3   OH229692   3.379   1.072   0.375  0.3361  0.7349  0.1561
 2686TIP3    H129693   3.350   1.130   0.304 -0.0395 -0.1405 -0.4208
 2686TIP3    H229694   3.301   1.058   0.428 -0.0360 -0.6334 -0.7015
 2687TIP3   OH229695   0.772   3.782   0.642  0.4052  0.6583  0.3871
 2687TIP3    H129696   0.691   3.763   0.594  1.0466 -1.3781  0.0503
 2687TIP3    H229697   0.804   3.697   0.671  3.2701  1.2199 -0.8153
 2688TIP3   OH229698   0.325   4.940   8.135  0.1237 -0.5491  0.0492
 2688TIP3    H129699   0.401   4.927   8.078 -0.4544 -0.7586 -0.6911
 2688TIP3    H229700   0.323   4.862   8.191  0.3792 -0.6097 -0.0259
 2689TIP3   OH229701   4.764   1.643   8.987  0.1173 -0.7266 -0.0681
 2689TIP3    H129702   4.705   1.592   8.932 -0.0759 -1.7440  1.0532
 2689TIP3    H229703   4.716   1.724   9.005 -1.1929 -1.7216  1.2038
 2690TIP3   OH229704   2.442   2.482   0.498 -0.2692  0.3147  0.1802
 2690TIP3    H129705   2.366   2.426   0.512 -0.7247  0.4903 -1.4081
 2690TIP3    H229706   2.437   2.507   0.406  2.7851 -1.2980 -0.5580
 2691TIP3   OH229707   2.551   4.270   8.252 -0.3400 -0.2264 -0.7049
 2691TIP3    H129708   2.561   4.231   8.339 -0.5779  1.5237  0.1540
 2691TIP3    H229709   2.532   4.196   8.195  0.0648 -1.4563  0.6824
 2692TIP3   OH229710   1.562   6.695   7.701 -0.2400  0.4929  0.6192
 2692TIP3    H129711   1.566   6.605   7.735  0.6355 -0.1956 -1.1664
 2692TIP3    H229712   1.605   6.690   7.616  1.5745  3.0253  1.2723
 2693TIP3   OH229713   0.893   1.638   0.399 -0.3926 -0.0368 -0.0752
 2693TIP3    H129714   0.903   1.702   0.328  0.7336  1.2382  1.1740
 2693TIP3    H229715   0.895   1.691   0.479 -2.2026 -1.3825  0.9257
 2694TIP3   OH229716   5.368   1.029   0.434  0.4396 -0.5068  0.5694
 2694TIP3    H129717   5.339   1.019   0.524 -0.5735  0.3587  0.3543
 2694TIP3    H229718   5.372   1.123   0.420  1.2766 -0.6215 -0.0832
 2695TIP3   OH229719   2.484   2.724   8.715  0.4417 -0.3410 -0.2855
 2695TIP3    H129720   2.390   2.741   8.718  0.6635  0.9854 -0.2578
 2695TIP3    H229721   2.513   2.763   8.633  0.9487 -0.8862 -0.3743
 2696TIP3   OH229722   0.169   0.088   8.749  0.5227 -0.2658 -0.4211
 2696TIP3    H129723   0.224   0.073   8.826  0.8364  0.6019 -0.4668
 2696TIP3    H229724   0.135   0.177   8.761  2.1050  0.6534 -2.1923
 2697TIP3   OH229725   3.814   5.938   0.757  0.0150 -0.0088  0.3516
 2697TIP3    H129726   3.725   5.909   0.777 -0.6140  1.5624  0.0065
 2697TIP3    H229727   3.871   5.880   0.807 -1.2422 -0.5261  1.2159
 2698TIP3   OH229728   0.449   5.362   6.972 -0.5139 -0.1555 -0.1603
 2698TIP3    H129729   0.459   5.268   6.958  1.7965 -0.3386  1.9965
 2698TIP3    H229730   0.496   5.379   7.054  1.4218  3.2446 -1.7459
 2699TIP3   OH229731   2.135   2.697   8.393  0.4598  0.7251  0.3713
 2699TIP3    H129732   2.199   2.768   8.381  1.7431 -0.0708  1.9914
 2699TIP3    H229733   2.185   2.617   8.378 -0.2239  0.0856  1.3658
 2700TIP3   OH229734   3.169   5.738   7.010  0.0619 -0.2099 -0.7135
 2700TIP3    H129735   3.079   5.768   7.024  0.6797  1.9073 -0.8502
 2700TIP3    H229736   3.211   5.810   6.962  1.6184 -1.4956 -1.3821
 2701TIP3   OH229737   3.913   5.230   1.462  0.7567  0.4892 -0.0326
 2701TIP3    H129738   3.908   5.250   1.556  1.1397  0.4915 -0.0120
 2701TIP3    H229739   4.006   5.235   1.441  0.7112  0.1325 -0.3367
 2702TIP3   OH229740   0.580   5.977   6.888  0.4799 -0.1233  1.1326
 2702TIP3    H129741   0.613   6.052   6.937  3.0118  0.9541 -1.8856
 2702TIP3    H229742   0.493   6.003   6.860  0.4719  0.7645  1.9426
 2703TIP3   OH229743   4.713   2.444   8.124 -0.1330 -0.0563  0.2847
 2703TIP3    H129744   4.769   2.368   8.111  0.2928  0.5750 -2.0474
 2703TIP3    H229745   4.626   2.415   8.099 -0.2293 -0.1637  0.7519
 2704TIP3   OH229746   5.711   2.196   7.048 -0.3338  0.1878  0.1469
 2704TIP3    H129747   5.681   2.279   7.011 -0.3439  0.2043  0.1919
 2704TIP3    H229748   5.793   2.177   7.002 -1.3926 -0.8561 -1.4061
 2705TIP3   OH229749   5.986   2.961   8.389  0.5340 -0.1892  0.2693
 2705TIP3    H129750   5.950   3.038   8.434  2.9302  0.9982  0.3055
 2705TIP3    H229751   5.919   2.939   8.323 -0.4645  1.5813  0.6121
 2706TIP3   OH229752   1.585   3.886   0.489 -0.4667  0.2008  0.0612
 2706TIP3    H129753   1.546   3.878   0.576 -1.8940  0.5575 -0.5156
 2706TIP3    H229754   1.679   3.891   0.506 -0.6478 -0.6262  1.5128
 2707TIP3   OH229755   4.435   5.760   1.152  0.1382 -0.5929  0.3467
 2707TIP3    H129756   4.409   5.822   1.084 -0.4942 -2.2285 -0.9702
 2707TIP3    H229757   4.361   5.760   1.213  0.4476  0.4362  0.7436
 2708TIP3   OH229758   2.514   3.189   8.635  0.3082 -0.3488 -0.4286
 2708TIP3    H129759   2.554   3.122   8.581  0.9530  0.7178 -1.3199
 2708TIP3    H229760   2.567   3.192   8.714 -0.5257 -1.7829  0.2279
 2709TIP3   OH229761   3.254   0.189   0.923 -0.0002  0.3998  0.2967
 2709TIP3    H129762   3.268   0.104   0.882 -2.7047  0.2292 -0.5187
 2709TIP3    H229763   3.272   0.175   1.016  0.8466 -0.7020 -0.0241
 2710TIP3   OH229764   2.263   6.401   8.324 -0.0064 -0.6148  0.6662
 2710TIP3    H129765   2.196   6.379   8.260 -0.0022 -1.2844  0.8784
 2710TIP3    H229766   2.215   6.423   8.404  0.0194 -1.7872  1.0310
 2711TIP3   OH229767   4.855   6.384   0.385  0.0742  0.1028  0.9330
 2711TIP3    H129768   4.812   6.319   0.329 -0.8428  0.0224  1.7120
 2711TIP3    H229769   4.786   6.418   0.440  0.6985  1.1977  1.0780
 2712TIP3   OH229770   5.545   3.727   0.578 -0.3354 -0.0997  0.2955
 2712TIP3    H129771   5.543   3.673   0.657  1.2429  2.3218  2.1287
 2712TIP3    H229772   5.637   3.753   0.569 -0.6505  0.5024 -1.8116
 2713TIP3   OH229773   0.221   5.601   7.265  0.2719 -0.4452 -0.1488
 2713TIP3    H129774   0.219   5.506   7.251 -0.0077 -0.4120 -0.3412
 2713TIP3    H229775   0.295   5.615   7.324 -0.1123 -0.8595  0.4477
 2714TIP3   OH229776   6.129   6.248   8.803  0.5092  0.1452 -0.1407
 2714TIP3    H129777   6.203   6.274   8.748 -0.1963 -1.1589 -1.8015
 2714TIP3    H229778   6.151   6.160   8.833 -0.6040 -0.5107 -1.1699
 2715TIP3   OH229779   0.874   5.127   2.255  0.1909  0.3323 -0.1122
 2715TIP3    H129780   0.877   5.103   2.162 -0.7068 -0.1959 -0.0136
 2715TIP3    H229781   0.896   5.221   2.255 -1.7961  0.8509 -1.0841
 2716TIP3   OH229782   1.874   6.049   6.447 -0.4394 -0.0859 -0.0057
 2716TIP3    H129783   1.894   5.965   6.489 -0.9656 -0.7106 -0.9603
 2716TIP3    H229784   1.941   6.109   6.480 -0.7419 -0.5796  1.5873
 2717TIP3   OH229785   2.556   6.573   0.014 -0.1587 -0.1969 -0.2325
 2717TIP3    H129786   2.470   6.578  -0.028 -0.2005  0.5756 -0.0676
 2717TIP3    H229787   2.551   6.636   0.086 -0.4229 -2.1292  1.5521
 2718TIP3   OH229788   3.371   4.458   7.325 -0.0547  0.7601 -0.1698
 2718TIP3    H129789   3.360   4.523   7.256  1.5237 -0.8597 -2.0459
 2718TIP3    H229790   3.444   4.490   7.377 -0.1942  1.1606 -0.2134
 2719TIP3   OH229791   5.993   1.919   6.810 -0.6391 -0.0595 -0.2954
 2719TIP3    H129792   6.081   1.914   6.773 -0.9461 -2.1030 -0.8776
 2719TIP3    H229793   5.981   2.012   6.831  1.7380  0.2236  0.0742
 2720TIP3   OH229794   3.185   3.890   7.988 -0.0747  0.1002  0.2853
 2720TIP3    H129795   3.183   3.795   8.005  1.8566 -0.3718 -1.8059
 2720TIP3    H229796   3.092   3.914   7.979 -0.7121 -1.1999  2.5204
 2721TIP3   OH229797   4.375   0.996   7.484  0.0988 -0.5863  0.0218
 2721TIP3    H129798   4.339   0.964   7.401  0.2220  0.9597 -0.6660
 2721TIP3    H229799   4.455   1.043   7.458 -1.0064  1.8194  0.6962
 2722TIP3   OH229800   0.254   3.934   8.120 -0.0707  0.0124 -0.2831
 2722TIP3    H129801   0.162   3.952   8.137 -0.1027  1.9121 -2.0978
 2722TIP3    H229802   0.293   4.020   8.107  2.0310 -0.7341  0.6088
 2723TIP3   OH229803   1.806   2.080   6.261  0.6116  0.2565 -0.1475
 2723TIP3    H129804   1.860   2.014   6.218 -0.5376 -0.3292 -0.7325
 2723TIP3    H229805   1.854   2.162   6.250  3.2310 -0.7385  2.5533
 2724TIP3   OH229806   4.340   4.521   8.366  0.0275  0.6388  0.0375
 2724TIP3    H129807   4.335   4.613   8.392  0.5029  0.9505 -0.9536
 2724TIP3    H229808   4.377   4.477   8.443 -1.0684  1.1083  0.8623
 2725TIP3   OH229809   2.012   1.076   7.625 -0.0148  0.2562  0.0671
 2725TIP3    H129810   1.961   1.080   7.706  1.2978  2.1350  0.8903
 2725TIP3    H229811   2.022   0.983   7.608 -1.4559 -0.1701  1.3209
 2726TIP3   OH229812   4.793   6.259   7.307  0.2017  0.7193  0.4402
 2726TIP3    H129813   4.861   6.306   7.258 -0.3210 -0.4211 -1.4997
 2726TIP3    H229814   4.841   6.190   7.354  0.4571  0.0377 -0.7672
 2727TIP3   OH229815   2.929   3.513   6.568 -0.4178  0.6096  0.5169
 2727TIP3    H129816   3.007   3.481   6.522 -2.6402  2.1742 -5.2520
 2727TIP3    H229817   2.879   3.433   6.588  0.9946 -0.2092  0.9475
 2728TIP3   OH229818   4.536   1.380   1.799  0.4694  0.3773 -0.1129
 2728TIP3    H129819   4.576   1.397   1.883  0.4545  0.7341 -0.1790
 2728TIP3    H229820   4.443   1.367   1.818  0.4807  0.3688 -0.0653
 2729TIP3   OH229821   0.450   3.483   8.648 -0.5066  0.7159  0.2504
 2729TIP3    H129822   0.474   3.407   8.701  3.1693  1.1730 -0.5070
 2729TIP3    H229823   0.376   3.453   8.595  0.4556 -2.1536  0.3741
 2730TIP3   OH229824   2.314   3.629   0.862 -0.2435  0.4960 -0.2522
 2730TIP3    H129825   2.340   3.663   0.947 -0.6935  0.5031 -0.1131
 2730TIP3    H229826   2.308   3.706   0.806 -0.0652  0.5056 -0.2577
 2731TIP3   OH229827   2.130   2.311   1.338  0.1806 -0.4691 -0.2592
 2731TIP3    H129828   2.178   2.391   1.313  0.2519 -0.0358  1.1629
 2731TIP3    H229829   2.103   2.272   1.254  1.7211  0.0651 -1.0471
 2732TIP3   OH229830   2.946   3.714   1.291  0.1778  0.1615 -0.0508
 2732TIP3    H129831   2.941   3.627   1.332 -0.5635  0.9473  1.6350
 2732TIP3    H229832   2.893   3.706   1.212  0.0184 -0.8911  0.1441
 2733TIP3   OH229833   4.407   2.618   0.487  0.0670  0.2053  0.0902
 2733TIP3    H129834   4.357   2.694   0.459  0.6024 -0.0319 -1.7011
 2733TIP3    H229835   4.383   2.550   0.423 -0.3169 -1.1145  1.5731
 2734TIP3   OH229836   4.995   6.038   1.036  0.1848  0.1924 -0.0192
 2734TIP3    H129837   5.074   6.092   1.041  2.2813 -2.3303 -2.3075
 2734TIP3    H229838   4.973   6.020   1.127  2.9908  0.1332  0.7612
 2735TIP3   OH229839   6.308   0.065   0.572 -0.1934 -0.3721 -0.1132
 2735TIP3    H129840   6.258   0.053   0.491  1.1527  0.8765 -1.1995
 2735TIP3    H229841   6.388   0.110   0.544  0.6920 -0.6436  1.8124
 2736TIP3   OH229842   6.006   3.580   1.613  0.0855  0.4772  0.2716
 2736TIP3    H129843   5.944   3.507   1.617 -0.9203  1.1427 -1.8123
 2736TIP3    H229844   6.058   3.562   1.535  1.6699  0.6327  1.2577
 2737TIP3   OH229845   3.158   3.644   8.106 -0.1091 -0.5862  0.2199
 2737TIP3    H129846   3.219   3.582   8.066 -1.6703 -1.8847 -0.2206
 2737TIP3    H229847   3.212   3.693   8.168  2.1198  0.6413 -2.4615
 2738TIP3   OH229848   2.077   5.392   7.455  0.0728 -0.1721  0.0261
 2738TIP3    H129849   1.982   5.382   7.449 -0.1696  0.4742  2.0563
 2738TIP3    H229850   2.113   5.317   7.408 -1.4519 -0.9210  0.0277
 2739TIP3   OH229851   3.467   3.231   0.912 -0.1128  0.3057 -0.1384
 2739TIP3    H129852   3.424   3.311   0.942  1.0338  1.2892 -0.9800
 2739TIP3    H229853   3.561   3.253   0.912  0.0686 -0.0496 -2.9748
 2740TIP3   OH229854   2.036   2.453   7.144 -0.1950 -0.6683  0.3566
 2740TIP3    H129855   1.945   2.468   7.117  0.6092  0.2573 -2.1565
 2740TIP3    H229856   2.078   2.538   7.134  1.1197 -1.2551  0.7262
 2741TIP3   OH229857   0.354   0.054   8.155  0.0596  0.1702 -0.7557
 2741TIP3    H129858   0.442   0.024   8.176  0.0510 -0.4283 -1.5367
 2741TIP3    H229859   0.296  -0.010   8.197 -0.0446  1.0519  0.5122
 2742TIP3   OH229860   1.446   0.690   6.462 -0.1619  0.5657  0.1147
 2742TIP3    H129861   1.494   0.612   6.491  0.7665  0.4078 -1.7028
 2742TIP3    H229862   1.504   0.763   6.481 -1.1191  0.8799  2.0093
 2743TIP3   OH229863   1.492   3.756   8.118 -0.7391  0.3890 -0.1568
 2743TIP3    H129864   1.474   3.774   8.210 -1.0291  0.9705 -0.3230
 2743TIP3    H229865   1.413   3.785   8.072 -0.6775 -0.0919 -0.5658
 2744TIP3   OH229866   1.325   0.424   7.116 -0.0272  0.0344 -0.8874
 2744TIP3    H129867   1.278   0.412   7.034  0.2790 -0.8559 -0.9551
 2744TIP3    H229868   1.311   0.342   7.164 -2.3884  1.4667  1.1328
 2745TIP3   OH229869   3.143   3.070   0.516 -0.0380  0.6595 -0.3933
 2745TIP3    H129870   3.070   3.112   0.560 -0.5688  1.2793 -1.7922
 2745TIP3    H229871   3.221   3.103   0.560 -0.5507  0.8741  0.3699
 2746TIP3   OH229872   1.421   5.284   8.763  0.1873  0.1212 -0.9067
 2746TIP3    H129873   1.386   5.350   8.703 -1.5824  0.8371  0.8238
 2746TIP3    H229874   1.393   5.201   8.725 -0.8082  0.5526 -1.1530
 2747TIP3   OH229875   6.591   3.736   0.152  0.2608  0.0212  0.5468
 2747TIP3    H129876   6.621   3.691   0.231  0.6554 -0.0122  0.3795
 2747TIP3    H229877   6.588   3.828   0.176 -1.5114 -0.1623  1.2032
 2748TIP3   OH229878   1.705   1.062   0.501 -0.1533  0.0714  0.1256
 2748TIP3    H129879   1.609   1.060   0.496 -0.3200 -0.3348  2.4435
 2748TIP3    H229880   1.728   1.147   0.463 -1.5482  0.6985  0.5838
 2749TIP3   OH229881   5.504   1.668   1.716  0.2918  0.0103 -0.0382
 2749TIP3    H129882   5.551   1.651   1.634  2.5382  2.2869  0.6711
 2749TIP3    H229883   5.474   1.758   1.709  0.2309  0.1391  1.5141
 2750TIP3   OH229884   3.277   5.487   7.555  0.1118  0.3650 -0.1786
 2750TIP3    H129885   3.223   5.408   7.546  3.3326 -2.1014  0.4214
 2750TIP3    H229886   3.332   5.487   7.477  2.8894 -0.3654  1.6326
 2751TIP3   OH229887   3.877   6.314   7.837  0.5161 -0.0149 -0.0924
 2751TIP3    H129888   3.971   6.325   7.851  0.6056 -0.9071  0.0549
 2751TIP3    H229889   3.842   6.292   7.923  0.4065 -1.1583 -0.4081
 2752TIP3   OH229890   4.086   5.718   0.524 -0.0645 -0.0831  0.6112
 2752TIP3    H129891   3.996   5.745   0.507  0.1225  0.0179 -0.2497
 2752TIP3    H229892   4.077   5.632   0.565 -0.5619  0.0309  0.7507
 2753TIP3   OH229893   0.307   2.056   0.664 -0.4134 -0.1113  0.4480
 2753TIP3    H129894   0.225   2.084   0.706  0.2814  0.4584  1.4639
 2753TIP3    H229895   0.307   1.961   0.673  0.2304  0.0513  2.8052
 2754TIP3   OH229896   2.753   4.936   8.219  0.7624 -0.6994  0.0698
 2754TIP3    H129897   2.772   4.850   8.256  0.0543 -0.0492  2.0883
 2754TIP3    H229898   2.829   4.989   8.243 -0.1048 -0.0375  1.5172
 2755TIP3   OH229899   5.652   0.333   8.592  0.4413 -0.9437 -0.4643
 2755TIP3    H129900   5.705   0.265   8.551  1.3446  0.0742 -1.0328
 2755TIP3    H229901   5.709   0.369   8.660 -0.6413 -1.8641  0.9932
 2756TIP3   OH229902   0.991   0.668   7.562 -0.1269  0.1083 -0.1164
 2756TIP3    H129903   1.044   0.744   7.586 -0.0793 -0.0583  0.3047
 2756TIP3    H229904   0.922   0.703   7.505  0.7238  0.2584 -1.0934
 2757TIP3   OH229905   3.927   5.741   2.146  0.0485 -0.2527  0.2566
 2757TIP3    H129906   3.882   5.674   2.197  1.2072 -0.2576  1.3306
 2757TIP3    H229907   3.956   5.696   2.067  2.1701 -1.4945  1.6591
 2758TIP3   OH229908   1.092   6.101   0.097  0.1829 -0.1441  0.1902
 2758TIP3    H129909   1.077   6.159   0.171 -0.6945 -0.7435  0.4998
 2758TIP3    H229910   1.162   6.142   0.048 -0.9012  1.5709 -0.0055
 2759TIP3   OH229911   1.521   1.802   7.538  0.6925  0.1990  0.1744
 2759TIP3    H129912   1.549   1.743   7.608 -2.1398 -0.4079  0.9218
 2759TIP3    H229913   1.496   1.745   7.466  1.7932  0.7448 -0.6821
 2760TIP3   OH229914   2.857   0.538   6.626  0.4353 -0.0696 -0.1051
 2760TIP3    H129915   2.890   0.621   6.660 -0.5640  0.0325  0.6554
 2760TIP3    H229916   2.900   0.528   6.541 -0.1020  1.6665 -0.6186
 2761TIP3   OH229917   0.973   4.484   7.978 -0.0739  0.3466  0.1601
 2761TIP3    H129918   1.016   4.402   7.955 -0.1574  0.8543 -2.0279
 2761TIP3    H229919   1.037   4.552   7.957 -0.3439  0.9179  1.0745
 2762TIP3   OH229920   5.987   0.524   0.623 -0.1984 -0.1420  0.3469
 2762TIP3    H129921   6.047   0.585   0.580  1.9714 -0.5668  2.4883
 2762TIP3    H229922   6.026   0.438   0.609 -0.4621 -0.4729  1.4970
 2763TIP3   OH229923   2.351   0.421   7.852 -0.1538  0.8250 -0.2559
 2763TIP3    H129924   2.432   0.431   7.801  0.6532  0.4382  0.9073
 2763TIP3    H229925   2.339   0.326   7.860 -0.9117  0.8789 -0.7002
 2764TIP3   OH229926   2.286   5.880   0.346  0.1286 -0.0397 -0.3461
 2764TIP3    H129927   2.222   5.841   0.286  0.6737 -2.3473  0.4479
 2764TIP3    H229928   2.370   5.867   0.302  0.2918  0.6343 -0.2391
 2765TIP3   OH229929   5.861   5.852   8.307  0.3213  0.9315  0.2526
 2765TIP3    H129930   5.949   5.823   8.283  0.6494  2.1746 -0.1410
 2765TIP3    H229931   5.808   5.836   8.229  0.3115  0.6396  0.3190
 2766TIP3   OH229932   2.913   1.186   7.911 -0.7154 -0.0176  0.2506
 2766TIP3    H129933   2.923   1.279   7.889 -0.8211 -0.2970 -1.0703
 2766TIP3    H229934   2.823   1.179   7.943 -1.1412  0.1417 -0.8451
 2767TIP3   OH229935   2.285   3.199   6.853 -0.0211 -0.6530 -0.3347
 2767TIP3    H129936   2.329   3.284   6.857  0.4335 -0.8608 -0.7805
 2767TIP3    H229937   2.192   3.221   6.857  0.0734 -0.0929 -0.8484
 2768TIP3   OH229938   1.414   0.388   2.483  0.2502 -0.2171  0.0675
 2768TIP3    H129939   1.414   0.347   2.396  1.1136 -1.2070  0.5222
 2768TIP3    H229940   1.345   0.455   2.477  0.3580 -0.1976 -1.4042
 2769TIP3   OH229941   2.217   5.508   0.452  0.1097 -0.5117  0.0663
 2769TIP3    H129942   2.307   5.540   0.453  1.2431 -3.3331  2.6458
 2769TIP3    H229943   2.197   5.497   0.359  1.6962  1.8241 -0.6529
 2770TIP3   OH229944   2.430   1.002   0.894 -0.6544 -0.0973 -0.1602
 2770TIP3    H129945   2.449   0.918   0.853  3.6708  0.3426  0.4753
 2770TIP3    H229946   2.380   0.979   0.973 -0.8394 -1.8903 -0.7568
 2771TIP3   OH229947   3.500   5.719   7.968  0.7673 -0.3351 -0.1526
 2771TIP3    H129948   3.544   5.768   8.038  1.4959 -2.3178  0.8600
 2771TIP3    H229949   3.476   5.636   8.009 -1.8385 -0.2768 -1.3692
 2772TIP3   OH229950   5.079   1.202   7.870 -0.3811  0.6209 -0.0030
 2772TIP3    H129951   5.102   1.161   7.787 -0.5105  0.0250  0.2499
 2772TIP3    H229952   5.154   1.258   7.890  0.2125 -0.1900  0.0888
 2773TIP3   OH229953   4.495   6.034   6.737 -0.3210  0.1558 -0.6641
 2773TIP3    H129954   4.586   6.060   6.753  0.3389 -1.7893 -0.9690
 2773TIP3    H229955   4.445   6.114   6.751  1.3565  1.1261  0.1985
 2774TIP3   OH229956   2.987   0.055   6.165  0.7280  0.5295  0.5856
 2774TIP3    H129957   2.918   0.015   6.112 -0.3037 -1.4719  3.2352
 2774TIP3    H229958   3.068   0.037   6.117 -0.0606 -1.9357  0.0386
 2775TIP3   OH229959   6.734   6.658   6.774 -0.1369 -0.3432 -0.2622
 2775TIP3    H129960   6.740   6.631   6.682 -0.4819 -0.1782 -0.3346
 2775TIP3    H229961   6.820   6.694   6.794  0.5357 -1.9680 -0.0095
 2776TIP3   OH229962   1.247   5.002   1.610 -0.4458 -0.0695 -0.2310
 2776TIP3    H129963   1.331   5.021   1.569 -1.1393  2.5554 -0.6121
 2776TIP3    H229964   1.204   4.941   1.550  0.4304  0.0611 -1.0054
 2777TIP3   OH229965   5.494   4.153   8.405 -0.5353  0.3303 -0.4905
 2777TIP3    H129966   5.520   4.181   8.317  1.0054 -1.6229 -0.7082
 2777TIP3    H229967   5.553   4.081   8.427  1.8072  3.0936  3.7479
 2778TIP3   OH229968   6.425   2.760   6.908 -0.4819 -0.4084 -0.2105
 2778TIP3    H129969   6.354   2.752   6.844 -0.3247  2.5046 -0.8672
 2778TIP3    H229970   6.495   2.807   6.861  0.7350 -0.6298  1.2959
 2779TIP3   OH229971   4.454   2.097   8.807  0.1888  0.8980 -0.0598
 2779TIP3    H129972   4.399   2.150   8.865 -0.6095  0.1193 -0.0744
 2779TIP3    H229973   4.488   2.160   8.743 -0.5729  1.4371  0.0408
 2780TIP3   OH229974   3.008   1.292   1.848  0.3116  0.5459 -0.1242
 2780TIP3    H129975   2.981   1.242   1.925 -0.8491 -0.3764 -1.0840
 2780TIP3    H229976   3.076   1.351   1.880  0.3169 -0.2676  1.4599
 2781TIP3   OH229977   3.230   2.749   6.944  0.1040 -0.1830  0.4048
 2781TIP3    H129978   3.192   2.759   6.857  0.6742 -1.4633 -0.0124
 2781TIP3    H229979   3.205   2.829   6.991  0.8796  1.1477 -1.3419
 2782TIP3   OH229980   4.708   3.336   1.371 -0.5064  0.1751 -0.0581
 2782TIP3    H129981   4.750   3.359   1.288  1.2247  1.7503  1.1788
 2782TIP3    H229982   4.614   3.347   1.353 -0.2544 -0.5392 -2.0674
 2783TIP3   OH229983   5.548   1.744   7.664  0.2150 -0.1228 -0.2111
 2783TIP3    H129984   5.483   1.748   7.734  0.8547 -0.9777  0.4535
 2783TIP3    H229985   5.621   1.696   7.702  0.2983 -1.2308 -1.6920
 2784TIP3   OH229986   3.098   6.770   1.269 -0.0967 -0.2067  0.4660
 2784TIP3    H129987   3.185   6.739   1.242 -1.2375 -0.4747 -3.5050
 2784TIP3    H229988   3.114   6.856   1.307  1.9561 -0.4915  0.3601
 2785TIP3   OH229989   0.472   1.815   8.002 -0.0934  0.0087  0.6025
 2785TIP3    H129990   0.480   1.845   7.911 -1.6331 -1.9558 -0.2601
 2785TIP3    H229991   0.554   1.842   8.043  1.3527 -0.3871 -1.7927
 2786TIP3   OH229992   3.502   5.246   8.849  0.4301 -0.0296 -0.3087
 2786TIP3    H129993   3.570   5.309   8.872  0.9223 -1.1561  1.5255
 2786TIP3    H229994   3.422   5.280   8.889  0.8877 -0.9849  1.5152
 2787TIP3   OH229995   5.428   6.207   0.209  0.2220 -0.3201  0.7242
 2787TIP3    H129996   5.479   6.218   0.289 -0.0315 -0.8980  0.9729
 2787TIP3    H229997   5.394   6.117   0.214 -1.5624  0.3280  1.0034
 2788TIP3   OH229998   2.187   1.922   7.519 -0.5578 -0.4747 -0.2832
 2788TIP3    H129999   2.221   1.911   7.431 -1.0468  0.9792 -0.6897
 2788TIP3    H230000   2.125   1.995   7.512  0.2733  0.4760  1.4670
 2789TIP3   OH230001   6.434   1.761   8.454  0.1360 -0.1416 -0.6743
 2789TIP3    H130002   6.372   1.806   8.398 -0.6221 -0.9518 -0.5095
 2789TIP3    H230003   6.494   1.717   8.393 -0.3319 -0.5397 -0.8544
 2790TIP3   OH230004   2.828   6.005   0.881 -0.0189 -0.6933 -0.4426
 2790TIP3    H130005   2.744   6.017   0.925  0.2266 -1.2596  0.2018
 2790TIP3    H230006   2.846   6.090   0.841  1.3035  1.0222  3.3452
 2791TIP3   OH230007   4.451   5.670   8.112  0.0685 -0.6611  0.2367
 2791TIP3    H130008   4.545   5.658   8.099  0.5561  2.0629  0.6683
 2791TIP3    H230009   4.433   5.758   8.078 -1.9625 -0.3690  1.8690
 2792TIP3   OH230010   0.980   0.518   0.843 -0.8768 -0.1025 -0.2357
 2792TIP3    H130011   0.956   0.426   0.852 -0.4351 -0.4372 -2.1763
 2792TIP3    H230012   1.017   0.526   0.755  2.4808  1.1979  1.1137
 2793TIP3   OH230013   3.078   6.303   1.163  0.3233 -0.1669  0.3079
 2793TIP3    H130014   3.082   6.310   1.259 -0.0025  0.6654  0.2696
 2793TIP3    H230015   3.118   6.384   1.132  2.3134 -1.3294 -0.3031
 2794TIP3   OH230016   0.647   5.305   7.739 -0.0144  0.1292 -0.1930
 2794TIP3    H130017   0.656   5.212   7.717  0.1713  0.4117 -1.3692
 2794TIP3    H230018   0.716   5.348   7.689 -0.3251  0.9450  0.0699
 2795TIP3   OH230019   4.267   3.769   0.521 -0.4824 -0.4412 -0.2820
 2795TIP3    H130020   4.292   3.825   0.448 -2.0404  2.1065  0.9954
 2795TIP3    H230021   4.324   3.692   0.512  1.3050  0.9797 -2.5459
 2796TIP3   OH230022   1.944   0.343   1.173 -0.3368 -0.2817  0.3015
 2796TIP3    H130023   1.984   0.350   1.260  1.2813 -0.8951 -0.3455
 2796TIP3    H230024   1.950   0.250   1.152  0.6768  0.0702 -1.0634
 2797TIP3   OH230025   2.896   0.290   1.034  0.0520  0.0061  0.5158
 2797TIP3    H130026   2.855   0.210   1.066 -0.5787 -0.5396 -1.4669
 2797TIP3    H230027   2.977   0.298   1.084 -1.4548 -0.0023  3.1006
 2798TIP3   OH230028   6.691   0.142   1.745  0.1287 -0.6015 -0.4190
 2798TIP3    H130029   6.741   0.095   1.813 -0.5112 -1.0506 -0.2489
 2798TIP3    H230030   6.706   0.091   1.665 -0.0533 -0.7384 -0.3672
 2799TIP3   OH230031   4.095   3.776   0.168  0.4173  0.3448 -0.0385
 2799TIP3    H130032   4.100   3.744   0.077 -0.3670  0.6207 -0.1860
 2799TIP3    H230033   4.118   3.700   0.221 -2.4732 -0.8666 -0.3288
 2800TIP3   OH230034   5.816   4.963   8.713 -0.4811 -0.0483 -0.5085
 2800TIP3    H130035   5.765   4.910   8.651 -1.0977  0.9051 -0.8328
 2800TIP3    H230036   5.877   5.011   8.658 -0.6098  0.3331 -0.3214
 2801TIP3   OH230037   1.774   1.412   8.758  0.1067  0.5398  0.0009
 2801TIP3    H130038   1.697   1.394   8.811 -2.5266 -0.8493 -3.8895
 2801TIP3    H230039   1.748   1.484   8.701  1.5786 -0.1050 -1.5860
 2802TIP3   OH230040   2.429   1.255   0.763 -0.2424  0.3831 -0.1360
 2802TIP3    H130041   2.420   1.186   0.829 -0.4253  0.3330 -0.2113
 2802TIP3    H230042   2.523   1.273   0.760 -0.0237 -0.7911 -1.0474
 2803TIP3   OH230043   2.441   3.059   0.566 -0.3915  0.1430  0.3582
 2803TIP3    H130044   2.448   3.044   0.471 -0.0822 -1.4283  0.6156
 2803TIP3    H230045   2.375   3.128   0.573  0.3408  1.0445 -1.0458
 2804TIP3   OH230046   5.208   5.420   7.745  0.6364  0.3452  0.1550
 2804TIP3    H130047   5.197   5.424   7.840  1.9096  0.1525  0.3270
 2804TIP3    H230048   5.243   5.506   7.721  0.8844  0.1825 -0.0662
 2805TIP3   OH230049   5.605   6.669   1.189  0.8449  0.1846  0.0454
 2805TIP3    H130050   5.616   6.764   1.188  1.7857  0.0843  0.0200
 2805TIP3    H230051   5.624   6.643   1.279  0.5828  0.0160  0.0545
 2806TIP3   OH230052   3.858   2.192   1.678  0.2532  0.0594 -0.0915
 2806TIP3    H130053   3.849   2.255   1.749 -1.6110  1.8652 -1.7902
 2806TIP3    H230054   3.773   2.149   1.673  1.1192 -1.7769  0.2551
 2807TIP3   OH230055   6.702   2.361   7.811 -0.3064  0.2536  0.0137
 2807TIP3    H130056   6.693   2.269   7.834  0.3598  0.4841  1.3387
 2807TIP3    H230057   6.671   2.408   7.889  1.6413  1.1025  0.3382
 2808TIP3   OH230058   1.056   3.964   0.005  0.4028  0.1280  0.0349
 2808TIP3    H130059   1.024   3.983   0.094  0.6116 -0.3106  0.2068
 2808TIP3    H230060   1.127   4.027  -0.009 -0.5906  1.1956 -0.3969
 2809TIP3   OH230061   2.218   3.251   0.029 -0.8423 -0.1969 -0.1516
 2809TIP3    H130062   2.132   3.251  -0.012 -0.0751  1.0160 -1.8953
 2809TIP3    H230063   2.201   3.271   0.121 -2.4355 -0.3685 -0.3862
 2810TIP3   OH230064   6.605   5.272   1.380 -0.8192 -0.3000 -0.5010
 2810TIP3    H130065   6.513   5.298   1.378 -0.8072 -0.1102  0.7764
 2810TIP3    H230066   6.638   5.307   1.462 -0.3634 -2.9066  0.5258
 2811TIP3   OH230067   6.528   2.709   1.864 -0.6344  0.2195  0.5155
 2811TIP3    H130068   6.533   2.686   1.957 -2.1903 -1.9834  0.1201
 2811TIP3    H230069   6.586   2.785   1.856 -0.5954  0.6053  3.3004
 2812TIP3   OH230070   4.970   0.045   8.919 -0.1552  0.3427  0.4776
 2812TIP3    H130071   4.901   0.035   8.985 -0.6461 -3.5938 -0.3869
 2812TIP3    H230072   4.934   0.004   8.840  1.3740  2.6389 -1.5631
 2813TIP3   OH230073   2.145   4.871   8.406  0.1524  0.2945 -0.3090
 2813TIP3    H130074   2.160   4.811   8.334  3.0947  0.6339 -0.1004
 2813TIP3    H230075   2.205   4.944   8.389 -1.9042  2.2823  0.4560
 2814TIP3   OH230076   5.506   5.305   6.376  0.4015  0.1346 -0.1886
 2814TIP3    H130077   5.596   5.276   6.363  0.0238 -0.8886 -0.5571
 2814TIP3    H230078   5.470   5.245   6.441 -0.5761 -0.6644 -1.4182
 2815TIP3   OH230079   3.571   0.847   7.992  0.1825 -0.7673 -0.8357
 2815TIP3    H130080   3.575   0.763   8.038  1.4704  0.8730  2.3195
 2815TIP3    H230081   3.489   0.887   8.021  1.8617  1.0766  1.8107
 2816TIP3   OH230082   5.088   2.050   8.119 -0.8102 -0.0804  0.3979
 2816TIP3    H130083   5.171   2.019   8.081 -0.3786  0.8034  0.6013
 2816TIP3    H230084   5.106   2.054   8.213 -0.8999  0.6720  0.3845
 2817TIP3   OH230085   2.911   1.430   8.300 -0.4160 -0.1210 -0.3877
 2817TIP3    H130086   2.995   1.437   8.256 -0.1362 -0.9848 -0.0137
 2817TIP3    H230087   2.908   1.341   8.333 -0.4812  0.5758  1.6164
 2818TIP3   OH230088   0.330   3.607   0.446  0.1912 -0.3481 -0.6895
 2818TIP3    H130089   0.377   3.552   0.509  0.2217  0.7113  0.2321
 2818TIP3    H230090   0.293   3.544   0.384 -2.0840 -1.7123  1.8445
 2819TIP3   OH230091   1.481   0.620   7.215  0.0572 -0.2096 -0.4961
 2819TIP3    H130092   1.421   0.545   7.206  0.7857 -0.9892  0.8612
 2819TIP3    H230093   1.451   0.666   7.293 -0.6232  1.1923 -1.5377
 2820TIP3   OH230094   3.919   2.691   0.186  0.0420 -0.2217 -0.0540
 2820TIP3    H130095   3.877   2.769   0.221  1.1679  0.2237  0.3254
 2820TIP3    H230096   3.991   2.672   0.246  1.8068  0.3664 -1.8689
 2821TIP3   OH230097   1.294   5.961   1.383  0.0751 -0.2972  0.6587
 2821TIP3    H130098   1.270   6.052   1.400  0.5593 -0.3636  1.8041
 2821TIP3    H230099   1.225   5.910   1.426  1.8103 -0.4846  3.4857
 2822TIP3   OH230100   5.366   2.288   0.044  0.2685  0.2835 -0.2544
 2822TIP3    H130101   5.355   2.193   0.037  0.1485  0.2557  0.2311
 2822TIP3    H230102   5.439   2.308  -0.015 -0.6588  0.1085 -1.4997
 2823TIP3   OH230103   5.782   4.526   1.227 -0.1200  0.8178 -0.0117
 2823TIP3    H130104   5.877   4.516   1.236 -0.0518  2.0013  0.7219
 2823TIP3    H230105   5.745   4.470   1.296  0.0080 -0.0375 -0.6151
 2824TIP3   OH230106   6.196   0.978   0.788  0.3328 -0.1819  0.0152
 2824TIP3    H130107   6.179   0.907   0.850  0.3416 -0.5943 -0.4513
 2824TIP3    H230108   6.109   1.016   0.771 -0.2187 -2.1875 -2.2445
 2825TIP3   OH230109   3.705   0.424   2.437 -0.2479  0.1503  0.6361
 2825TIP3    H130110   3.643   0.421   2.364 -0.0007 -0.8884  0.4565
 2825TIP3    H230111   3.700   0.514   2.469 -0.0464  0.7602 -0.9354
 2826TIP3   OH230112   5.392   2.148   8.492  0.2629  0.1617 -0.1252
 2826TIP3    H130113   5.485   2.152   8.514  0.5329  1.3582 -1.3758
 2826TIP3    H230114   5.348   2.157   8.577  1.2311 -2.1550  0.7129
 2827TIP3   OH230115   3.879   1.235   8.004  0.0397  0.3476  1.1580
 2827TIP3    H130116   3.817   1.262   8.072  0.8333  0.1843  1.9593
 2827TIP3    H230117   3.911   1.150   8.032  0.0754  0.0854  0.3591
 2828TIP3   OH230118   3.288   5.598   8.649 -0.2347  0.0976 -0.1948
 2828TIP3    H130119   3.196   5.593   8.675  0.2797  0.1969  1.8084
 2828TIP3    H230120   3.319   5.507   8.655  0.8318  0.5501  3.5382
 2829TIP3   OH230121   6.478   4.221   7.928  0.2881  0.6069 -0.1361
 2829TIP3    H130122   6.448   4.181   8.010  0.6806 -0.4528 -0.4867
 2829TIP3    H230123   6.449   4.312   7.933 -0.2740  0.3847  0.8804
 2830TIP3   OH230124   1.646   3.680   1.187  0.1748 -0.6243  0.0058
 2830TIP3    H130125   1.570   3.736   1.205 -0.0242 -0.8852 -0.0087
 2830TIP3    H230126   1.608   3.596   1.160  0.4498 -0.2140 -1.7937
 2831TIP3   OH230127   2.646   2.171   8.210 -0.2615  0.9313  0.3975
 2831TIP3    H130128   2.641   2.086   8.255 -2.0909  0.5301 -0.4663
 2831TIP3    H230129   2.733   2.171   8.169 -0.5950 -0.9925 -0.4353
 2832TIP3   OH230130   0.490   0.434   7.203 -0.0123 -0.9241  0.4808
 2832TIP3    H130131   0.549   0.360   7.206  2.3629  0.8843  1.0581
 2832TIP3    H230132   0.544   0.510   7.223 -2.5854  0.8559  1.3070
 2833TIP3   OH230133   4.086   1.527   8.786  0.0224  0.6558 -0.4862
 2833TIP3    H130134   4.029   1.538   8.710  0.6702 -2.0094 -1.4848
 2833TIP3    H230135   4.168   1.495   8.749  0.8784  0.7776  1.2361
 2834TIP3   OH230136   6.078   6.726   8.856 -0.1517 -0.1695  0.3902
 2834TIP3    H130137   6.024   6.649   8.837 -1.0368  1.1489 -3.3833
 2834TIP3    H230138   6.168   6.695   8.846 -0.3418 -1.2650  1.7267
 2835TIP3   OH230139   2.423   5.191   7.662 -0.3350 -0.2397 -0.6556
 2835TIP3    H130140   2.356   5.257   7.676  0.6999  0.5807  0.6816
 2835TIP3    H230141   2.505   5.240   7.656  0.4842 -1.3911  0.6252
 2836TIP3   OH230142   2.773   6.641   7.102 -0.2974  0.0673  0.2548
 2836TIP3    H130143   2.756   6.693   7.181 -0.8571 -2.2851  1.7814
 2836TIP3    H230144   2.868   6.632   7.098  0.0534  3.2222 -1.5017
 2837TIP3   OH230145   0.328   2.426   8.648  0.0418  0.0256 -0.4116
 2837TIP3    H130146   0.402   2.400   8.703  0.5909 -0.6738 -1.4316
 2837TIP3    H230147   0.285   2.343   8.626 -1.6537  0.4829  0.9320
 2838TIP3   OH230148   6.424   3.699   8.413  0.4741  0.1098  0.1184
 2838TIP3    H130149   6.414   3.638   8.486  0.3190 -1.5921 -1.2517
 2838TIP3    H230150   6.463   3.646   8.343  1.0660  1.8001 -0.8970
 2839TIP3   OH230151   4.176   1.369   0.556  0.4695  0.2634 -0.2921
 2839TIP3    H130152   4.098   1.399   0.508 -0.5670  0.2186  1.2894
 2839TIP3    H230153   4.172   1.415   0.639  0.5176 -1.9042  0.9760
 2840TIP3   OH230154   5.929   4.107   1.910 -0.0435 -0.7314 -0.3977
 2840TIP3    H130155   5.896   4.108   1.820 -1.0001  0.5577 -0.0751
 2840TIP3    H230156   6.024   4.096   1.901 -0.3884 -3.4124 -1.4091
 2841TIP3   OH230157   1.737   3.374   8.971 -0.5166  0.3606  0.1806
 2841TIP3    H130158   1.690   3.451   9.003 -0.1805  0.9527 -0.7094
 2841TIP3    H230159   1.822   3.408   8.943 -0.3957 -0.3192 -0.2973
 2842TIP3   OH230160   0.155   5.228   7.733  0.2754  0.1881  0.1464
 2842TIP3    H130161   0.235   5.258   7.775 -0.0889  0.9677  0.3107
 2842TIP3    H230162   0.103   5.191   7.805 -0.0860  0.9490  0.2826
 2843TIP3   OH230163   2.419   5.419   6.108 -0.3700 -0.5680  0.1372
 2843TIP3    H130164   2.399   5.442   6.017  1.1839 -0.8505 -0.3199
 2843TIP3    H230165   2.346   5.454   6.159 -0.3417  1.3412 -1.0236
 2844TIP3   OH230166   1.517   5.404   2.791  0.1912  0.1493  0.3611
 2844TIP3    H130167   1.440   5.438   2.835  0.4177 -0.2379  1.0776
 2844TIP3    H230168   1.581   5.475   2.794 -0.6124  1.0345 -1.5856
 2845TIP3   OH230169   2.644   3.908   6.376  0.1885  0.8306 -0.3228
 2845TIP3    H130170   2.653   3.825   6.422  0.1436 -0.6130 -2.7546
 2845TIP3    H230171   2.585   3.960   6.430 -0.6342 -1.1259  0.7361
 2846TIP3   OH230172   1.266   1.770   7.184  0.7670 -0.1216 -0.6127
 2846TIP3    H130173   1.217   1.766   7.266  1.3110 -0.8322 -0.3083
 2846TIP3    H230174   1.333   1.838   7.199 -0.4538  1.2672 -1.2346
 2847TIP3   OH230175   6.321   3.431   1.541  0.4391 -0.2788  0.6785
 2847TIP3    H130176   6.377   3.372   1.491  0.3564  0.6877 -0.6023
 2847TIP3    H230177   6.324   3.514   1.493 -2.8476 -0.4315 -0.0324
 2848TIP3   OH230178   3.392   5.008   7.872 -0.3646  0.1413 -0.7586
 2848TIP3    H130179   3.415   4.918   7.847 -1.4416  0.1254 -1.7996
 2848TIP3    H230180   3.386   5.005   7.967  1.2268 -0.4788 -0.6553
 2849TIP3   OH230181   4.302   3.881   7.876 -0.6041  0.9549  0.0738
 2849TIP3    H130182   4.233   3.876   7.810 -0.0437  2.1585 -0.6275
 2849TIP3    H230183   4.366   3.815   7.849 -1.1867  0.2272  0.4161
 2850TIP3   OH230184   6.297   5.728   0.315  0.1058  0.3401  0.5550
 2850TIP3    H130185   6.297   5.823   0.305 -1.3016  0.2728 -0.3890
 2850TIP3    H230186   6.206   5.706   0.335  0.5490 -0.7499  1.5186
 2851TIP3   OH230187   4.969   0.939   1.276  0.4291  0.4800  0.2463
 2851TIP3    H130188   5.011   0.984   1.349 -0.7797  0.8720  0.7374
 2851TIP3    H230189   4.877   0.965   1.282 -0.8077 -3.4932  1.7545
 2852TIP3   OH230190   3.730   3.341   0.272  0.0626  0.4259 -0.0212
 2852TIP3    H130191   3.731   3.323   0.179 -0.9684  0.1600  0.0099
 2852TIP3    H230192   3.720   3.255   0.314  1.0458  0.4869  0.3556
 2853TIP3   OH230193   3.793   3.387   7.495  0.2886  0.5242 -0.0826
 2853TIP3    H130194   3.819   3.306   7.540  1.7962  0.1381 -1.5287
 2853TIP3    H230195   3.811   3.370   7.402 -0.9439  1.9483 -0.6356
 2854TIP3   OH230196   4.649   5.887   8.380  0.2381  0.1139 -0.3106
 2854TIP3    H130197   4.582   5.907   8.314 -0.2980 -0.8861 -0.0871
 2854TIP3    H230198   4.712   5.959   8.373  0.2422 -0.0115 -1.9784
 2855TIP3   OH230199   6.756   0.326   1.928 -0.0668  0.5399 -0.3045
 2855TIP3    H130200   6.776   0.411   1.887 -1.1161  0.7430 -0.4361
 2855TIP3    H230201   6.736   0.269   1.854 -0.3048  0.4469 -0.1706
 2856TIP3   OH230202   0.165   1.904   7.763 -0.1893  0.7092 -0.0421
 2856TIP3    H130203   0.105   1.925   7.692 -0.4926  1.6169  0.4668
 2856TIP3    H230204   0.167   1.808   7.765 -1.2147  0.6674 -0.3968
 2857TIP3   OH230205   5.156   3.562   1.973 -0.1106  0.1345  0.1318
 2857TIP3    H130206   5.148   3.620   1.897  0.6376  0.9301  0.6502
 2857TIP3    H230207   5.247   3.571   2.001 -0.5572  0.4076  1.5556
 2858TIP3   OH230208   3.672   4.063   8.592 -0.6287  0.0080 -0.4681
 2858TIP3    H130209   3.662   4.030   8.682  0.5401 -1.0486 -0.6998
 2858TIP3    H230210   3.583   4.081   8.563 -1.1711 -1.2530  0.3292
 2859TIP3   OH230211   2.374   4.124   6.980 -0.2251 -0.6947  0.2527
 2859TIP3    H130212   2.307   4.063   7.009 -0.1940  0.1569  2.2749
 2859TIP3    H230213   2.391   4.180   7.056 -0.1425  1.7385 -1.4389
 2860TIP3   OH230214   1.707   4.900   7.525 -0.6644 -0.3096  0.5207
 2860TIP3    H130215   1.766   4.850   7.470 -0.8218  1.2461 -1.1994
 2860TIP3    H230216   1.737   4.886   7.615  0.8458 -1.3779 -0.1318
 2861TIP3   OH230217   5.176   6.020   0.084 -0.2831 -0.1674  0.5659
 2861TIP3    H130218   5.129   5.970   0.150 -1.4171  1.4276  1.0330
 2861TIP3    H230219   5.145   6.110   0.095  0.7118  0.4324 -1.0758
 2862TIP3   OH230220   1.603   5.531   0.525  0.6986 -0.3939 -0.8984
 2862TIP3    H130221   1.620   5.609   0.578  1.3499 -0.8155 -0.4719
 2862TIP3    H230222   1.668   5.467   0.555 -2.2889 -2.5219  1.6524
 2863TIP3   OH230223   1.621   3.738   7.106  0.5054  0.5715  0.0447
 2863TIP3    H130224   1.593   3.727   7.015  1.2823  1.0138 -0.2491
 2863TIP3    H230225   1.546   3.780   7.149 -0.5245 -1.1021  0.0119
 2864TIP3   OH230226   4.206   5.002   0.085 -0.2874 -0.1567 -0.1319
 2864TIP3    H130227   4.122   4.967   0.114  0.3112 -1.2738  0.3332
 2864TIP3    H230228   4.271   4.946   0.128  0.6866  0.4578 -0.7688
 2865TIP3   OH230229   5.761   2.683   8.479 -0.2096 -0.0490  0.3035
 2865TIP3    H130230   5.784   2.699   8.387  1.2045 -0.2621  0.6061
 2865TIP3    H230231   5.675   2.642   8.475  1.1316 -2.9738 -1.1300
 2866TIP3   OH230232   6.737   0.607   6.679  0.1743 -0.3653 -0.2396
 2866TIP3    H130233   6.768   0.693   6.709  1.9198 -1.3544  0.9912
 2866TIP3    H230234   6.812   0.570   6.633 -0.4351 -1.3873 -0.4267
 2867TIP3   OH230235   5.013   1.655   8.869  0.0396  0.1603  0.3351
 2867TIP3    H130236   4.933   1.648   8.921 -0.5354 -1.5513 -0.6843
 2867TIP3    H230237   5.007   1.582   8.806  1.3577  1.3027 -1.1999
 2868TIP3   OH230238   3.819   1.309   7.604  0.0440 -0.4983 -0.4024
 2868TIP3    H130239   3.791   1.233   7.654  1.7467  1.2749  3.7132
 2868TIP3    H230240   3.914   1.313   7.617  0.4380  0.8059 -2.9286
 2869TIP3   OH230241   3.085   0.850   7.268  0.5724 -0.3485  0.2696
 2869TIP3    H130242   3.136   0.833   7.347  0.2941  0.5897  0.6750
 2869TIP3    H230243   3.144   0.898   7.210  1.2129 -2.2110 -0.6816
 2870TIP3   OH230244   6.715   4.345   7.897  0.2425 -0.0524 -0.7081
 2870TIP3    H130245   6.683   4.423   7.942 -0.2078  0.5797 -2.0677
 2870TIP3    H230246   6.643   4.281   7.906  1.6476 -1.3684  2.7482
 2871TIP3   OH230247   0.573   4.413   8.626 -0.0467  0.1530 -0.2094
 2871TIP3    H130248   0.536   4.355   8.560  0.9717  0.2097 -0.8574
 2871TIP3    H230249   0.638   4.359   8.672 -0.1288  0.3644  0.1623
 2872TIP3   OH230250   4.770   0.728   0.077 -0.2650  0.1642 -0.3383
 2872TIP3    H130251   4.725   0.743  -0.006 -0.8066  1.6484  0.1740
 2872TIP3    H230252   4.740   0.800   0.133  0.7514 -0.3100  0.8637
 2873TIP3   OH230253   5.436   2.926   7.368 -0.1754 -0.1774  0.0628
 2873TIP3    H130254   5.404   3.010   7.403 -0.6519  0.0667 -0.9322
 2873TIP3    H230255   5.364   2.865   7.383 -0.3020 -0.1195 -0.3076
 2874TIP3   OH230256   5.150   3.895   2.130 -0.0630  0.1605 -0.0292
 2874TIP3    H130257   5.177   3.962   2.193  1.7540 -0.6446  0.1025
 2874TIP3    H230258   5.170   3.812   2.172  3.9999 -0.4575 -2.6128
 2875TIP3   OH230259   1.009   5.542   2.153  0.1159  0.3318  0.9709
 2875TIP3    H130260   1.017   5.470   2.216 -3.0474 -1.7244 -0.6895
 2875TIP3    H230261   0.950   5.604   2.195 -0.2268  0.0279  0.9532
 2876TIP3   OH230262   1.510   5.134   7.650 -0.0127  0.9104  0.0449
 2876TIP3    H130263   1.568   5.057   7.644 -1.8501 -0.4954 -0.7466
 2876TIP3    H230264   1.490   5.156   7.559 -1.2909  0.8684  0.2934
 2877TIP3   OH230265   3.895   3.858   8.859 -0.1107 -0.1550 -0.3073
 2877TIP3    H130266   3.804   3.872   8.835 -0.4619 -1.4351  0.1819
 2877TIP3    H230267   3.900   3.885   8.951  0.5692  2.0584 -0.9300
 2878TIP3   OH230268   3.273   0.960   1.608 -0.0122  0.1344  0.4734
 2878TIP3    H130269   3.255   0.894   1.675 -1.1849 -2.3198 -2.0955
 2878TIP3    H230270   3.201   1.022   1.615 -1.2795 -1.2634  0.1524
 2879TIP3   OH230271   5.733   5.924   8.610  0.4506 -0.5061 -0.0874
 2879TIP3    H130272   5.794   5.873   8.556  0.0009 -0.1007 -0.9974
 2879TIP3    H230273   5.786   5.995   8.646  0.6361 -0.4601 -0.4489
 2880TIP3   OH230274   4.212   5.722   8.696 -0.3036 -0.2374 -0.5259
 2880TIP3    H130275   4.139   5.724   8.635  0.0697 -1.4671 -1.0275
 2880TIP3    H230276   4.288   5.700   8.642  0.3516  0.4591  0.0865
 2881TIP3   OH230277   3.785   4.934   0.932  0.7343 -0.1654  0.2640
 2881TIP3    H130278   3.815   4.921   1.022 -1.1340  1.6723  1.2400
 2881TIP3    H230279   3.793   4.848   0.891  0.7994 -1.2578  2.4498
 2882TIP3   OH230280   4.091   0.488   2.067  0.5647 -0.1006  0.1098
 2882TIP3    H130281   4.001   0.475   2.095  0.4149  0.5877 -0.0330
 2882TIP3    H230282   4.087   0.561   2.005  1.0638 -0.7700 -0.7346
 2883TIP3   OH230283   4.693   6.637   7.460  0.1441  0.1741 -0.6285
 2883TIP3    H130284   4.782   6.671   7.448 -0.5461  2.3799 -0.0552
 2883TIP3    H230285   4.641   6.686   7.397 -0.5683 -1.7826 -1.6416
 2884TIP3   OH230286   5.861   4.120   0.952 -0.0272 -0.6665 -0.3061
 2884TIP3    H130287   5.932   4.056   0.947  0.6285 -0.1087  1.2433
 2884TIP3    H230288   5.869   4.157   1.040 -1.2521  0.5581 -0.6880
 2885TIP3   OH230289   5.673   1.672   8.155  0.2450  0.0522  0.2278
 2885TIP3    H130290   5.696   1.587   8.193 -1.9718 -0.6366  0.1371
 2885TIP3    H230291   5.704   1.736   8.220  2.8289 -0.6918 -0.1552
 2886TIP3   OH230292   2.609   1.679   1.285  0.3341  0.1563  0.1666
 2886TIP3    H130293   2.646   1.739   1.220  1.5316 -1.0204 -0.2769
 2886TIP3    H230294   2.539   1.633   1.239  1.1856 -0.6807 -0.3284
 2887TIP3   OH230295   0.255   2.773   1.338  0.1275  0.2302 -0.0503
 2887TIP3    H130296   0.166   2.753   1.367  0.0143  0.9630  0.1329
 2887TIP3    H230297   0.310   2.751   1.413 -0.0342  0.9472  0.2851
 2888TIP3   OH230298   2.338   0.649   0.439  0.0731  0.2482 -0.6984
 2888TIP3    H130299   2.373   0.575   0.488  0.4678  1.1532  0.4414
 2888TIP3    H230300   2.330   0.617   0.349 -0.1093 -1.2757 -0.1748
 2889TIP3   OH230301   2.300   5.535   5.886 -0.3109 -0.4685 -0.4103
 2889TIP3    H130302   2.323   5.604   5.823  0.7627 -1.8035 -1.5585
 2889TIP3    H230303   2.227   5.571   5.936 -0.5263  1.0497 -1.7362
 2890TIP3   OH230304   6.768   2.574   7.330 -0.2677 -0.0310  0.0523
 2890TIP3    H130305   6.755   2.542   7.419 -1.4196  1.0600  0.2919
 2890TIP3    H230306   6.709   2.520   7.277 -1.3459  0.8741  0.2972
 2891TIP3   OH230307   6.590   5.687   7.488  0.0280  0.1581  0.1690
 2891TIP3    H130308   6.640   5.634   7.426  1.2526 -1.4536  2.3715
 2891TIP3    H230309   6.645   5.764   7.502 -0.0593  0.3344 -0.4232
 2892TIP3   OH230310   1.697   6.425   1.999  0.9199  0.1877  0.2228
 2892TIP3    H130311   1.782   6.383   1.979  0.5916  0.0644 -1.0210
 2892TIP3    H230312   1.655   6.365   2.060  0.6962 -1.0831 -1.0977
 2893TIP3   OH230313   2.946   2.493   0.586 -0.5525 -0.3555 -0.1728
 2893TIP3    H130314   2.893   2.571   0.572 -0.3045 -0.3502 -1.1461
 2893TIP3    H230315   2.884   2.427   0.617 -0.6405  0.4163  1.4030
 2894TIP3   OH230316   2.595   5.198   6.588  0.1126 -0.1567 -0.3137
 2894TIP3    H130317   2.507   5.167   6.606 -0.0550  0.8692  0.7826
 2894TIP3    H230318   2.637   5.126   6.541 -1.4742 -0.4376 -1.3844
 2895TIP3   OH230319   2.615   5.587   8.719  0.3998 -0.1032 -0.1344
 2895TIP3    H130320   2.649   5.520   8.659  2.4215  1.7468 -1.2354
 2895TIP3    H230321   2.653   5.565   8.804 -1.0590 -1.7464  0.1570
 2896TIP3   OH230322   0.265   3.584   8.381 -0.5754 -0.1423  0.0433
 2896TIP3    H130323   0.188   3.591   8.324  0.4140 -0.8047 -1.4373
 2896TIP3    H230324   0.331   3.639   8.338 -0.7609  2.0440  2.3487
 2897TIP3   OH230325   4.877   0.700   6.215 -0.0887  0.1687  0.7656
 2897TIP3    H130326   4.891   0.656   6.298 -1.3654  1.2191  1.5778
 2897TIP3    H230327   4.802   0.655   6.176  0.0276  0.1724  0.5332
 2898TIP3   OH230328   3.250   6.606   6.809 -0.4379  0.0057 -0.2648
 2898TIP3    H130329   3.337   6.641   6.788  0.1262 -0.4404  1.2075
 2898TIP3    H230330   3.268   6.528   6.861 -1.7308 -0.1282  0.0006
 2899TIP3   OH230331   3.875   0.145   0.484  0.1820 -0.5006  0.4721
 2899TIP3    H130332   3.834   0.154   0.571 -2.0723  1.9470 -0.6797
 2899TIP3    H230333   3.931   0.222   0.477  1.2741 -1.3158  0.1839
 2900TIP3   OH230334   5.367   6.556   1.232  0.5038  0.2696  0.1678
 2900TIP3    H130335   5.455   6.586   1.213  0.9318  1.1635  3.1070
 2900TIP3    H230336   5.378   6.493   1.304 -1.0381 -1.8859 -1.3259
 2901TIP3   OH230337   6.790   5.154   8.403 -0.5296 -0.6078  0.3324
 2901TIP3    H130338   6.793   5.129   8.496 -1.6344 -0.5326  0.4065
 2901TIP3    H230339   6.810   5.247   8.402  0.8079 -0.8754  0.3449
 2902TIP3   OH230340   6.008   2.202   7.227 -0.2498 -0.3117  0.8687
 2902TIP3    H130341   6.051   2.184   7.144 -0.6730  0.3998  0.4863
 2902TIP3    H230342   5.966   2.120   7.251  0.1030 -0.5956  0.5188
 2903TIP3   OH230343   2.189   0.594   0.196 -0.2103 -0.0582  0.2078
 2903TIP3    H130344   2.125   0.660   0.224  1.4748  0.9235  2.0458
 2903TIP3    H230345   2.152   0.511   0.223  0.4006  0.6971  3.8313
 2904TIP3   OH230346   1.327   6.226   1.426  0.2603  0.2342  0.3659
 2904TIP3    H130347   1.402   6.279   1.397  0.8728  0.2375  1.8604
 2904TIP3    H230348   1.308   6.259   1.513 -0.2264 -1.1035  0.7837
 2905TIP3   OH230349   4.806   0.599   8.547 -0.2379 -0.6420  0.7611
 2905TIP3    H130350   4.821   0.672   8.487 -1.8816  1.0611  2.2926
 2905TIP3    H230351   4.715   0.573   8.531  0.3848 -2.5790  0.0828
 2906TIP3   OH230352   6.463   2.977   7.724  0.3446  0.3410 -0.1804
 2906TIP3    H130353   6.456   2.990   7.818 -0.9637 -0.4724 -0.1378
 2906TIP3    H230354   6.404   3.042   7.686  1.3445  1.0916 -0.4936
 2907TIP3   OH230355   5.195   1.871   0.796  0.1462 -0.1479  0.4117
 2907TIP3    H130356   5.269   1.858   0.737 -2.7245 -0.5168 -3.4728
 2907TIP3    H230357   5.183   1.966   0.800 -0.0673 -0.1501 -0.1728
 2908TIP3   OH230358   0.856   4.115   8.089  0.0481 -0.3664 -0.3801
 2908TIP3    H130359   0.773   4.086   8.126 -0.2045  0.8834  0.0790
 2908TIP3    H230360   0.832   4.154   8.005  0.0953  0.4010 -0.0470
 2909TIP3   OH230361   5.011   6.573   8.587  0.5667 -0.6720 -0.3089
 2909TIP3    H130362   4.996   6.514   8.513  1.3157 -3.9579  1.9254
 2909TIP3    H230363   4.928   6.573   8.634 -0.4052  2.6199 -1.7623
 2910TIP3   OH230364   0.195   5.631   1.180  0.3539  0.3138 -0.4480
 2910TIP3    H130365   0.218   5.697   1.245  2.0920  0.4714 -1.1480
 2910TIP3    H230366   0.253   5.557   1.201  1.8507  0.8293 -2.5093
 2911TIP3   OH230367   5.369   2.956   1.783  0.2765  0.3428 -0.2473
 2911TIP3    H130368   5.418   2.940   1.864  1.5771  1.5620 -0.7466
 2911TIP3    H230369   5.288   2.906   1.794  1.0802 -0.7423  1.1472
 2912TIP3   OH230370   3.056   6.696   0.516  0.1832 -0.4725  0.0304
 2912TIP3    H130371   2.996   6.743   0.573 -0.3213  1.3313 -1.8644
 2912TIP3    H230372   3.106   6.764   0.471  0.0945 -1.7462 -2.1509
 2913TIP3   OH230373   4.404   1.705   8.151  0.1572 -0.1473 -0.2689
 2913TIP3    H130374   4.328   1.740   8.105  0.6871  0.8483 -0.4261
 2913TIP3    H230375   4.415   1.763   8.227  1.3937  0.4140 -0.8405
 2914TIP3   OH230376   4.910   3.982   0.148  0.2731  0.3476  0.1684
 2914TIP3    H130377   4.919   4.075   0.169  0.9948  0.3500 -0.1385
 2914TIP3    H230378   4.925   3.937   0.231  0.4850  0.4759  0.1973
 2915TIP3   OH230379   2.215   1.726   6.873 -0.2201  0.1128 -0.1530
 2915TIP3    H130380   2.192   1.812   6.838 -0.9198 -0.2911 -0.7148
 2915TIP3    H230381   2.155   1.665   6.828 -0.7233 -0.4955  1.2880
 2916TIP3   OH230382   2.753   4.879   8.686  0.1915 -0.4646 -0.5885
 2916TIP3    H130383   2.712   4.806   8.733  0.9405  0.6242  1.9402
 2916TIP3    H230384   2.833   4.842   8.650 -0.0660 -1.2056 -0.4300
 2917TIP3   OH230385   5.680   6.138   8.108 -0.1062  0.1191 -0.3846
 2917TIP3    H130386   5.658   6.071   8.044  0.9997  1.9873 -2.9166
 2917TIP3    H230387   5.759   6.180   8.073  1.9585 -0.1145  3.3532
 2918TIP3   OH230388   5.710   3.916   2.222  0.0833 -0.1954  0.0067
 2918TIP3    H130389   5.681   4.002   2.193  0.0691 -0.1423  0.1750
 2918TIP3    H230390   5.632   3.861   2.215  0.1493 -0.2483 -0.3123
 2919TIP3   OH230391   2.580   5.188   0.004  0.8986 -0.1241 -0.3667
 2919TIP3    H130392   2.538   5.271  -0.016  1.7413 -0.2726 -3.1185
 2919TIP3    H230393   2.512   5.138   0.049  0.2639  1.8703  1.0204
 2920TIP3   OH230394   0.665   6.330   8.982  0.3359 -0.1556  0.4129
 2920TIP3    H130395   0.741   6.387   8.978 -0.6583  1.2155  0.1782
 2920TIP3    H230396   0.699   6.243   8.963  1.6621  0.5897 -0.8547
 2921TIP3   OH230397   6.610   6.169   7.520 -0.2802 -0.1796  0.3850
 2921TIP3    H130398   6.660   6.238   7.477  0.7879 -0.4056  1.2104
 2921TIP3    H230399   6.560   6.214   7.588  0.1076 -0.1591  0.6609
 2922TIP3   OH230400   1.650   4.980   8.386  0.3254  0.0719  0.1110
 2922TIP3    H130401   1.589   4.910   8.410  0.1073  0.5473  0.9988
 2922TIP3    H230402   1.597   5.060   8.390  0.8898  0.4371  0.4313
 2923TIP3   OH230403   4.433   2.635   0.782  0.6113  0.0025  0.0770
 2923TIP3    H130404   4.425   2.725   0.749  0.1961  0.1624  0.6053
 2923TIP3    H230405   4.382   2.582   0.721  1.4271  0.0240 -0.6358
 2924TIP3   OH230406   3.203   6.412   8.792 -0.3123 -0.2542 -0.4879
 2924TIP3    H130407   3.227   6.349   8.724 -1.6562 -0.9623 -0.3525
 2924TIP3    H230408   3.138   6.468   8.751  0.3687  0.6223 -0.3904
 2925TIP3   OH230409   0.828   3.697   7.924  0.0649  0.3466 -0.0696
 2925TIP3    H130410   0.916   3.731   7.909  0.3615 -0.3292  0.1113
 2925TIP3    H230411   0.778   3.725   7.847  0.5644  0.2961 -0.4138
 2926TIP3   OH230412   0.207   4.204   7.134  0.0337 -0.5808 -0.7192
 2926TIP3    H130413   0.169   4.117   7.141 -2.6660  0.5907  0.9460
 2926TIP3    H230414   0.285   4.202   7.189 -1.3356 -1.3523  1.2910
 2927TIP3   OH230415   1.974   2.487   8.895  0.0264  0.0178  0.1710
 2927TIP3    H130416   1.948   2.416   8.836 -0.4447 -1.2868  1.8738
 2927TIP3    H230417   1.900   2.498   8.954  0.0526  2.0354 -0.0998
 2928TIP3   OH230418   0.049   5.125   8.696  0.5143  0.1538  0.0134
 2928TIP3    H130419  -0.026   5.148   8.751 -0.4088  1.7937 -1.8172
 2928TIP3    H230420   0.119   5.182   8.727 -0.4417  2.2191 -1.4150
 2929TIP3   OH230421   3.659   6.584   8.077 -0.5491  0.2561  0.3782
 2929TIP3    H130422   3.716   6.508   8.075 -0.1285  0.5729  0.1212
 2929TIP3    H230423   3.718   6.659   8.085 -0.9252  0.5836  0.1902
 2930TIP3   OH230424   2.836   4.977   6.695  0.4273 -0.0227 -0.4298
 2930TIP3    H130425   2.857   4.888   6.725 -0.7903 -0.3573 -0.5137
 2930TIP3    H230426   2.808   4.965   6.604 -0.1980  0.3853 -0.2929
 2931TIP3   OH230427   2.515   1.362   0.230  0.6026 -0.9853 -0.2613
 2931TIP3    H130428   2.424   1.342   0.208  0.0713  0.6280  0.3153
 2931TIP3    H230429   2.563   1.347   0.148 -0.2649 -1.2998 -0.7307
 2932TIP3   OH230430   0.829   6.751   1.555  0.0792  0.2826 -0.0510
 2932TIP3    H130431   0.759   6.686   1.561  0.3172 -0.0021 -0.3224
 2932TIP3    H230432   0.860   6.744   1.464 -1.4859  2.4288 -0.8157
 2933TIP3   OH230433   4.215   5.665   6.732  0.1280  0.1632 -0.0146
 2933TIP3    H130434   4.258   5.636   6.812  0.5537 -0.2874 -0.3962
 2933TIP3    H230435   4.225   5.591   6.671 -0.9424  0.1645 -0.2099
 2934TIP3   OH230436   3.169   1.226   0.688 -0.5542  0.1560 -0.3544
 2934TIP3    H130437   3.143   1.136   0.672  0.8935 -0.1730 -1.0144
 2934TIP3    H230438   3.248   1.219   0.742 -1.9711  1.1173  1.9750
 2935TIP3   OH230439   0.164   3.479   7.324  0.1187 -0.1502  0.2561
 2935TIP3    H130440   0.207   3.394   7.321  0.2711 -0.0707  0.2269
 2935TIP3    H230441   0.213   3.529   7.389  0.3698  0.1056 -0.1304
 2936TIP3   OH230442   1.350   1.057   0.535 -0.5302  0.0226  0.2502
 2936TIP3    H130443   1.296   1.135   0.548  0.3052  0.7431 -0.5094
 2936TIP3    H230444   1.320   1.020   0.452  0.2530  0.5266 -0.2658
 2937TIP3   OH230445   6.001   5.184   6.935  0.0596 -0.1973  0.9157
 2937TIP3    H130446   6.043   5.102   6.908  1.9053  0.1512  2.4751
 2937TIP3    H230447   6.070   5.249   6.927 -1.7711  1.6418 -1.8108
 2938TIP3   OH230448   1.573   2.768   2.431 -0.5855 -0.0446 -0.4212
 2938TIP3    H130449   1.629   2.842   2.408 -0.3288  0.2340  1.0416
 2938TIP3    H230450   1.630   2.706   2.476 -1.7029  1.0577  2.7871
 2939TIP3   OH230451   6.277   4.920   7.363  0.1267  0.0869  0.2872
 2939TIP3    H130452   6.331   4.997   7.382 -1.5755  1.1040  1.2919
 2939TIP3    H230453   6.321   4.877   7.289  1.5268  1.5933  0.1890
 2940TIP3   OH230454   2.151   3.028   0.424 -0.1603 -0.6638  0.0607
 2940TIP3    H130455   2.141   2.968   0.498 -1.1220 -0.3563  0.1931
 2940TIP3    H230456   2.210   3.097   0.456  1.4045 -1.7841 -0.2681
 2941TIP3   OH230457   4.606   5.515   8.492 -0.4938 -0.5834  0.1448
 2941TIP3    H130458   4.528   5.465   8.516 -1.1119  0.0874 -0.4035
 2941TIP3    H230459   4.629   5.484   8.404 -1.7611  1.0686 -0.8356
 2942TIP3   OH230460   3.673   4.713   0.060 -0.2404 -0.4581  0.0103
 2942TIP3    H130461   3.611   4.658   0.012 -1.7334  1.8660 -0.9629
 2942TIP3    H230462   3.714   4.767  -0.007  0.0817  0.5814  1.0026
 2943TIP3   OH230463   0.105   4.390   7.371 -0.3293 -0.3272 -0.8847
 2943TIP3    H130464   0.052   4.424   7.443  0.9335  1.0438 -0.5646
 2943TIP3    H230465   0.185   4.358   7.413 -0.1927 -0.8436 -1.5256
 2944TIP3   OH230466   3.366   0.905   1.367  0.1645 -0.0023  0.3637
 2944TIP3    H130467   3.302   0.928   1.434  0.3489  0.4298  0.3888
 2944TIP3    H230468   3.387   0.987   1.324 -2.0482 -0.5852 -2.1094
 2945TIP3   OH230469   3.665   2.551   7.577 -0.3627  1.0332 -1.1485
 2945TIP3    H130470   3.753   2.544   7.613 -0.6149  1.2877 -0.4603
 2945TIP3    H230471   3.667   2.498   7.498 -0.1845 -0.7797 -0.0009
 2946TIP3   OH230472   5.358   3.668   7.515 -0.0775 -0.1774 -0.3258
 2946TIP3    H130473   5.433   3.720   7.544 -0.1465  0.5434 -1.3462
 2946TIP3    H230474   5.395   3.583   7.492  0.0533 -0.5935  1.2963
 2947TIP3   OH230475   0.962   5.452   7.971 -0.4831  0.8474 -0.3290
 2947TIP3    H130476   0.960   5.395   7.895 -1.4208  2.8241 -1.8731
 2947TIP3    H230477   1.055   5.471   7.985 -0.2002 -0.6405 -0.0677
 2948TIP3   OH230478   0.825   0.907   0.150  0.4992 -0.3356  0.2643
 2948TIP3    H130479   0.814   0.995   0.115 -0.0288  0.1420  1.5438
 2948TIP3    H230480   0.919   0.891   0.146  0.7219  0.7054  0.9337
 2949TIP3   OH230481   3.124   4.653   0.813 -0.1719 -0.7528 -0.6404
 2949TIP3    H130482   3.176   4.651   0.732  0.6481  1.1161 -0.2243
 2949TIP3    H230483   3.159   4.582   0.866  2.1790  0.5308 -0.3220
 2950TIP3   OH230484   5.699   2.580   1.835 -0.0346 -0.5860 -0.0117
 2950TIP3    H130485   5.617   2.540   1.865 -0.8818  2.5465  2.3686
 2950TIP3    H230486   5.766   2.542   1.892 -0.3449 -0.7432  0.2505
 2951TIP3   OH230487   4.722   6.500   0.026 -0.5524 -0.5597  0.2744
 2951TIP3    H130488   4.667   6.569   0.063  0.9800 -0.0432  1.7390
 2951TIP3    H230489   4.797   6.547  -0.011 -0.2697 -1.3383 -0.1585
 2952TIP3   OH230490   3.598   3.825   7.536 -0.0664 -0.1150  0.3977
 2952TIP3    H130491   3.687   3.798   7.558  0.7002  1.4109 -0.6365
 2952TIP3    H230492   3.549   3.743   7.532  1.8334 -1.2712 -1.3383
 2953TIP3   OH230493   6.695   1.091   1.582  0.3962  0.3145 -0.0614
 2953TIP3    H130494   6.719   1.021   1.522  0.5488  1.6300 -1.6089
 2953TIP3    H230495   6.617   1.059   1.627  0.5497 -0.8908 -0.6258
 2954TIP3   OH230496   1.362   3.474   1.380  0.1332  0.2922 -0.1613
 2954TIP3    H130497   1.386   3.566   1.388 -1.6693  0.6651  2.1050
 2954TIP3    H230498   1.306   3.471   1.302 -0.0297  1.2015 -0.0942
 2955TIP3   OH230499   1.291   2.581   8.323 -0.2269 -0.1128 -0.2146
 2955TIP3    H130500   1.368   2.535   8.358 -1.1408 -0.7292  1.0747
 2955TIP3    H230501   1.263   2.639   8.393 -0.4020  0.7906 -1.0168
 2956TIP3   OH230502   5.730   6.717   2.123 -0.0035  0.8051 -0.2057
 2956TIP3    H130503   5.794   6.662   2.169 -1.3542  0.2680  1.1171
 2956TIP3    H230504   5.673   6.751   2.193 -2.7446 -0.8122 -1.5132
 2957TIP3   OH230505   5.332   5.361   1.319 -0.4602  0.0024 -0.0233
 2957TIP3    H130506   5.318   5.344   1.412  0.5046  2.3939  0.6116
 2957TIP3    H230507   5.409   5.309   1.297 -1.1460 -1.1908  0.2800
 2958TIP3   OH230508   1.802   1.351   7.462  0.0240 -0.1114  0.2338
 2958TIP3    H130509   1.757   1.382   7.541  0.0007 -0.3133  0.3033
 2958TIP3    H230510   1.875   1.411   7.451 -0.9670  0.9761 -0.5999
 2959TIP3   OH230511   1.283   4.124   0.663 -0.1699 -0.0785 -0.4788
 2959TIP3    H130512   1.201   4.079   0.643  0.0395 -0.9464  0.5418
 2959TIP3    H230513   1.289   4.121   0.758  0.8410  0.3511 -0.5245
 2960TIP3   OH230514   5.843   1.859   7.760  0.6531  0.4104 -0.5366
 2960TIP3    H130515   5.804   1.944   7.779  1.6876  0.9292 -0.6183
 2960TIP3    H230516   5.786   1.795   7.802 -1.1817  0.9841 -2.0237
 2961TIP3   OH230517   1.739   0.848   1.794  0.5412 -0.3805  0.2181
 2961TIP3    H130518   1.806   0.915   1.805 -0.5277  0.7656 -0.0804
 2961TIP3    H230519   1.752   0.789   1.869  1.1014  0.4994  0.8343
 2962TIP3   OH230520   6.178   2.557   7.473 -0.4031  0.1070 -0.0249
 2962TIP3    H130521   6.266   2.591   7.462  0.2376 -0.8825  1.6869
 2962TIP3    H230522   6.190   2.466   7.498 -1.8926  0.0487  0.6094
 2963TIP3   OH230523   2.175   6.036   8.118 -0.1757 -0.7401  0.5379
 2963TIP3    H130524   2.176   5.949   8.157  2.7905 -0.0518  2.3558
 2963TIP3    H230525   2.252   6.037   8.061 -0.9580  0.2837 -0.5530
 2964TIP3   OH230526   0.691   2.278   1.309 -0.6630 -0.0086  0.1685
 2964TIP3    H130527   0.603   2.279   1.271 -0.7246  0.8989  0.3001
 2964TIP3    H230528   0.746   2.239   1.241 -1.3032 -1.4670  0.4483
 2965TIP3   OH230529   5.958   4.108   7.690  0.1237  0.0269 -0.5621
 2965TIP3    H130530   5.870   4.112   7.729  0.8705  2.0864  1.0791
 2965TIP3    H230531   6.013   4.071   7.759  0.6672 -0.6755 -1.3637
 2966TIP3   OH230532   2.535   4.527   8.178  0.1399  0.0886 -0.5337
 2966TIP3    H130533   2.557   4.437   8.204  0.0058 -0.0954 -1.0577
 2966TIP3    H230534   2.600   4.581   8.223 -0.3638 -0.1818  0.5716
 2967TIP3   OH230535   1.177   5.689   1.977 -0.2343 -0.0682  0.0523
 2967TIP3    H130536   1.130   5.648   2.050 -2.0559 -0.3076 -1.2058
 2967TIP3    H230537   1.135   5.775   1.967 -0.0460 -0.0650 -0.7592
 2968TIP3   OH230538   0.409   0.597   8.598 -0.0547 -0.5185 -0.6624
 2968TIP3    H130539   0.337   0.619   8.658  2.5120 -1.4531  3.1031
 2968TIP3    H230540   0.443   0.682   8.570 -0.1546  0.0392  0.8151
 2969TIP3   OH230541   4.572   6.772   1.301  0.6468  0.2052 -0.7626
 2969TIP3    H130542   4.654   6.811   1.331  0.5568 -0.6493  0.6560
 2969TIP3    H230543   4.594   6.681   1.282  0.5322  0.5330 -2.6940
 2970TIP3   OH230544   3.579   4.489   8.874 -0.4439  0.5784 -0.2393
 2970TIP3    H130545   3.576   4.474   8.780 -0.1081 -0.5937 -0.0714
 2970TIP3    H230546   3.509   4.435   8.910  3.0638 -3.9212  0.7508
 2971TIP3   OH230547   0.233   0.256   8.307 -0.1373  0.1611 -0.5004
 2971TIP3    H130548   0.304   0.265   8.370 -0.9473 -4.0230  1.3579
 2971TIP3    H230549   0.273   0.216   8.230 -0.1807 -0.6763 -0.0939
 2972TIP3   OH230550   1.294   0.193   8.880 -0.0902 -0.2442  0.3012
 2972TIP3    H130551   1.363   0.127   8.883 -0.1744 -0.4102 -0.8036
 2972TIP3    H230552   1.333   0.271   8.921  0.3098 -0.7119  0.8192
 2973TIP3   OH230553   1.277   3.263   2.353  0.1580 -0.5167 -0.3109
 2973TIP3    H130554   1.315   3.194   2.406  0.7337 -0.2323 -0.3431
 2973TIP3    H230555   1.333   3.267   2.275 -0.2475 -0.4467 -0.6015
 2974TIP3   OH230556   6.140   1.302   1.589  0.3479 -0.3152  0.8368
 2974TIP3    H130557   6.212   1.362   1.571  0.1071 -0.7601 -2.1787
 2974TIP3    H230558   6.106   1.279   1.503 -1.9085 -1.9667  2.0519
 2975TIP3   OH230559   1.187   5.693   7.326  0.3054 -0.2106 -0.2767
 2975TIP3    H130560   1.106   5.743   7.314  0.9009  1.0805  0.7917
 2975TIP3    H230561   1.205   5.656   7.240 -0.3544  1.1462 -1.0420
 2976TIP3   OH230562   1.619   5.423   8.512  0.0564  0.0699 -0.0146
 2976TIP3    H130563   1.555   5.353   8.523 -0.5757  0.3835 -1.5163
 2976TIP3    H230564   1.691   5.383   8.464  0.4780  0.0178  0.6496
 2977TIP3   OH230565   0.144   1.338   1.730  0.0602  0.5658  0.1622
 2977TIP3    H130566   0.066   1.378   1.692 -0.9414 -1.0950  0.3809
 2977TIP3    H230567   0.153   1.379   1.816  0.5171  2.0590 -0.5480
 2978TIP3   OH230568   3.872   1.946   8.547  0.0314 -0.3348 -0.2804
 2978TIP3    H130569   3.870   1.890   8.470  0.8173 -2.2041  0.9958
 2978TIP3    H230570   3.795   1.922   8.597  0.2022 -0.0577  0.1240
 2979TIP3   OH230571   2.789   4.390   8.890  0.1639  0.0872  0.1880
 2979TIP3    H130572   2.854   4.391   8.820  0.1077  1.0405  0.1326
 2979TIP3    H230573   2.705   4.385   8.845  0.1300  0.6513  0.1767
 2980TIP3   OH230574   2.923   4.377   8.644  0.1991 -0.8573  0.3575
 2980TIP3    H130575   2.973   4.436   8.587  0.0266 -0.3055  0.7769
 2980TIP3    H230576   2.969   4.293   8.636 -0.1635 -0.9395 -1.0387
 2981TIP3   OH230577   3.093   3.751   7.707  0.1610 -0.3361 -0.1994
 2981TIP3    H130578   3.147   3.750   7.628  0.2224 -0.0003 -0.1628
 2981TIP3    H230579   3.141   3.806   7.769  0.1812 -0.7117  0.1204
 2982TIP3   OH230580   0.315   0.241   0.109  0.7477  0.1679 -0.0286
 2982TIP3    H130581   0.396   0.197   0.134  0.6780  0.3823  0.6177
 2982TIP3    H230582   0.326   0.331   0.141 -0.6651 -0.3808  2.2409
 2983TIP3   OH230583   4.678   4.533   1.419 -0.5534  0.5282 -0.1779
 2983TIP3    H130584   4.639   4.523   1.506  1.2327  0.9175  0.7198
 2983TIP3    H230585   4.711   4.446   1.398 -0.6183  0.5297 -0.2876
 2984TIP3   OH230586   3.455   6.682   7.342 -0.1341 -0.1880  0.2091
 2984TIP3    H130587   3.540   6.639   7.332  1.3808  1.7781  3.2579
 2984TIP3    H230588   3.431   6.666   7.433 -2.3697  0.5377 -0.1962
 2985TIP3   OH230589   2.830   1.713   0.685  0.0172  0.0507  0.0380
 2985TIP3    H130590   2.745   1.671   0.670  0.4750 -1.6624  1.8682
 2985TIP3    H230591   2.893   1.642   0.678  1.2430  1.1684 -0.5446
 2986TIP3   OH230592   3.373   4.876   0.644  0.0130  0.0103 -0.1573
 2986TIP3    H130593   3.408   4.850   0.558  0.6755 -0.8986  0.3714
 2986TIP3    H230594   3.444   4.856   0.705 -1.1969 -1.2644  0.8689
 2987TIP3   OH230595   5.738   1.737   8.763 -0.3498  0.5491 -0.2028
 2987TIP3    H130596   5.644   1.745   8.749 -0.9341 -0.0125  2.7726
 2987TIP3    H230597   5.760   1.649   8.735 -0.7382  0.6079 -0.7021
 2988TIP3   OH230598   1.411   0.406   1.623 -0.1808 -0.3478 -0.2951
 2988TIP3    H130599   1.484   0.465   1.601 -0.1892 -0.4193 -0.5187
 2988TIP3    H230600   1.435   0.370   1.709  0.0246 -0.3336 -0.3446
 2989TIP3   OH230601   3.108   2.120   0.568 -0.2290  0.3632 -0.6050
 2989TIP3    H130602   3.115   2.111   0.663 -0.2230 -0.2660 -0.6599
 2989TIP3    H230603   3.138   2.209   0.550 -0.2021  0.4767 -0.0207
 2990TIP3   OH230604   5.729   0.715   8.973  0.1622 -0.0053 -0.6076
 2990TIP3    H130605   5.816   0.752   8.958 -0.6559  1.8537 -0.9901
 2990TIP3    H230606   5.736   0.669   9.057  1.2137  1.1086 -0.0592
 2991TIP3   OH230607   2.255   0.006   0.990  0.1581  0.1035  0.2399
 2991TIP3    H130608   2.166   0.033   1.012 -0.4154 -1.3695 -0.1920
 2991TIP3    H230609   2.310   0.076   1.026 -1.0987  0.5751  1.3553
 2992TIP3   OH230610   0.129   5.419   0.601 -0.2117  0.0857  0.3852
 2992TIP3    H130611   0.172   5.504   0.610 -1.4534  0.6073  1.6857
 2992TIP3    H230612   0.198   5.361   0.567  0.9876  1.3165  0.6358
 2993TIP3   OH230613   5.261   1.809   0.215  0.0119 -0.2123 -0.1251
 2993TIP3    H130614   5.229   1.800   0.305  0.9642 -2.1333  0.0719
 2993TIP3    H230615   5.193   1.768   0.161 -1.0112  1.7580 -0.4487
 2994TIP3   OH230616   3.825   2.368   1.893 -0.3543 -0.2280  0.2000
 2994TIP3    H130617   3.847   2.460   1.901  0.2329 -0.3606  0.1488
 2994TIP3    H230618   3.732   2.367   1.873 -0.6727  0.3188  1.5063
 2995TIP3   OH230619   4.365   0.712   7.346 -0.4402  0.2070 -0.0150
 2995TIP3    H130620   4.293   0.760   7.305 -1.1592 -0.6048  0.2620
 2995TIP3    H230621   4.322   0.654   7.410  0.4315 -0.4959 -0.0483
 2996TIP3   OH230622   0.197   5.805   8.028  0.0408 -0.3290  1.0372
 2996TIP3    H130623   0.103   5.817   8.016  0.1691  0.4976  0.7791
 2996TIP3    H230624   0.231   5.798   7.939  0.4014  0.9100  1.0558
 2997TIP3   OH230625   0.545   4.117   0.009 -0.8975  0.7783 -0.1872
 2997TIP3    H130626   0.615   4.055   0.030  0.0227  1.6866 -0.5039
 2997TIP3    H230627   0.591   4.199  -0.009 -2.1262  1.6873  0.7103
 2998TIP3   OH230628   2.952   3.110   2.059 -0.4189  0.1160 -0.3234
 2998TIP3    H130629   3.028   3.064   2.096 -0.3937  1.0605  0.8580
 2998TIP3    H230630   2.915   3.047   1.997  0.7567 -0.7378 -0.2148
 2999TIP3   OH230631   2.741   0.518   0.726  0.1797 -0.1208  0.0961
 2999TIP3    H130632   2.663   0.548   0.771 -0.0895 -1.9305  0.9405
 2999TIP3    H230633   2.805   0.505   0.796  1.0614  0.7635 -0.5185
 3000TIP3   OH230634   5.808   3.494   8.019  0.3190 -0.3372 -0.3434
 3000TIP3    H130635   5.886   3.440   8.032  0.6380  0.3722  0.8055
 3000TIP3    H230636   5.739   3.430   7.998  1.7189 -0.7936 -4.4242
 3001TIP3   OH230637   4.576   5.214   8.569  0.2765 -0.1980  0.0280
 3001TIP3    H130638   4.498   5.215   8.514  0.2778  0.2959  0.0320
 3001TIP3    H230639   4.551   5.161   8.645  0.3564 -1.0936 -0.5610
 3002TIP3   OH230640   6.659   1.048   8.003 -0.2784 -0.1980 -0.1812
 3002TIP3    H130641   6.754   1.035   8.005 -0.4547 -1.8549 -0.5500
 3002TIP3    H230642   6.647   1.140   7.982  1.2848 -0.5202 -3.0519
 3003TIP3   OH230643   5.942   3.358   8.917  0.0112 -0.1081  0.4018
 3003TIP3    H130644   5.893   3.440   8.912 -1.4798 -0.6994  3.2038
 3003TIP3    H230645   5.880   3.292   8.887  0.7418 -0.4203 -0.4881
 3004TIP3   OH230646   4.704   5.737   0.964  0.0990 -0.2214  0.1544
 3004TIP3    H130647   4.660   5.691   1.035  0.0806 -0.2605  0.1172
 3004TIP3    H230648   4.700   5.677   0.890 -2.3915  0.8967 -0.7395
 3005TIP3   OH230649   3.794   0.530   8.084 -0.2640  0.6230 -0.5743
 3005TIP3    H130650   3.813   0.494   7.998  2.8552 -1.1189  0.6870
 3005TIP3    H230651   3.700   0.517   8.096 -0.3532 -1.2394 -2.7574
 3006TIP3   OH230652   6.072   6.050   8.407  0.4126  0.3117  0.3162
 3006TIP3    H130653   6.002   6.007   8.358  0.8386 -0.8013  0.6511
 3006TIP3    H230654   6.089   5.991   8.481  2.1798  0.2021 -0.1400
 3007TIP3   OH230655   5.599   3.315   8.037 -0.2916 -0.1616  0.3847
 3007TIP3    H130656   5.594   3.282   7.947 -0.8375  0.4960  0.1623
 3007TIP3    H230657   5.623   3.239   8.089 -1.3130 -0.8785 -0.1413
 3008TIP3   OH230658   0.106   0.614   2.573  0.0300 -0.1608 -0.2415
 3008TIP3    H130659   0.037   0.554   2.601  1.0111 -1.4059 -0.4038
 3008TIP3    H230660   0.185   0.582   2.617  0.2054  2.3386  1.4302
 3009TIP3   OH230661   5.722   2.590   8.732  0.8412 -0.6007  0.8691
 3009TIP3    H130662   5.684   2.648   8.666  0.7083 -0.8223  0.7519
 3009TIP3    H230663   5.801   2.636   8.762  1.3159 -0.8410  0.0177
 3010TIP3   OH230664   1.325   2.072   0.246  0.0088  0.4232  0.1980
 3010TIP3    H130665   1.291   1.982   0.253  0.1824  0.3387 -0.0264
 3010TIP3    H230666   1.417   2.064   0.273 -0.6469  1.0061  2.8852
 3011TIP3   OH230667   0.417   2.913   6.551 -0.2414 -0.1907 -0.5771
 3011TIP3    H130668   0.479   2.968   6.598 -0.9832 -1.4907  2.1367
 3011TIP3    H230669   0.434   2.824   6.583 -1.8277 -0.9300 -1.6448
 3012TIP3   OH230670   5.973   0.373   0.067  0.3004  0.1252  0.0937
 3012TIP3    H130671   5.979   0.281   0.093  2.2095 -0.4453 -2.0311
 3012TIP3    H230672   6.063   0.399   0.048 -0.3349  2.1043 -0.4747
 3013TIP3   OH230673   0.162   4.243   7.901  0.5202 -0.1495 -0.2541
 3013TIP3    H130674   0.143   4.159   7.858  1.5858 -0.9504  0.7898
 3013TIP3    H230675   0.075   4.282   7.915 -0.1532 -1.9063  0.8432
 3014TIP3   OH230676   3.271   4.841   2.249 -0.3955 -0.5125 -0.4202
 3014TIP3    H130677   3.212   4.828   2.323  0.7591  0.3189  0.6675
 3014TIP3    H230678   3.310   4.755   2.233 -0.2558 -0.5811  0.2824
 3015TIP3   OH230679   0.544   0.981   0.396 -0.5093  0.8195 -0.1024
 3015TIP3    H130680   0.573   0.941   0.478  1.2547  0.5110 -0.8161
 3015TIP3    H230681   0.477   1.044   0.422 -0.7609 -0.0343  1.4449
 3016TIP3   OH230682   3.188   3.128   1.531  0.2004 -0.7984  0.0939
 3016TIP3    H130683   3.231   3.071   1.466  2.0367 -0.5073  0.9791
 3016TIP3    H230684   3.258   3.184   1.564 -1.3089  1.1499  0.1658
 3017TIP3   OH230685   4.441   0.076   8.495  0.1773 -0.1383 -0.2333
 3017TIP3    H130686   4.500   0.014   8.453 -0.6184 -0.3350 -1.1054
 3017TIP3    H230687   4.356   0.059   8.455 -0.7468 -0.6526  1.8366
 3018TIP3   OH230688   4.628   6.308   6.642 -0.1210  0.3422  0.1070
 3018TIP3    H130689   4.568   6.276   6.575  1.9740 -1.4276 -1.0363
 3018TIP3    H230690   4.671   6.383   6.601  1.2140 -0.7857 -0.6060
 3019TIP3   OH230691   2.800   2.981   7.595  0.0519  0.1619  0.3310
 3019TIP3    H130692   2.836   3.066   7.568 -1.2693  0.9395  0.9218
 3019TIP3    H230693   2.841   2.963   7.679  0.6380 -0.0001  0.0209
 3020TIP3   OH230694   0.677   3.401   6.699  0.6587 -0.1299  0.1730
 3020TIP3    H130695   0.611   3.344   6.738  1.6042 -0.5244  1.2478
 3020TIP3    H230696   0.719   3.444   6.774  0.0299  1.9469 -0.5988
 3021TIP3   OH230697   4.827   4.773   1.425  0.4796 -0.2489 -0.9727
 3021TIP3    H130698   4.765   4.700   1.433 -0.3762  0.5657  0.0554
 3021TIP3    H230699   4.875   4.773   1.508 -0.2663  0.9970 -0.5199
 3022TIP3   OH230700   5.894   4.054   8.166 -0.5276 -0.2408 -0.1063
 3022TIP3    H130701   5.985   4.046   8.196 -0.3648  1.2482 -0.1054
 3022TIP3    H230702   5.848   3.983   8.210  0.4856 -0.5078  0.5566
 3023TIP3   OH230703   6.326   1.206   1.124 -0.1054  0.3613 -0.2007
 3023TIP3    H130704   6.373   1.154   1.059 -2.1129 -0.4266 -1.1181
 3023TIP3    H230705   6.374   1.191   1.206  0.9350 -0.7466 -0.9774
 3024TIP3   OH230706   0.236   6.079   1.167  0.3504 -0.0406  0.4920
 3024TIP3    H130707   0.210   6.022   1.095 -1.2892 -0.0361  1.0334
 3024TIP3    H230708   0.266   6.019   1.235  1.6336 -0.0597 -0.0698
 3025TIP3   OH230709   2.655   6.646   1.043 -0.0673  0.2659  0.4654
 3025TIP3    H130710   2.712   6.586   1.091 -0.3827 -1.2527 -0.9658
 3025TIP3    H230711   2.589   6.672   1.108  0.5248 -0.3014  1.3285
 3026TIP3   OH230712   6.397   0.742   1.649 -0.1337  0.5988 -0.2670
 3026TIP3    H130713   6.323   0.753   1.708  0.1940  1.8225 -0.0689
 3026TIP3    H230714   6.371   0.786   1.568 -0.7928 -1.4968 -1.2840
 3027TIP3   OH230715   0.194   3.237   8.015  0.3464 -0.5481 -0.7119
 3027TIP3    H130716   0.189   3.175   7.942  1.6232 -0.9323 -0.4908
 3027TIP3    H230717   0.284   3.269   8.014 -0.2984  1.4014 -0.8714
 3028TIP3   OH230718   4.505   6.641   6.939 -0.3160  0.1212 -0.0883
 3028TIP3    H130719   4.494   6.602   6.852  0.7532  0.2048 -0.2820
 3028TIP3    H230720   4.460   6.581   6.999 -0.4634 -0.3056 -0.6173
 3029TIP3   OH230721   6.084   1.667   1.632  0.7059 -0.3064 -0.4181
 3029TIP3    H130722   6.108   1.757   1.609  1.1495 -0.6103 -1.1883
 3029TIP3    H230723   6.058   1.672   1.724 -0.5623  0.8642 -0.7990
 3030TIP3   OH230724   1.795   6.210   8.674 -0.7591 -0.3063 -0.2368
 3030TIP3    H130725   1.772   6.240   8.586  0.5259 -2.2331 -1.2925
 3030TIP3    H230726   1.776   6.116   8.673 -0.5515 -0.4021  1.4980
 3031TIP3   OH230727   2.310   5.866   6.352  0.1524 -0.4722 -0.1144
 3031TIP3    H130728   2.255   5.917   6.293 -2.4171 -1.0674  1.5954
 3031TIP3    H230729   2.331   5.786   6.303  0.2649  0.1446 -1.0991
 3032TIP3   OH230730   4.002   6.468   8.841  0.3159  0.3269  0.0149
 3032TIP3    H130731   4.090   6.477   8.878 -0.5320  1.3130  1.9542
 3032TIP3    H230732   3.948   6.531   8.891 -1.9268 -1.7644  0.4301
 3033TIP3   OH230733   6.515   3.784   6.671 -0.6066 -0.1879  0.0743
 3033TIP3    H130734   6.434   3.763   6.626 -0.7146  0.6301 -0.1178
 3033TIP3    H230735   6.490   3.848   6.738 -0.1228  0.1080 -0.0193
 3034TIP3   OH230736   5.153   0.853   1.100 -0.0116 -0.1278 -0.2384
 3034TIP3    H130737   5.213   0.805   1.156  0.1072  0.0216 -0.2370
 3034TIP3    H230738   5.090   0.893   1.160  0.3424  0.3517 -0.1754
 3035TIP3   OH230739   4.249   0.940   1.330 -0.0634  0.1629  0.6997
 3035TIP3    H130740   4.260   0.882   1.254 -0.6474 -1.1373  1.5636
 3035TIP3    H230741   4.201   0.887   1.393  0.5925  1.1501  2.0702
 3036TIP3   OH230742   1.152   1.864   1.944  0.0969  0.2011  0.0288
 3036TIP3    H130743   1.071   1.874   1.893 -0.5181 -0.7801  0.7811
 3036TIP3    H230744   1.135   1.913   2.025 -0.5959 -1.7216  1.1070
 3037TIP3   OH230745   0.805   6.215   6.391  0.4924 -0.5472 -0.1819
 3037TIP3    H130746   0.838   6.126   6.383 -1.6903 -1.3928 -0.3102
 3037TIP3    H230747   0.856   6.265   6.328  1.7420 -1.6857 -0.1158
 3038TIP3   OH230748   5.935   3.501   0.730  0.3039  0.1070 -0.1016
 3038TIP3    H130749   5.907   3.410   0.733 -1.0466  0.4975 -0.3283
 3038TIP3    H230750   5.925   3.532   0.820 -1.5506  0.6640 -0.4504
 3039TIP3   OH230751   2.782   0.276   6.249 -0.3206 -0.0076 -0.1637
 3039TIP3    H130752   2.744   0.191   6.273 -0.9521  0.7739  1.7738
 3039TIP3    H230753   2.868   0.254   6.214 -1.3217 -1.5912 -1.7817
 3040TIP3   OH230754   1.276   4.969   7.803  0.0478 -0.3514 -0.4815
 3040TIP3    H130755   1.354   4.918   7.825 -1.0068 -2.1508 -0.7657
 3040TIP3    H230756   1.304   5.060   7.812  1.3824 -0.9257  2.2606
 3041TIP3   OH230757   3.827   3.921   1.891  0.0866  0.0520 -0.0593
 3041TIP3    H130758   3.818   4.004   1.937 -0.5482 -1.0820  1.9441
 3041TIP3    H230759   3.746   3.911   1.842  0.0136  0.4393 -0.0157
 3042TIP3   OH230760   6.049   2.508   7.753 -0.1062  0.5007 -0.3206
 3042TIP3    H130761   5.988   2.550   7.692 -1.1425 -0.7375 -0.1997
 3042TIP3    H230762   6.123   2.568   7.759 -1.5900  2.3763  0.0075
 3043TIP3   OH230763   2.914   0.819   6.697  0.5959  0.2964  0.7427
 3043TIP3    H130764   2.824   0.845   6.674  1.2208  2.1539  0.2147
 3043TIP3    H230765   2.912   0.809   6.792 -0.4329 -0.8863  0.6271
 3044TIP3   OH230766   3.512   2.000   7.437  0.4792  0.1109  0.1656
 3044TIP3    H130767   3.531   2.040   7.352  1.9008  0.8573  0.7903
 3044TIP3    H230768   3.492   2.074   7.494 -0.8878 -0.4156  0.4060
 3045TIP3   OH230769   2.050   1.835   1.202 -0.3641 -0.1528 -0.0074
 3045TIP3    H130770   2.027   1.879   1.120  1.7279  1.3539  0.1398
 3045TIP3    H230771   2.106   1.762   1.175  0.2238  0.2697  0.0505
 3046TIP3   OH230772   4.128   2.818   7.354 -0.4036 -0.7423 -0.0067
 3046TIP3    H130773   4.048   2.831   7.406 -0.2311 -1.4490  0.4369
 3046TIP3    H230774   4.198   2.855   7.407 -0.6411  1.7074 -1.2310
 3047TIP3   OH230775   0.042   4.942   8.202 -0.5318 -0.2826 -0.2629
 3047TIP3    H130776   0.035   5.004   8.274 -1.4356 -1.6216  0.8630
 3047TIP3    H230777   0.134   4.946   8.175 -0.4271  1.0229  0.2398
 3048TIP3   OH230778   2.488   2.681   0.889 -0.4473 -0.0077  0.1245
 3048TIP3    H130779   2.516   2.760   0.934 -0.0203 -0.2286  0.2507
 3048TIP3    H230780   2.506   2.699   0.796  2.1560 -0.9435  0.3775
 3049TIP3   OH230781   4.129   4.166   1.331  0.2787  0.0609  0.1718
 3049TIP3    H130782   4.034   4.160   1.325  0.1229 -0.0504  2.0318
 3049TIP3    H230783   4.156   4.206   1.249 -1.3610 -0.0074 -0.4393
 3050TIP3   OH230784   1.123   2.271   1.471 -0.3004  0.6501 -0.0453
 3050TIP3    H130785   1.032   2.271   1.501 -0.6193 -2.0294 -0.8178
 3050TIP3    H230786   1.161   2.192   1.509  1.0350  0.4783 -1.6350
 3051TIP3   OH230787   3.821   3.992   0.363 -0.1353 -0.0924  0.5723
 3051TIP3    H130788   3.757   4.051   0.402  0.5705  0.6454  0.6402
 3051TIP3    H230789   3.844   4.032   0.280  0.0074 -0.5158  0.4014
 3052TIP3   OH230790   5.533   5.435   2.222 -0.0079 -0.0107 -0.0306
 3052TIP3    H130791   5.563   5.524   2.202  1.0854 -0.5165 -0.7070
 3052TIP3    H230792   5.516   5.436   2.316  1.7030  0.4441  0.3025
 3053TIP3   OH230793   6.471   3.271   0.229 -0.1422 -0.4609  0.6490
 3053TIP3    H130794   6.411   3.239   0.297 -2.9640  1.9618 -0.4470
 3053TIP3    H230795   6.440   3.230   0.148 -0.2548  0.6887  0.0875
 3054TIP3   OH230796   1.225   4.972   8.199  0.1744 -0.0645 -0.0981
 3054TIP3    H130797   1.163   4.907   8.167 -0.0474 -0.0698  0.3315
 3054TIP3    H230798   1.170   5.044   8.230  0.4534  1.1136 -2.1653
 3055TIP3   OH230799   6.323   5.679   1.787  0.2419  0.1366  0.5298
 3055TIP3    H130800   6.335   5.612   1.854 -0.0124  0.8520  1.3105
 3055TIP3    H230801   6.384   5.654   1.718  1.3682  0.0032  1.5283
 3056TIP3   OH230802   3.685   3.045   7.470  0.0651  0.0890 -0.0993
 3056TIP3    H130803   3.697   2.955   7.438 -1.2761 -0.5049  0.9869
 3056TIP3    H230804   3.629   3.086   7.405 -1.5340 -0.7077  0.7131
 3057TIP3   OH230805   1.099   2.800   0.751  0.2243 -0.0430  0.4156
 3057TIP3    H130806   1.017   2.774   0.709  0.3141 -0.1791  0.3252
 3057TIP3    H230807   1.103   2.748   0.831 -0.0491  0.3674  0.7010
 3058TIP3   OH230808   6.783   4.416   1.673  0.2229 -0.3026 -1.4135
 3058TIP3    H130809   6.699   4.460   1.664 -0.4860 -1.7730 -2.5556
 3058TIP3    H230810   6.827   4.430   1.589  0.6217 -0.4944 -1.2392
 3059TIP3   OH230811   0.518   2.830   0.585 -0.1510  0.8754 -0.4895
 3059TIP3    H130812   0.444   2.889   0.597  0.2965  1.4917 -0.7017
 3059TIP3    H230813   0.481   2.753   0.544 -1.0289  0.3302  1.2326
 3060TIP3   OH230814   1.600   0.413   1.089 -0.0815  0.2279  0.4382
 3060TIP3    H130815   1.656   0.471   1.141 -0.7595 -0.9034  2.5269
 3060TIP3    H230816   1.527   0.468   1.062  1.0859  1.2501 -0.7931
 3061TIP3   OH230817   4.762   3.952   8.279 -0.5060  0.1470 -0.0149
 3061TIP3    H130818   4.700   3.999   8.335 -2.1444 -1.6929 -0.2257
 3061TIP3    H230819   4.709   3.911   8.211  1.0346 -0.7407 -0.7496
 3062TIP3   OH230820   2.105   4.701   2.426 -0.2140  0.5729  0.6293
 3062TIP3    H130821   2.090   4.762   2.498 -0.4477 -0.4740  1.5020
 3062TIP3    H230822   2.045   4.730   2.357 -1.2159  0.6050  1.4908
 3063TIP3   OH230823   2.622   3.608   1.612  0.1093  0.3320 -1.2331
 3063TIP3    H130824   2.553   3.605   1.546  0.3319  1.3317 -1.5260
 3063TIP3    H230825   2.575   3.625   1.694 -0.0709  0.0786 -1.2799
 3064TIP3   OH230826   2.136   0.915   0.836 -0.3298 -0.0256  0.9475
 3064TIP3    H130827   2.173   0.939   0.751 -0.5025  0.5506  1.0256
 3064TIP3    H230828   2.212   0.898   0.891 -0.2274 -0.8787  0.5469
 3065TIP3   OH230829   1.588   6.097   0.111 -0.0168  0.3292 -0.2564
 3065TIP3    H130830   1.571   6.185   0.076 -0.0377  0.4477  0.0482
 3065TIP3    H230831   1.507   6.072   0.155 -0.0412  0.1174 -0.4177
 3066TIP3   OH230832   2.744   3.733   6.954  0.2100 -0.0392 -0.2393
 3066TIP3    H130833   2.678   3.768   7.013  1.8631  0.6258  1.3013
 3066TIP3    H230834   2.704   3.653   6.917 -2.3198  1.5525 -1.2177
 3067TIP3   OH230835   1.024   1.013   7.844 -0.6137 -0.1621 -0.2788
 3067TIP3    H130836   0.941   1.024   7.797 -1.1842 -1.2250  0.4531
 3067TIP3    H230837   1.016   1.070   7.921 -0.6587 -0.2621 -0.2099
 3068TIP3   OH230838   2.458   1.647   1.954 -0.7437  0.3666 -1.2419
 3068TIP3    H130839   2.472   1.592   1.877 -0.5821  1.1941 -1.8049
 3068TIP3    H230840   2.496   1.731   1.931  2.1226 -0.2013  0.8666
 3069TIP3   OH230841   0.733   5.217   0.068 -0.2006  0.2424  0.5414
 3069TIP3    H130842   0.799   5.148   0.056 -1.8032 -1.5142  1.4019
 3069TIP3    H230843   0.719   5.252  -0.020 -0.0702 -1.2274 -0.1002
 3070TIP3   OH230844   6.332   5.651   8.714  0.4972  0.2152  0.2451
 3070TIP3    H130845   6.275   5.600   8.657  0.7896  0.0129  0.1341
 3070TIP3    H230846   6.365   5.721   8.658  0.6504  0.1162  0.2115
 3071TIP3   OH230847   4.824   1.450   7.851 -0.6913 -0.0083 -0.0338
 3071TIP3    H130848   4.841   1.423   7.942 -1.8150 -1.9792 -0.3561
 3071TIP3    H230849   4.741   1.498   7.856 -0.9917 -0.5194 -0.0751
 3072TIP3   OH230850   0.396   6.279   1.110 -0.0288  0.2172  0.0245
 3072TIP3    H130851   0.402   6.309   1.019  1.6497 -0.1188 -0.0054
 3072TIP3    H230852   0.324   6.215   1.109  1.9112 -2.1578 -1.8127
 3073TIP3   OH230853   4.118   1.070   0.651  0.0174 -0.3118  0.2283
 3073TIP3    H130854   4.049   1.042   0.592  2.5468  0.6665 -3.5115
 3073TIP3    H230855   4.121   1.166   0.641  1.8879 -0.3388  0.2952
 3074TIP3   OH230856   3.902   1.560   8.123 -0.3658  0.5031 -0.0816
 3074TIP3    H130857   3.853   1.495   8.072  0.1064  1.4233 -1.8038
 3074TIP3    H230858   3.835   1.619   8.157 -0.6228  0.5614 -0.6724
 3075TIP3   OH230859   0.015   4.705   1.320  0.1195 -0.6039  0.0203
 3075TIP3    H130860   0.046   4.750   1.398 -1.4260 -0.1888  0.4388
 3075TIP3    H230861  -0.026   4.773   1.267 -0.4486 -1.1693 -0.2914
 3076TIP3   OH230862   2.945   4.610   7.336 -0.1218 -0.7640 -0.2291
 3076TIP3    H130863   2.865   4.579   7.294 -1.3706  0.6348  1.0462
 3076TIP3    H230864   2.967   4.542   7.400 -0.7605 -0.7603 -0.0056
 3077TIP3   OH230865   6.226   6.528   0.373  0.5003 -0.1963  0.1132
 3077TIP3    H130866   6.251   6.552   0.284  1.3250  0.0199  0.3905
 3077TIP3    H230867   6.229   6.433   0.374  0.1698 -0.2109 -0.1761
 3078TIP3   OH230868   3.519   5.939   0.771 -0.1478 -0.0253  0.2812
 3078TIP3    H130869   3.508   5.976   0.683 -2.1567  0.7494  0.8016
 3078TIP3    H230870   3.522   6.014   0.829 -1.6427 -0.5530  1.1054
 3079TIP3   OH230871   2.739   0.091   1.236 -0.5283  0.5941  0.0057
 3079TIP3    H130872   2.796   0.016   1.219  0.2575  1.0821  0.4095
 3079TIP3    H230873   2.658   0.053   1.270 -0.3799 -0.1016 -0.4070
 3080TIP3   OH230874   3.950   4.844   0.560 -0.2382 -0.3821 -0.0637
 3080TIP3    H130875   4.029   4.811   0.517 -0.6299  0.3199 -1.3642
 3080TIP3    H230876   3.881   4.782   0.534 -0.2959 -0.5031  0.3643
 3081TIP3   OH230877   1.113   6.480   7.814 -0.1123 -0.7162  0.2961
 3081TIP3    H130878   1.172   6.556   7.812  1.2176 -1.7037 -1.3732
 3081TIP3    H230879   1.087   6.472   7.906  1.1318  0.7010  0.8202
 3082TIP3   OH230880   3.448   4.379   1.233 -0.0722  0.0796  0.1103
 3082TIP3    H130881   3.429   4.417   1.319 -0.4056 -1.2402  0.6435
 3082TIP3    H230882   3.544   4.377   1.229 -0.0489 -0.7084  0.8542
 3083TIP3   OH230883   6.656   4.964   2.722 -0.5502 -0.3922 -0.2264
 3083TIP3    H130884   6.570   4.976   2.681  0.0819 -0.3176 -1.5890
 3083TIP3    H230885   6.642   4.896   2.789 -1.8585  0.3023  0.2416
 3084TIP3   OH230886   4.041   2.249   8.739  0.2464 -0.6453 -0.4004
 3084TIP3    H130887   3.973   2.282   8.681  0.5985  2.7264  0.8541
 3084TIP3    H230888   3.996   2.191   8.800 -0.7277 -1.5084 -1.8827
 3085TIP3   OH230889   2.204   6.519   7.309 -0.3391  0.4070 -0.2588
 3085TIP3    H130890   2.167   6.601   7.341 -1.7210 -0.2794 -0.0458
 3085TIP3    H230891   2.143   6.452   7.337  0.6741 -0.6942 -0.5909
 3086TIP3   OH230892   2.076   1.383   1.855  0.8654 -0.0938  0.0230
 3086TIP3    H130893   2.051   1.367   1.764 -0.7195 -1.1925  0.6141
 3086TIP3    H230894   2.087   1.478   1.860  0.4632  0.0370 -1.1954
 3087TIP3   OH230895   0.573   4.835   1.059  0.7508  0.2185  0.0618
 3087TIP3    H130896   0.655   4.801   1.094  1.4925  1.6550 -0.1928
 3087TIP3    H230897   0.588   4.929   1.051 -0.8458  0.4737 -0.2217
 3088TIP3   OH230898   6.660   0.695   1.054  0.1216  0.4090  0.2330
 3088TIP3    H130899   6.596   0.676   1.123  0.7751 -0.7128  0.5611
 3088TIP3    H230900   6.620   0.661   0.974  0.8401 -1.5708  0.6552
 3089TIP3   OH230901   6.576   3.517   0.336 -0.3441 -0.2763  0.2368
 3089TIP3    H130902   6.549   3.485   0.422 -1.0045 -1.1685 -0.2837
 3089TIP3    H230903   6.548   3.448   0.275 -0.8083  0.8081 -0.8079
 3090TIP3   OH230904   0.343   3.641   8.029  0.5137 -0.4196  0.1193
 3090TIP3    H130905   0.341   3.735   8.013  1.3041  0.1356  2.7694
 3090TIP3    H230906   0.253   3.618   8.049  0.6522  0.2272  1.5551
 3091TIP3   OH230907   4.266   3.659   1.432  0.3401 -0.6360  0.6487
 3091TIP3    H130908   4.239   3.705   1.352  1.9904  0.6528  0.7671
 3091TIP3    H230909   4.191   3.605   1.455 -1.8159  2.0806  0.5578
 3092TIP3   OH230910   5.159   5.075   8.288 -0.1562 -0.1926  0.1690
 3092TIP3    H130911   5.219   5.016   8.241 -2.3879 -2.2513 -0.3558
 3092TIP3    H230912   5.080   5.076   8.233 -0.0557  3.9102 -0.1666
 3093TIP3   OH230913   4.191   2.030   6.657  0.3384 -0.0871 -0.0954
 3093TIP3    H130914   4.215   1.937   6.658  0.8325  0.0343 -0.3380
 3093TIP3    H230915   4.255   2.072   6.714  1.1125  0.3329 -1.2385
 3094TIP3   OH230916   3.476   2.184   1.634  0.1906  0.3975 -0.1137
 3094TIP3    H130917   3.534   2.109   1.619  1.1627  0.9760  0.6010
 3094TIP3    H230918   3.449   2.175   1.726 -0.1581  0.5955 -0.1962
 3095TIP3   OH230919   1.336   5.574   0.331  0.2406 -0.3912  0.4280
 3095TIP3    H130920   1.370   5.540   0.414  1.6636  2.0148  0.9521
 3095TIP3    H230921   1.287   5.653   0.356 -1.6751 -1.1173 -0.8173
 3096TIP3   OH230922   2.933   3.487   6.962 -0.0381  0.4139 -0.4018
 3096TIP3    H130923   2.855   3.477   6.907  0.2700  0.5022 -0.8548
 3096TIP3    H230924   2.898   3.496   7.051 -0.5027 -0.7743 -0.4435
 3097TIP3   OH230925   1.426   6.544   7.373  0.1925 -0.3908 -1.1123
 3097TIP3    H130926   1.510   6.590   7.380  0.6183 -1.2848 -0.1071
 3097TIP3    H230927   1.426   6.483   7.447 -1.6446  0.0826 -0.6775
 3098TIP3   OH230928   2.827   1.037   5.945 -0.0552  0.0040 -0.0482
 3098TIP3    H130929   2.840   1.030   6.039  1.6330  0.8344 -0.1927
 3098TIP3    H230930   2.867   0.957   5.910 -0.2806 -0.0893 -0.0924
 3099TIP3   OH230931   0.342   2.548   0.153  0.7151 -0.1485  0.5499
 3099TIP3    H130932   0.418   2.547   0.095  0.5786  1.0137  0.3308
 3099TIP3    H230933   0.344   2.462   0.196  0.9171 -0.9799 -1.0376
 3100TIP3   OH230934   0.384   1.526   1.762 -0.3132 -0.1811  0.0552
 3100TIP3    H130935   0.332   1.501   1.685 -0.2897  0.8102 -0.3023
 3100TIP3    H230936   0.320   1.533   1.833 -0.4779 -0.2012 -0.0902
 3101TIP3   OH230937   3.341   2.447   6.719 -0.1848  0.4587 -0.0538
 3101TIP3    H130938   3.255   2.411   6.698 -0.2184  0.0024  0.8045
 3101TIP3    H230939   3.357   2.512   6.651 -2.3460  2.4009  1.1040
 3102TIP3   OH230940   0.146   5.282   2.261 -0.6737  0.4522  0.5221
 3102TIP3    H130941   0.209   5.350   2.235 -1.5259  0.5968 -1.2857
 3102TIP3    H230942   0.120   5.306   2.350  0.6998  1.2266  0.7364
 3103TIP3   OH230943   5.630   4.863   2.069  0.3907 -0.1869 -0.0638
 3103TIP3    H130944   5.725   4.857   2.056  0.4712 -2.3804  1.0201
 3103TIP3    H230945   5.613   4.807   2.145 -1.8558 -0.5108 -0.7390
 3104TIP3   OH230946   2.347   4.671   7.164  0.1289  0.6361  0.0388
 3104TIP3    H130947   2.281   4.642   7.227  0.9270  1.1041  1.1190
 3104TIP3    H230948   2.408   4.723   7.216  0.5571  1.4306 -1.2162
 3105TIP3   OH230949   1.901   3.988   1.787 -0.3781  0.2229  0.1966
 3105TIP3    H130950   1.919   4.057   1.850 -1.4372 -0.5793  1.4373
 3105TIP3    H230951   1.811   4.006   1.757 -0.2358  0.0423 -0.3432
 3106TIP3   OH230952   1.249   1.305   0.606 -0.1769 -0.2148  0.6728
 3106TIP3    H130953   1.331   1.351   0.623 -1.0103  1.7339 -0.2634
 3106TIP3    H230954   1.215   1.283   0.693  1.5553 -1.5884  1.0604
 3107TIP3   OH230955   6.622   6.386   8.976  0.2272  0.1707 -0.4052
 3107TIP3    H130956   6.696   6.331   8.951 -0.4285  0.1140 -2.3335
 3107TIP3    H230957   6.607   6.442   8.901  0.2430  2.3836  1.1319
 3108TIP3   OH230958   0.692   3.718   8.825 -0.2005 -0.1933 -0.3336
 3108TIP3    H130959   0.723   3.808   8.830 -0.7832 -0.0534  1.9306
 3108TIP3    H230960   0.749   3.677   8.760  2.2195  1.0168  0.8694
 3109TIP3   OH230961   6.643   0.398   8.028 -0.1614 -0.4579 -0.0253
 3109TIP3    H130962   6.731   0.426   8.054 -0.0488 -1.2718  0.5076
 3109TIP3    H230963   6.643   0.403   7.932  0.6045 -0.8471 -0.0523
 3110TIP3   OH230964   2.370   3.682   7.672  0.0546 -0.0831  0.4635
 3110TIP3    H130965   2.288   3.716   7.708 -0.4576  1.0720 -1.6456
 3110TIP3    H230966   2.421   3.759   7.650  2.3643 -0.7563  2.8898
 3111TIP3   OH230967   0.527   4.909   8.775  0.2365  0.5171 -0.1331
 3111TIP3    H130968   0.622   4.903   8.760  0.4584  0.0448  1.2640
 3111TIP3    H230969   0.502   4.993   8.737  1.1601  0.5117 -0.7968
 3112TIP3   OH230970   2.889   3.996   6.924 -0.5866  0.1569  0.0565
 3112TIP3    H130971   2.885   3.901   6.911  1.6899 -0.0462  0.3853
 3112TIP3    H230972   2.798   4.024   6.929 -1.3041 -2.0394  0.1722
 3113TIP3   OH230973   5.390   3.036   8.663  0.0383  0.6752  0.0973
 3113TIP3    H130974   5.304   3.004   8.637 -0.0136  0.8875  0.0020
 3113TIP3    H230975   5.379   3.131   8.670  0.7977  0.9962 -2.1045
 3114TIP3   OH230976   5.928   3.673   2.335  0.9282 -0.0418  0.2701
 3114TIP3    H130977   5.895   3.721   2.411  0.8670 -0.6840  0.6551
 3114TIP3    H230978   6.020   3.700   2.328  0.0632  2.9136 -1.6946
 3115TIP3   OH230979   2.515   3.815   7.053  0.1028 -0.0431 -0.5934
 3115TIP3    H130980   2.450   3.759   7.095 -0.4335  1.0600  0.1132
 3115TIP3    H230981   2.478   3.834   6.967 -0.5570  0.6269 -0.1727
 3116TIP3   OH230982   5.508   3.617   8.333  0.7159  0.0218  0.4730
 3116TIP3    H130983   5.597   3.602   8.364  0.4171 -2.0649  0.5194
 3116TIP3    H230984   5.515   3.613   8.237  0.6520 -0.5218  0.4824
 3117TIP3   OH230985   4.560   3.623   0.915 -0.1498  0.6432 -0.0234
 3117TIP3    H130986   4.497   3.688   0.886 -0.5591 -0.4257 -1.6548
 3117TIP3    H230987   4.640   3.674   0.932 -0.2045  1.5088 -2.0561
 3118TIP3   OH230988   3.582   5.699   2.274 -0.1221 -0.5960 -0.0841
 3118TIP3    H130989   3.610   5.650   2.197  0.0005  0.4230 -0.7077
 3118TIP3    H230990   3.661   5.708   2.327  0.6253  1.4974 -1.4149
 3119TIP3   OH230991   3.551   5.397   8.568  0.4041 -0.0522  0.5250
 3119TIP3    H130992   3.529   5.348   8.647 -1.4141  0.7773  0.5827
 3119TIP3    H230993   3.644   5.377   8.552 -0.1681 -3.3270  0.6161
 3120TIP3   OH230994   0.146   1.489   1.341 -0.2611 -0.0369  0.4996
 3120TIP3    H130995   0.062   1.471   1.384 -0.1145 -0.6389  0.5490
 3120TIP3    H230996   0.183   1.562   1.391 -2.2679  2.6267 -1.5894
 3121TIP3   OH230997   4.881   3.592   8.397  0.3524 -0.4708 -0.1598
 3121TIP3    H130998   4.895   3.518   8.455 -1.6368 -1.3779 -0.7206
 3121TIP3    H230999   4.955   3.650   8.412  0.6605 -1.3730  2.1602
 3122TIP3   OH231000   5.047   0.412   1.741  0.3699 -0.3122  0.0364
 3122TIP3    H131001   5.056   0.327   1.698 -0.4588 -1.3407  1.7929
 3122TIP3    H231002   5.008   0.392   1.826  0.3063  1.8210  0.5647
 3123TIP3   OH231003   0.795   3.843   2.066 -0.3403 -0.4727 -0.2683
 3123TIP3    H131004   0.771   3.776   2.002  0.1935 -0.1785 -0.7779
 3123TIP3    H231005   0.713   3.862   2.112 -1.1003  0.4639 -1.9237
 3124TIP3   OH231006   5.264   1.204   8.650 -0.1148 -0.1813 -0.0949
 3124TIP3    H131007   5.220   1.180   8.569 -0.5841  1.1581 -0.2657
 3124TIP3    H231008   5.261   1.125   8.704  0.9403 -1.3422 -1.6785
 3125TIP3   OH231009   0.656   4.155   1.799 -0.8076  0.3007 -0.3993
 3125TIP3    H131010   0.589   4.156   1.731 -0.9732 -2.0928 -0.3650
 3125TIP3    H231011   0.621   4.096   1.866 -0.1036  1.6098  1.2054
 3126TIP3   OH231012   5.675   1.018   2.399  0.5326  0.4404  0.1032
 3126TIP3    H131013   5.769   1.019   2.417  0.4961 -0.9529  0.5058
 3126TIP3    H231014   5.655   1.106   2.367  1.7945  1.0509  0.9257
 3127TIP3   OH231015   4.062   6.466   8.565  0.1504  0.3048  0.3675
 3127TIP3    H131016   4.009   6.543   8.546 -0.8357 -0.3166  0.4673
 3127TIP3    H231017   4.034   6.439   8.653 -0.0641 -0.5815  0.0416
 3128TIP3   OH231018   2.918   3.812   8.726 -0.0337  0.2077 -0.1210
 3128TIP3    H131019   2.981   3.780   8.661  0.9119  1.1969  0.2674
 3128TIP3    H231020   2.954   3.784   8.810 -1.1275 -0.8607  0.0087
 3129TIP3   OH231021   3.476   2.185   7.645 -1.0484  0.4309  0.1511
 3129TIP3    H131022   3.413   2.222   7.584 -1.2186 -0.1525 -0.0385
 3129TIP3    H231023   3.504   2.259   7.699 -0.5651  1.0475 -0.9152
 3130TIP3   OH231024   5.587   2.890   1.946  1.1529 -0.3684 -0.2045
 3130TIP3    H131025   5.636   2.826   1.895 -1.2634 -2.0475 -0.5912
 3130TIP3    H231026   5.558   2.842   2.023 -0.9404  0.1253 -0.6309
 3131TIP3   OH231027   6.419   2.965   1.000 -0.6971  0.3809 -0.8753
 3131TIP3    H131028   6.432   2.887   1.055 -1.1812  0.6197 -0.3978
 3131TIP3    H231029   6.500   2.974   0.950  1.2048  2.0470  2.1969
 3132TIP3   OH231030   3.538   0.637   6.115 -0.1017 -0.1729 -0.0174
 3132TIP3    H131031   3.474   0.708   6.118 -1.3353 -1.2426 -0.0508
 3132TIP3    H231032   3.606   0.669   6.057 -1.1816  0.5526 -0.9267
 3133TIP3   OH231033   4.126   5.929   0.719 -0.1958 -0.5050  0.0829
 3133TIP3    H131034   4.145   5.902   0.629  1.8963 -3.3576  1.2251
 3133TIP3    H231035   4.069   5.861   0.753 -1.3952  0.8153  0.8374
 3134TIP3   OH231036   0.462   2.737   1.550 -0.1571  0.0626 -0.1134
 3134TIP3    H131037   0.483   2.812   1.606  0.9849 -1.4241  1.5529
 3134TIP3    H231038   0.543   2.716   1.505 -0.9201  0.8744 -1.9732
 3135TIP3   OH231039   5.986   6.161   7.247  0.3746 -0.7479 -0.0326
 3135TIP3    H131040   5.976   6.123   7.160 -0.0910 -2.4599  0.7322
 3135TIP3    H231041   5.943   6.099   7.305  2.1079 -0.4736  1.6283
 3136TIP3   OH231042   0.221   1.293   2.326  0.1624 -0.3787  0.0245
 3136TIP3    H131043   0.314   1.307   2.310 -0.3374 -0.8927 -4.4191
 3136TIP3    H231044   0.184   1.381   2.333  0.9121 -0.1663  2.4023
 3137TIP3   OH231045   4.092   0.007   0.039  0.1885  0.3781  0.4974
 3137TIP3    H131046   4.125  -0.082   0.050  0.0235 -0.0380 -1.8003
 3137TIP3    H231047   4.168   0.057   0.009 -0.1781  0.4974 -0.2602
 3138TIP3   OH231048   3.475   1.246   7.079  0.1424  0.1425 -0.0505
 3138TIP3    H131049   3.473   1.150   7.083 -1.7085  0.1688  1.9466
 3138TIP3    H231050   3.438   1.274   7.163  1.6841  2.6492 -0.1112
 3139TIP3   OH231051   0.008   5.058   7.203 -0.4054 -0.3842  0.5195
 3139TIP3    H131052   0.101   5.043   7.190 -0.0083  0.1285  2.4483
 3139TIP3    H231053  -0.015   5.003   7.278 -1.7648 -0.8141 -0.1769
 3140TIP3   OH231054   2.516   2.420   8.472 -0.0163 -0.4847 -0.3920
 3140TIP3    H131055   2.523   2.434   8.567  0.0897 -1.1743 -0.2937
 3140TIP3    H231056   2.604   2.438   8.439 -0.3955  1.2704 -0.5875
 3141TIP3   OH231057   3.098   1.382   1.427 -0.4434 -0.5536 -0.5342
 3141TIP3    H131058   3.106   1.389   1.332  0.7879  0.2850 -0.3954
 3141TIP3    H231059   3.175   1.428   1.461 -1.6637  0.5711  0.8938
 3142TIP3   OH231060   5.456   1.493   6.575 -0.3647  0.1775 -0.4053
 3142TIP3    H131061   5.376   1.451   6.604 -1.0890  1.1780 -0.9078
 3142TIP3    H231062   5.460   1.477   6.481 -1.0260  1.7737 -0.7429
 3143TIP3   OH231063   1.586   2.648   7.386  0.6380 -0.2537  0.4628
 3143TIP3    H131064   1.613   2.683   7.301 -0.1509 -0.9586 -0.0917
 3143TIP3    H231065   1.595   2.553   7.376 -2.7337 -0.6540 -0.0738
 3144TIP3   OH231066   5.183   1.317   6.127  0.1973 -0.0178  0.3227
 3144TIP3    H131067   5.240   1.366   6.068  0.0252  0.7745  0.7992
 3144TIP3    H231068   5.201   1.225   6.106 -0.8708  0.2193 -1.9013
 3145TIP3   OH231069   3.165   5.872   0.803  0.0532 -0.3831  0.6303
 3145TIP3    H131070   3.158   5.966   0.786 -0.7856 -0.3187  1.2487
 3145TIP3    H231071   3.217   5.865   0.882 -0.6582 -0.3761  1.1108
 3146TIP3   OH231072   3.166   3.179   8.119  0.3473  0.4053 -0.5432
 3146TIP3    H131073   3.205   3.247   8.173  1.5360 -1.3356  0.8837
 3146TIP3    H231074   3.240   3.141   8.072  0.0659 -1.3383  0.3660
 3147TIP3   OH231075   2.142   6.552   8.571 -0.2533 -0.2839  0.1102
 3147TIP3    H131076   2.073   6.486   8.577 -1.0126  0.1795 -2.3549
 3147TIP3    H231077   2.199   6.534   8.645 -0.8658 -3.1974 -0.0120
 3148TIP3   OH231078   5.653   4.195   8.140  0.0959 -0.0585  0.0682
 3148TIP3    H131079   5.657   4.182   8.046  1.7099 -0.2116  0.1383
 3148TIP3    H231080   5.728   4.148   8.175  1.1761  2.2939  1.1549
 3149TIP3   OH231081   2.825   3.739   1.027  0.1715  0.1349 -0.2912
 3149TIP3    H131082   2.823   3.649   0.993  0.3000 -0.2055  0.5674
 3149TIP3    H231083   2.744   3.778   0.995  0.2819 -0.1729 -0.9683
 3150TIP3   OH231084   3.020   3.444   1.349  0.0491 -0.2726  0.8627
 3150TIP3    H131085   3.075   3.438   1.427 -1.0956  0.0738  1.7185
 3150TIP3    H231086   2.931   3.432   1.381 -0.5432  0.8794 -0.2332
 3151TIP3   OH231087   3.993   0.140   6.686 -0.0048 -0.3078 -0.0017
 3151TIP3    H131088   3.929   0.155   6.617 -0.2499 -0.6899  0.1387
 3151TIP3    H231089   4.024   0.050   6.670  0.3523 -0.1972  0.0494
 3152TIP3   OH231090   3.479   3.933   6.871  0.3481 -0.1934 -0.1905
 3152TIP3    H131091   3.494   3.972   6.785  0.2008 -0.3368 -0.2811
 3152TIP3    H231092   3.448   3.844   6.852 -0.4062  0.0231 -0.0077
 3153TIP3   OH231093   6.100   2.147   8.902  0.0086  0.2215 -0.4759
 3153TIP3    H131094   6.049   2.148   8.821  0.2273  1.6932 -0.6220
 3153TIP3    H231095   6.178   2.096   8.880 -0.4239 -0.2892 -0.8643
 3154TIP3   OH231096   6.125   1.554   7.396 -0.1700 -0.1352 -0.2311
 3154TIP3    H131097   6.111   1.638   7.353  3.1810  0.4359 -0.4825
 3154TIP3    H231098   6.183   1.506   7.338 -0.0773 -1.6505  1.0340
 3155TIP3   OH231099   1.363   2.493   0.103  0.7128 -0.5936  0.2232
 3155TIP3    H131100   1.299   2.486   0.032 -0.0351 -0.7241  0.8955
 3155TIP3    H231101   1.385   2.586   0.106  0.8706 -0.6116 -0.2837
 3156TIP3   OH231102   1.018   6.023   0.597 -0.1800  0.0166  0.0516
 3156TIP3    H131103   1.059   5.993   0.516  0.0656 -0.9989  0.5419
 3156TIP3    H231104   0.924   6.021   0.579 -0.1381 -0.5210 -0.0992
 3157TIP3   OH231105   3.101   2.283   1.726 -0.2924 -0.7066  0.5327
 3157TIP3    H131106   3.153   2.232   1.664 -3.1352 -0.5274 -2.2667
 3157TIP3    H231107   3.132   2.256   1.812  2.5781 -2.4341 -0.9181
 3158TIP3   OH231108   5.068   4.836   1.319  0.1755  0.2447 -0.7744
 3158TIP3    H131109   5.114   4.918   1.338  0.0713  0.2035 -0.3396
 3158TIP3    H231110   5.006   4.826   1.390  0.5613 -0.4903 -0.5285
 3159TIP3   OH231111   2.221   0.225   1.606  0.1009 -0.0579  0.0555
 3159TIP3    H131112   2.274   0.245   1.683 -0.2887  1.8248 -0.1005
 3159TIP3    H231113   2.145   0.179   1.640  0.1984  0.2708  0.7358
 3160TIP3   OH231114   2.419   3.865   8.727 -0.2215  0.5885  0.3555
 3160TIP3    H131115   2.423   3.941   8.785 -0.3005 -0.2990  1.5627
 3160TIP3    H231116   2.441   3.790   8.783 -3.9262 -0.8157  0.2299
 3161TIP3   OH231117   5.830   0.921   6.702 -0.1268  0.2261  0.2648
 3161TIP3    H131118   5.782   1.004   6.701  1.0519  0.9437  0.5196
 3161TIP3    H231119   5.914   0.942   6.661 -0.2954 -1.1808 -0.8950
 3162TIP3   OH231120   6.538   5.185   7.638 -0.2244 -0.0713 -0.2989
 3162TIP3    H131121   6.492   5.102   7.637  0.7395 -0.6200 -0.3976
 3162TIP3    H231122   6.498   5.236   7.568  0.9976 -1.4889 -2.1294
 3163TIP3   OH231123   4.613   1.505   8.817 -0.2767 -0.0558 -0.4717
 3163TIP3    H131124   4.537   1.558   8.841 -1.3588 -1.6545 -0.2348
 3163TIP3    H231125   4.580   1.415   8.813  1.6892 -0.8604  0.0718
 3164TIP3   OH231126   3.270   5.181   0.371 -0.2325 -0.3229  0.3000
 3164TIP3    H131127   3.205   5.127   0.417 -0.3538 -0.2036  0.2717
 3164TIP3    H231128   3.232   5.269   0.373 -0.6815 -0.4721 -0.8182
 3165TIP3   OH231129   5.424   4.165   6.600 -0.5125 -0.0652  0.0183
 3165TIP3    H131130   5.349   4.127   6.555  0.2849 -0.8264 -0.7210
 3165TIP3    H231131   5.469   4.089   6.639 -0.3112  0.4185  0.7484
 3166TIP3   OH231132   0.911   3.781   1.227  0.6533 -0.1110  0.2187
 3166TIP3    H131133   0.896   3.871   1.197  1.7097  0.2009  0.5904
 3166TIP3    H231134   0.826   3.738   1.217  0.0749  0.9925  0.2594
 3167TIP3   OH231135   6.327   2.024   8.767 -0.4565 -0.6586  0.1286
 3167TIP3    H131136   6.246   1.988   8.730 -0.3026  0.0781 -0.9816
 3167TIP3    H231137   6.385   2.033   8.691 -0.2768  1.3391  0.4655
 3168TIP3   OH231138   3.297   3.866   8.710  0.5211  0.8371 -0.1818
 3168TIP3    H131139   3.370   3.833   8.763  1.8752 -0.3008 -2.5907
 3168TIP3    H231140   3.223   3.810   8.734  2.0315 -2.1798 -2.0011
 3169TIP3   OH231141   1.661   3.680   1.516  0.0606  0.0135  0.2585
 3169TIP3    H131142   1.717   3.609   1.547  2.7684  0.8331 -2.3339
 3169TIP3    H231143   1.638   3.654   1.426 -3.0991  0.1614  0.9061
 3170TIP3   OH231144   0.864   4.287   6.823  0.1864  0.1101  0.2929
 3170TIP3    H131145   0.914   4.355   6.868 -0.5004  0.3093  0.7697
 3170TIP3    H231146   0.772   4.311   6.837 -0.0880  1.2116 -2.8366
 3171TIP3   OH231147   1.832   0.690   7.889  0.6924  0.1886  0.1199
 3171TIP3    H131148   1.752   0.671   7.840  1.1358  0.8942 -0.9009
 3171TIP3    H231149   1.831   0.627   7.961  0.2999 -1.2480 -1.0916
 3172TIP3   OH231150   5.720   0.327   8.913  0.1333  0.1281 -0.0064
 3172TIP3    H131151   5.665   0.397   8.877  0.5589 -1.6987 -4.8998
 3172TIP3    H231152   5.808   0.364   8.913 -0.1692  0.9649  1.8165
 3173TIP3   OH231153   5.431   0.437   8.181 -0.1812 -0.1049 -0.2402
 3173TIP3    H131154   5.507   0.414   8.234 -0.7048 -1.0680  0.1148
 3173TIP3    H231155   5.468   0.461   8.096  0.4838 -1.2750 -0.3079
 3174TIP3   OH231156   4.411   5.869   0.205 -0.0540  0.4342 -0.1506
 3174TIP3    H131157   4.446   5.833   0.123  1.1044 -1.3855  1.0778
 3174TIP3    H231158   4.456   5.953   0.215  1.0831 -0.1068 -0.5392
 3175TIP3   OH231159   2.453   1.698   7.031 -0.3008 -0.4314 -0.1157
 3175TIP3    H131160   2.504   1.760   6.979  0.2847  0.5763  1.5571
 3175TIP3    H231161   2.372   1.685   6.982  0.4456  0.0369 -1.5121
 3176TIP3   OH231162   3.991   4.352   8.023 -0.0057  0.1818  0.5840
 3176TIP3    H131163   4.014   4.426   8.080 -2.0484 -0.2869  2.1125
 3176TIP3    H231164   3.958   4.285   8.082  2.2854 -2.2740 -0.6892
 3177TIP3   OH231165   0.802   4.381   1.715  0.0364 -0.1691 -0.0185
 3177TIP3    H131166   0.745   4.408   1.643 -2.0047 -2.4122  0.6153
 3177TIP3    H231167   0.766   4.297   1.744  1.1668  0.3111  3.1951
 3178TIP3   OH231168   5.332   4.427   2.496  0.3613  0.5438  0.3486
 3178TIP3    H131169   5.361   4.478   2.572 -0.9501  1.8808 -0.0133
 3178TIP3    H231170   5.240   4.409   2.513  0.4811 -0.6180 -0.1500
 3179TIP3   OH231171   1.236   3.170   7.832  0.1014  0.3325 -0.0499
 3179TIP3    H131172   1.170   3.134   7.773  0.4192 -0.8215  0.2878
 3179TIP3    H231173   1.284   3.233   7.778 -0.7167  0.5623 -0.5311
 3180TIP3   OH231174   3.019   5.470   0.043 -0.1324  0.2721 -0.1898
 3180TIP3    H131175   3.063   5.404   0.096 -0.0488  0.3631 -0.1461
 3180TIP3    H231176   3.078   5.485  -0.031 -0.7419 -0.6389 -0.8794
 3181TIP3   OH231177   6.212   6.445   6.995 -0.1102  0.2745 -0.3394
 3181TIP3    H131178   6.271   6.424   6.922  1.2382 -0.9161  1.0302
 3181TIP3    H231179   6.133   6.393   6.978  0.7635 -1.1352 -0.2289
 3182TIP3   OH231180   6.352   0.925   1.451  0.3214  0.0747  0.4142
 3182TIP3    H131181   6.404   0.996   1.415 -1.4953 -0.0699 -2.9022
 3182TIP3    H231182   6.310   0.962   1.528  0.3951  2.2041 -0.5110
 3183TIP3   OH231183   4.051   5.984   7.857 -0.1421 -0.1000 -0.0430
 3183TIP3    H131184   4.135   5.945   7.836  0.0471  0.6873 -0.8045
 3183TIP3    H231185   4.011   5.923   7.920  1.3778 -0.0137  1.0560
 3184TIP3   OH231186   0.128   1.039   6.532  0.2655 -1.0019  0.0802
 3184TIP3    H131187   0.124   0.981   6.456 -0.5319 -1.3303  0.3601
 3184TIP3    H231188   0.196   1.000   6.588 -0.9355 -2.2596  0.7200
 3185TIP3   OH231189   1.513   0.771   1.100 -0.4216 -0.2785 -0.3853
 3185TIP3    H131190   1.462   0.707   1.149 -0.0918 -0.4309 -0.2371
 3185TIP3    H231191   1.604   0.748   1.119 -0.2944  0.7213  0.3035
 3186TIP3   OH231192   0.577   0.859   8.441  0.2016  0.0599  0.0061
 3186TIP3    H131193   0.666   0.890   8.425  0.5335 -0.6777  0.3799
 3186TIP3    H231194   0.585   0.764   8.447 -0.7665 -0.0988 -0.9373
 3187TIP3   OH231195   3.311   4.535   0.323 -0.2394  0.3447  0.5015
 3187TIP3    H131196   3.353   4.475   0.262 -0.0214  0.7198  0.2781
 3187TIP3    H231197   3.223   4.500   0.335 -0.0867 -0.0610  0.4327
 3188TIP3   OH231198   0.349   2.593   7.793 -0.0247 -0.3136 -0.2265
 3188TIP3    H131199   0.352   2.514   7.847  0.8004 -0.7627 -0.9051
 3188TIP3    H231200   0.276   2.578   7.733  0.6743 -0.9814 -0.9443
 3189TIP3   OH231201   4.578   4.491   7.127  0.1575  0.7442  0.5713
 3189TIP3    H131202   4.610   4.503   7.038  1.0519  2.1054  1.0353
 3189TIP3    H231203   4.484   4.509   7.121  0.1522  0.5129 -0.1517
 3190TIP3   OH231204   5.353   2.443   2.261  0.2653  0.1108  0.3223
 3190TIP3    H131205   5.296   2.383   2.308 -1.7790  0.1490 -1.8931
 3190TIP3    H231206   5.340   2.527   2.304 -0.3402 -0.1483  0.6563
 3191TIP3   OH231207   6.269   5.626   7.918  0.4851  0.2081 -0.0779
 3191TIP3    H131208   6.200   5.583   7.869 -0.2003  0.5274  0.5950
 3191TIP3    H231209   6.341   5.562   7.919 -0.6310 -1.0688  1.1985
 3192TIP3   OH231210   2.894   2.358   8.068  0.9483  0.0157  0.6342
 3192TIP3    H131211   2.864   2.354   7.977 -1.0279  0.4276  1.2166
 3192TIP3    H231212   2.942   2.276   8.080  0.6600 -0.3685 -0.5909
 3193TIP3   OH231213   2.835   5.123   8.565 -0.2791 -0.2190 -0.2743
 3193TIP3    H131214   2.806   5.048   8.618  0.7874 -0.3055  0.2176
 3193TIP3    H231215   2.899   5.168   8.621  1.0231 -0.4177 -1.5314
 3194TIP3   OH231216   2.731   3.623   8.350  0.0714  0.5006  0.3314
 3194TIP3    H131217   2.672   3.677   8.403  0.8226  0.8108  0.8562
 3194TIP3    H231218   2.791   3.584   8.412  1.2021  1.1582 -0.3199
 3195TIP3   OH231219   5.591   5.690   2.112  0.1149 -0.0919  0.1271
 3195TIP3    H131220   5.499   5.712   2.098  0.9700  2.2574 -2.7334
 3195TIP3    H231221   5.610   5.723   2.200 -1.3261  1.0714  0.0437
 3196TIP3   OH231222   5.094   0.020   6.991  0.3547  0.2084 -0.0903
 3196TIP3    H131223   5.128  -0.021   6.912  1.8463 -2.6053  1.8707
 3196TIP3    H231224   5.018  -0.034   7.015 -1.8917  2.7043 -0.9653
 3197TIP3   OH231225   4.247   6.254   0.799 -0.0637 -0.2849 -0.1702
 3197TIP3    H131226   4.178   6.259   0.733 -0.7135  1.0858  0.5795
 3197TIP3    H231227   4.296   6.175   0.776 -1.5706 -1.0166 -1.0082
 3198TIP3   OH231228   2.716   1.504   1.930 -0.1577  0.7770  0.1892
 3198TIP3    H131229   2.632   1.471   1.898  0.8855 -1.1546 -0.7492
 3198TIP3    H231230   2.718   1.480   2.022 -0.9826  1.6521  0.4534
 3199TIP3   OH231231   0.299   1.017   7.503 -0.4055 -0.1444  0.8775
 3199TIP3    H131232   0.361   1.038   7.433 -1.9864  0.4692 -0.4183
 3199TIP3    H231233   0.354   0.990   7.577  1.3514 -0.4096 -0.4486
 3200TIP3   OH231234   5.832   6.758   0.762 -0.4064 -0.0628  0.6427
 3200TIP3    H131235   5.793   6.690   0.707  1.5334 -0.2117 -0.6525
 3200TIP3    H231236   5.925   6.738   0.763 -0.0644  1.3776  2.0067
 3201TIP3   OH231237   1.660   1.512   1.772  0.1123  0.6747  0.3523
 3201TIP3    H131238   1.680   1.445   1.707 -0.6377  2.1405 -1.4534
 3201TIP3    H231239   1.732   1.506   1.835  0.8305 -0.8353 -0.5517
 3202TIP3   OH231240   0.782   3.267   1.229  0.4460 -0.4208  0.3126
 3202TIP3    H131241   0.814   3.183   1.195 -1.1782 -0.6468 -0.7577
 3202TIP3    H231242   0.687   3.258   1.233  0.1827  1.5118 -0.2596
 3203TIP3   OH231243   3.007   6.482   1.663 -0.0300 -0.3005  0.1985
 3203TIP3    H131244   2.996   6.450   1.752  0.6977  1.8770  1.1133
 3203TIP3    H231245   3.052   6.566   1.672  0.4783 -0.2310 -2.2474
 3204TIP3   OH231246   5.456   6.390   7.378 -0.3410 -0.7432  0.1780
 3204TIP3    H131247   5.548   6.366   7.381  0.2176  1.1781 -0.3624
 3204TIP3    H231248   5.416   6.323   7.323  0.7027 -1.6700  0.5189
 3205TIP3   OH231249   0.208   2.771   7.978  0.2987 -0.3854  0.1036
 3205TIP3    H131250   0.286   2.763   7.923  0.5272  0.3191  0.3161
 3205TIP3    H231251   0.242   2.789   8.066  0.0098 -2.9885  0.8420
 3206TIP3   OH231252   6.279   5.207   2.245  0.1951 -0.3286  0.1786
 3206TIP3    H131253   6.371   5.191   2.265  0.3521 -0.5068 -0.6305
 3206TIP3    H231254   6.231   5.147   2.301  0.6066 -0.6741  0.1657
 3207TIP3   OH231255   3.898   2.095   8.906  0.2277 -0.2348  0.0154
 3207TIP3    H131256   3.807   2.122   8.911  0.4957  0.6539  0.1966
 3207TIP3    H231257   3.924   2.078   8.996  0.6990  1.1060  0.1560
 3208TIP3   OH231258   2.832   2.913   7.174  0.3493 -0.4628  0.2672
 3208TIP3    H131259   2.908   2.892   7.227  1.4132  1.0367 -0.5922
 3208TIP3    H231260   2.799   2.828   7.145  0.9347 -1.1948  1.6657
 3209TIP3   OH231261   3.247   6.114   7.584  0.1058 -0.1786  0.2317
 3209TIP3    H131262   3.299   6.190   7.612 -1.9908  0.5131  2.6691
 3209TIP3    H231263   3.278   6.094   7.496  2.0561  2.3097  0.2534
 3210TIP3   OH231264   5.496   4.318   6.831 -0.1692 -0.8388  0.4604
 3210TIP3    H131265   5.563   4.350   6.771 -0.7149  1.5600  1.0320
 3210TIP3    H231266   5.431   4.276   6.774 -0.0863  0.3147 -0.5240
 3211TIP3   OH231267   0.028   2.368   6.649  0.2634  0.1469  0.1468
 3211TIP3    H131268   0.069   2.380   6.564 -0.8729  2.5284 -0.1280
 3211TIP3    H231269  -0.065   2.356   6.630  0.1851 -0.7569  0.9984
 3212TIP3   OH231270   0.043   2.116   0.481 -0.6811  0.6478 -0.5613
 3212TIP3    H131271   0.136   2.119   0.458 -0.8599  1.0191 -1.2619
 3212TIP3    H231272   0.027   2.025   0.506  0.3318  0.9786  1.5966
 3213TIP3   OH231273   5.127   2.221   1.010 -0.9831  0.4040  0.0301
 3213TIP3    H131274   5.145   2.237   0.917 -0.1970 -1.1626 -0.1152
 3213TIP3    H231275   5.214   2.216   1.050 -1.2339 -1.2575  0.4160
 3214TIP3   OH231276   4.663   2.563   0.554 -0.3975 -0.1064 -0.2161
 3214TIP3    H131277   4.571   2.577   0.529 -1.0609  1.4627  2.6789
 3214TIP3    H231278   4.700   2.651   0.556  0.0887 -0.3039  2.2322
 3215TIP3   OH231279   2.053   6.108   0.230 -0.2100 -0.1894  0.2832
 3215TIP3    H131280   1.992   6.160   0.177 -0.5160 -0.2926  0.5318
 3215TIP3    H231281   2.114   6.173   0.266  0.1552 -0.1461 -0.3928
 3216TIP3   OH231282   3.245   2.744   1.538  0.9737  0.4580 -0.3925
 3216TIP3    H131283   3.326   2.793   1.548  0.1130  1.7658  0.6485
 3216TIP3    H231284   3.176   2.810   1.551 -0.2465 -0.6668 -0.9343
 3217TIP3   OH231285   0.414   3.917   1.824  0.2136  0.1497 -0.0388
 3217TIP3    H131286   0.369   3.841   1.787  0.7820 -1.0129  1.5697
 3217TIP3    H231287   0.507   3.895   1.819  0.3111 -0.2558  2.3765
 3218TIP3   OH231288   3.112   2.598   0.252 -0.5815 -0.1665  0.6175
 3218TIP3    H131289   3.037   2.608   0.195 -0.0384 -2.1679 -0.5250
 3218TIP3    H231290   3.110   2.676   0.308 -1.1809  1.8471 -2.0313
 3219TIP3   OH231291   2.532   0.397   6.350 -0.0232 -0.0438 -0.0088
 3219TIP3    H131292   2.600   0.351   6.301 -0.4884 -0.4628 -0.2603
 3219TIP3    H231293   2.450   0.359   6.320 -0.3127 -0.3676  1.1480
 3220TIP3   OH231294   1.337   2.489   7.700 -0.0184  0.0710 -0.2765
 3220TIP3    H131295   1.373   2.578   7.700  1.7731 -0.5833 -1.5026
 3220TIP3    H231296   1.310   2.474   7.790  0.0223  1.7089  0.0401
 3221TIP3   OH231297   1.993   1.114   0.583 -0.6142 -0.6130 -0.2928
 3221TIP3    H131298   2.042   1.047   0.630  0.2638  1.1550  1.4418
 3221TIP3    H231299   1.907   1.074   0.566 -0.1767 -2.0923  0.8198
 3222TIP3   OH231300   1.475   1.639   1.925 -0.0854 -0.4713 -0.6447
 3222TIP3    H131301   1.468   1.705   1.856 -0.7076 -2.3674 -2.4954
 3222TIP3    H231302   1.528   1.569   1.886 -1.0125 -1.9055  0.5646
 3223TIP3   OH231303   3.166   0.764   8.128 -0.1943  1.0837 -0.4838
 3223TIP3    H131304   3.232   0.744   8.194  0.3278  2.0350 -0.6964
 3223TIP3    H231305   3.082   0.755   8.175  0.1234  0.8189  0.0480
 3224TIP3   OH231306   4.352   5.307   7.268 -0.2663 -0.1262  0.1541
 3224TIP3    H131307   4.428   5.365   7.266  1.3340 -2.0517  1.2679
 3224TIP3    H231308   4.320   5.305   7.178 -0.1423  2.1133  0.0160
 3225TIP3   OH231309   1.125   5.186   8.352  0.0536 -0.0951  0.1839
 3225TIP3    H131310   1.056   5.228   8.300 -1.3273 -2.6685 -0.2043
 3225TIP3    H231311   1.091   5.188   8.442  1.2380  1.9316  0.6664
 3226TIP3   OH231312   2.902   1.321   0.482 -0.7592 -0.5743  0.0852
 3226TIP3    H131313   2.967   1.352   0.419 -0.3380  1.3891  1.3911
 3226TIP3    H231314   2.898   1.226   0.469  1.4054 -0.5711 -0.9133
 3227TIP3   OH231315   2.521   1.633   8.553 -0.1690 -0.3363 -0.2387
 3227TIP3    H131316   2.599   1.649   8.500 -0.9544  1.0810 -1.0507
 3227TIP3    H231317   2.504   1.717   8.596 -1.8175 -0.2703 -0.9162
 3228TIP3   OH231318   4.288   3.238   7.857  0.8052  0.2942 -0.2179
 3228TIP3    H131319   4.215   3.192   7.814 -0.5471  0.3342  1.8823
 3228TIP3    H231320   4.295   3.321   7.810  0.4541 -0.3080 -1.3684
 3229TIP3   OH231321   4.674   4.503   2.131  0.0300  0.3137 -0.1529
 3229TIP3    H131322   4.597   4.476   2.181  0.9046 -0.4340  0.8295
 3229TIP3    H231323   4.749   4.474   2.184  1.0056  1.8706 -0.6116
 3230TIP3   OH231324   5.527   2.301   0.846  0.1414 -0.2477  0.3734
 3230TIP3    H131325   5.534   2.273   0.754  0.1594  0.1891  0.2383
 3230TIP3    H231326   5.462   2.241   0.884 -0.4871  0.0891 -0.1379
 3231TIP3   OH231327   0.513   6.153   7.933  0.0290  1.1643 -0.2311
 3231TIP3    H131328   0.589   6.137   7.878  0.0300  0.4401 -0.0297
 3231TIP3    H231329   0.528   6.098   8.011 -0.6451  1.0919 -0.1488
 3232TIP3   OH231330   4.440   2.026   6.455  0.2749 -0.7812 -0.2258
 3232TIP3    H131331   4.455   1.934   6.431 -0.8455 -2.1921  3.6691
 3232TIP3    H231332   4.345   2.035   6.455  0.3322 -0.0283  0.5923
 3233TIP3   OH231333   4.621   4.733   1.981  0.5068 -0.0078  0.4189
 3233TIP3    H131334   4.657   4.652   2.017 -1.9892 -0.9469  0.9855
 3233TIP3    H231335   4.619   4.793   2.055  2.3927  0.6554 -0.0096
 3234TIP3   OH231336   5.725   1.658   1.264 -0.5540 -0.0921 -0.7485
 3234TIP3    H131337   5.767   1.733   1.222  0.4460  0.2732  0.8487
 3234TIP3    H231338   5.797   1.598   1.284 -0.8202  0.2318  1.4251
 3235TIP3   OH231339   4.447   2.535   8.045 -0.4317 -0.2792  0.1853
 3235TIP3    H131340   4.465   2.561   8.135 -0.7754  0.9128 -0.0604
 3235TIP3    H231341   4.494   2.599   7.992 -1.1720 -0.2509 -0.4642
 3236TIP3   OH231342   2.227   4.270   1.480 -0.4014 -0.4744 -0.1207
 3236TIP3    H131343   2.242   4.327   1.404  1.8874  0.1180  0.7124
 3236TIP3    H231344   2.192   4.329   1.547 -3.3008 -1.1585 -0.8722
 3237TIP3   OH231345   0.002   5.762   0.798  0.0178  0.3103 -0.0514
 3237TIP3    H131346  -0.061   5.832   0.783 -0.6969 -0.6860 -2.0234
 3237TIP3    H231347   0.053   5.757   0.718  0.1950 -1.2740  0.1215
 3238TIP3   OH231348   3.114   1.079   7.754  0.0283 -1.4500  0.3006
 3238TIP3    H131349   3.134   1.172   7.742  1.4121 -1.5824  1.3375
 3238TIP3    H231350   3.044   1.077   7.820 -1.7619 -1.0876 -1.4870
 3239TIP3   OH231351   3.160   1.301   0.409  0.2459  0.3288  0.2886
 3239TIP3    H131352   3.114   1.222   0.379 -2.2976  1.7375  0.2116
 3239TIP3    H231353   3.180   1.284   0.501  0.3765 -0.6437  0.1006
 3240TIP3   OH231354   0.932   1.176   7.293 -0.6091  0.5215 -0.2749
 3240TIP3    H131355   1.001   1.167   7.359 -1.0133 -1.5135 -0.0548
 3240TIP3    H231356   0.979   1.201   7.213  0.5019 -1.1689 -0.2189
 3241TIP3   OH231357   4.472   4.417   7.462  0.3412  0.0962 -0.2755
 3241TIP3    H131358   4.403   4.459   7.412  0.8129  0.3047 -0.7583
 3241TIP3    H231359   4.426   4.361   7.525 -0.2886 -1.4647 -2.0156
 3242TIP3   OH231360   5.690   6.125   1.638 -0.4070 -0.1219  0.9769
 3242TIP3    H131361   5.725   6.052   1.587 -0.5719  0.5812 -0.1840
 3242TIP3    H231362   5.706   6.101   1.729 -1.2518 -2.0122  0.6702
 3243TIP3   OH231363   2.114   0.567   8.468  0.5529 -0.6248 -0.4453
 3243TIP3    H131364   2.078   0.516   8.396  2.7145 -0.0206 -2.0605
 3243TIP3    H231365   2.061   0.542   8.544 -2.1308 -0.9182 -2.2851
 3244TIP3   OH231366   4.509   0.471   6.914 -0.5100  0.0518 -0.2508
 3244TIP3    H131367   4.565   0.534   6.960  1.7077 -0.7087 -1.7324
 3244TIP3    H231368   4.485   0.406   6.981  0.4596  0.3669  0.4161
 3245TIP3   OH231369   3.666   4.508   1.002 -0.0139  0.2271  0.7201
 3245TIP3    H131370   3.694   4.445   1.069  0.2931  0.4077  0.7638
 3245TIP3    H231371   3.589   4.551   1.041 -1.0307 -1.0242  0.1560
 3246TIP3   OH231372   4.091   2.181   7.822  0.0969  0.0928 -0.1414
 3246TIP3    H131373   4.146   2.254   7.849  0.9022 -0.7360  0.5308
 3246TIP3    H231374   4.005   2.200   7.859  0.1184  1.0452 -0.5783
 3247TIP3   OH231375   4.024   3.196   8.327 -0.3406  0.3576  0.4037
 3247TIP3    H131376   3.997   3.278   8.285  3.3222  1.5981  0.1302
 3247TIP3    H231377   3.962   3.131   8.295 -1.4564  2.4288 -1.9478
 3248TIP3   OH231378   4.968   2.587   0.020  0.2995  0.0985 -0.9263
 3248TIP3    H131379   5.048   2.549   0.057 -0.1164  0.1334  0.0448
 3248TIP3    H231380   4.921   2.512  -0.017  0.4272 -0.0321 -0.8249
 3249TIP3   OH231381   1.575   2.436   0.597 -0.2618 -0.3155 -0.6980
 3249TIP3    H131382   1.516   2.424   0.523 -0.7078  0.4348 -0.4736
 3249TIP3    H231383   1.645   2.373   0.582 -1.1279 -1.2374 -0.9543
 3250TIP3   OH231384   6.485   4.431   1.787 -0.2628  0.2160 -0.2541
 3250TIP3    H131385   6.393   4.415   1.805 -0.3847 -0.8515 -1.6553
 3250TIP3    H231386   6.487   4.454   1.694  0.9294 -0.2487 -0.3588
 3251TIP3   OH231387   0.149   0.947   8.837  0.4519 -0.0547 -0.1249
 3251TIP3    H131388   0.214   0.999   8.791  0.3414 -0.0953 -0.3293
 3251TIP3    H231389   0.192   0.920   8.918  1.4655 -1.8519 -1.2076
 3252TIP3   OH231390   2.120   3.805   7.713 -1.0625  0.3616 -0.1580
 3252TIP3    H131391   2.085   3.888   7.745 -2.4250 -0.7188  1.3306
 3252TIP3    H231392   2.049   3.767   7.661  0.1442  0.8159 -2.2654
 3253TIP3   OH231393   6.416   2.498   6.996 -0.6061  0.0691 -0.0372
 3253TIP3    H131394   6.440   2.456   6.914  1.2226 -0.2296  0.5912
 3253TIP3    H231395   6.425   2.592   6.978  0.5046 -0.0174 -0.0058
 3254TIP3   OH231396   1.430   5.342   1.708 -0.2723 -0.1180 -0.0855
 3254TIP3    H131397   1.516   5.376   1.683 -0.8346  1.8164  0.4688
 3254TIP3    H231398   1.442   5.310   1.798 -0.4699  1.7037  0.6411
 3255TIP3   OH231399   4.682   2.856   8.170  0.2620  0.3200  0.2953
 3255TIP3    H131400   4.588   2.875   8.173  0.4819  1.3861  1.4991
 3255TIP3    H231401   4.711   2.864   8.261  1.6910  0.9646 -0.1853
 3256TIP3   OH231402   6.319   5.485   1.985 -0.5019 -0.4721 -0.4115
 3256TIP3    H131403   6.341   5.533   2.065 -1.6325 -0.3457 -0.1496
 3256TIP3    H231404   6.271   5.408   2.016 -2.7661  0.6039 -0.9977
 3257TIP3   OH231405   3.900   2.794   1.533 -0.7083 -0.7490  0.3237
 3257TIP3    H131406   3.918   2.744   1.612  1.4806 -0.8240 -0.1438
 3257TIP3    H231407   3.981   2.842   1.517 -1.3670 -0.1564 -1.4557
 3258TIP3   OH231408   1.064   4.788   7.776  0.3614 -0.0539 -0.1548
 3258TIP3    H131409   1.146   4.837   7.775  0.8625 -0.7499  1.7692
 3258TIP3    H231410   1.020   4.817   7.856 -1.2094  0.1663 -1.0596
 3259TIP3   OH231411   1.040   3.441   0.971 -0.3016  0.4860  0.0005
 3259TIP3    H131412   1.005   3.365   0.924 -0.0889  0.0912  0.4716
 3259TIP3    H231413   1.123   3.460   0.927 -0.0361  0.0328  0.3030
 3260TIP3   OH231414   6.134   1.971   1.584  0.3296 -0.2767  0.2679
 3260TIP3    H131415   6.229   1.980   1.571 -0.0359  1.4949 -1.7027
 3260TIP3    H231416   6.116   2.023   1.662  0.7709  0.9095 -0.3925
 3261TIP3   OH231417   3.448   2.494   7.313  0.1750  0.2372  0.0627
 3261TIP3    H131418   3.542   2.486   7.331  0.2780  0.6285 -0.2845
 3261TIP3    H231419   3.426   2.414   7.265  0.1168 -0.3183  1.0001
 3262TIP3   OH231420   1.073   2.360   0.227 -0.3283 -0.1863 -0.0922
 3262TIP3    H131421   0.994   2.414   0.230  0.6667  1.3291 -0.5595
 3262TIP3    H231422   1.108   2.373   0.139  0.5401 -0.7367  0.1595
 3263TIP3   OH231423   6.353   3.565   0.148  0.6534 -0.2981  0.3865
 3263TIP3    H131424   6.434   3.611   0.168  0.8077 -0.4934  0.2025
 3263TIP3    H231425   6.379   3.491   0.094  0.1191  0.8255 -1.4769
 3264TIP3   OH231426   1.269   3.472   0.848 -0.1271  0.6744 -0.0927
 3264TIP3    H131427   1.314   3.556   0.862  1.7625  0.3406 -3.2454
 3264TIP3    H231428   1.335   3.416   0.807 -2.1206 -1.4443 -0.5850
 3265TIP3   OH231429   6.714   4.346   7.600 -0.0688  0.0144  0.0304
 3265TIP3    H131430   6.619   4.345   7.595 -0.0126 -0.0079 -1.2772
 3265TIP3    H231431   6.739   4.255   7.617 -0.1849 -0.5975 -2.6125
 3266TIP3   OH231432   5.252   3.237   8.881 -0.2185  0.1050  0.0609
 3266TIP3    H131433   5.290   3.274   8.801 -0.2730 -0.0393 -0.0316
 3266TIP3    H231434   5.319   3.178   8.915 -1.0976 -1.7388 -1.1971
 3267TIP3   OH231435   6.173   4.177   8.907 -0.4037  0.9529 -0.5422
 3267TIP3    H131436   6.205   4.198   8.819 -2.5968 -1.1765 -1.9555
 3267TIP3    H231437   6.245   4.128   8.947 -0.2164 -0.1059 -2.0794
 3268TIP3   OH231438   4.581   3.983   6.526 -0.3668  0.3487  0.1284
 3268TIP3    H131439   4.604   3.914   6.587  1.9119  1.2676  0.4051
 3268TIP3    H231440   4.518   4.037   6.573  0.8149  0.6463  1.4453
 3269TIP3   OH231441   2.081   0.734   1.606 -0.3280  0.8046 -0.1008
 3269TIP3    H131442   2.060   0.804   1.667 -0.5773  0.4691  0.2092
 3269TIP3    H231443   2.172   0.711   1.627 -0.1206  1.2948 -0.4671
 3270TIP3   OH231444   4.939   1.287   8.412  0.3144  0.0811 -0.2070
 3270TIP3    H131445   4.852   1.325   8.424  1.4799  2.8322  0.2654
 3270TIP3    H231446   4.928   1.194   8.433 -2.1580  0.6496  1.3928
 3271TIP3   OH231447   2.446   1.691   8.173 -0.2638  0.1122 -0.2264
 3271TIP3    H131448   2.532   1.650   8.165 -1.0757 -2.0828  1.2546
 3271TIP3    H231449   2.390   1.622   8.209 -2.3552  1.8357  0.0233
 3272TIP3   OH231450   0.636   0.672   7.241 -0.7278  0.1725  0.1445
 3272TIP3    H131451   0.592   0.713   7.316  3.1369  2.6424  1.3208
 3272TIP3    H231452   0.595   0.713   7.165 -1.2812  1.4694  1.0933
 3273TIP3   OH231453   6.657   6.720   1.033 -0.1817 -0.0783  0.9296
 3273TIP3    H131454   6.647   6.804   0.988  3.0989  0.8296  1.6895
 3273TIP3    H231455   6.644   6.654   0.964  0.9280  1.1702 -0.5295
 3274TIP3   OH231456   5.963   6.780   7.351 -0.0294 -0.6901 -0.0838
 3274TIP3    H131457   5.962   6.732   7.268  0.3646  0.9415 -1.0905
 3274TIP3    H231458   6.055   6.785   7.375 -0.1628 -1.3742  0.6069
 3275TIP3   OH231459   3.057   4.749   7.704  0.2637  0.0128 -0.2575
 3275TIP3    H131460   2.972   4.793   7.703  1.1114  1.7947  1.1398
 3275TIP3    H231461   3.082   4.747   7.796  2.0056  0.0980 -0.6939
 3276TIP3   OH231462   2.338   3.899   7.302 -0.0814 -0.1191  0.0857
 3276TIP3    H131463   2.417   3.949   7.318 -1.3387  2.1766 -0.4885
 3276TIP3    H231464   2.283   3.914   7.379 -1.1902  0.8985 -0.8666
 3277TIP3   OH231465   1.402   4.117   8.133 -0.7320  0.8707 -0.1208
 3277TIP3    H131466   1.442   4.124   8.046  2.6101  1.5666  1.3168
 3277TIP3    H231467   1.473   4.084   8.189 -2.8074  0.2995  2.3425
 3278TIP3   OH231468   5.525   5.310   8.867  0.0338  0.0637  0.2522
 3278TIP3    H131469   5.564   5.223   8.878 -1.0173 -0.4364  0.1063
 3278TIP3    H231470   5.469   5.321   8.943  0.2549  0.6745  0.3295
 3279TIP3   OH231471   0.237   3.911   0.208 -0.3818  0.5477  0.0880
 3279TIP3    H131472   0.221   3.997   0.169  0.9179 -0.2372 -2.3418
 3279TIP3    H231473   0.313   3.877   0.162  0.1286 -1.2827  2.0932
 3280TIP3   OH231474   4.403   0.699   2.223  0.3392 -0.1711  0.3286
 3280TIP3    H131475   4.326   0.666   2.270  0.0067  0.9358  0.5832
 3280TIP3    H231476   4.373   0.710   2.132 -0.5913  2.5886  0.8838
 3281TIP3   OH231477   1.792   1.771   1.836  0.6607 -0.7531  0.0513
 3281TIP3    H131478   1.769   1.855   1.797  0.8684 -0.4454  0.5831
 3281TIP3    H231479   1.724   1.755   1.901  1.6894 -0.0326  1.3481
 3282TIP3   OH231480   5.605   5.431   0.718  0.1398  0.2336  0.6185
 3282TIP3    H131481   5.598   5.392   0.631 -0.2226 -1.8852  1.5208
 3282TIP3    H231482   5.696   5.459   0.725  1.4395 -3.5360  1.0225
 3283TIP3   OH231483   4.378   2.953   7.251  0.2197 -0.2224  0.1856
 3283TIP3    H131484   4.350   3.041   7.274  0.8002  0.2224 -0.7353
 3283TIP3    H231485   4.310   2.920   7.193  0.9533  0.4019 -1.0809
 3284TIP3   OH231486   4.690   3.657   1.269 -0.2621  0.3465 -1.1930
 3284TIP3    H131487   4.731   3.576   1.239 -1.0848 -0.7999  0.5616
 3284TIP3    H231488   4.603   3.657   1.229  0.3975  1.4023 -2.7388
 3285TIP3   OH231489   0.598   5.042   0.317 -0.3650  0.0862  0.1586
 3285TIP3    H131490   0.520   5.044   0.262  1.6936 -1.1916 -3.0908
 3285TIP3    H231491   0.664   5.090   0.267  1.4109 -0.2176  2.0500
 3286TIP3   OH231492   6.619   3.449   1.249 -0.2555  0.4201  0.4242
 3286TIP3    H131493   6.707   3.473   1.276  0.0759  0.5730 -0.7233
 3286TIP3    H231494   6.596   3.514   1.183  0.0016 -1.3445 -1.5318
 3287TIP3   OH231495   6.218   3.586   2.052  0.0023  0.1215  0.2626
 3287TIP3    H131496   6.299   3.635   2.064  0.4394  0.2857 -2.5270
 3287TIP3    H231497   6.224   3.512   2.112  3.0408 -0.7665 -0.9451
 3288TIP3   OH231498   0.131   5.339   8.131  0.0873  0.4956  0.3087
 3288TIP3    H131499   0.115   5.429   8.103  1.5423  1.2281  1.7273
 3288TIP3    H231500   0.102   5.336   8.222  0.2942 -0.4049  0.3578
 3289TIP3   OH231501   6.007   3.212   0.943 -0.4606 -0.3704 -0.0198
 3289TIP3    H131502   5.936   3.259   0.987  1.3527  1.2299  1.3542
 3289TIP3    H231503   6.062   3.280   0.906  0.8690 -1.5238 -0.2439
 3290TIP3   OH231504   6.397   6.380   1.568  0.3848 -0.1448  0.1022
 3290TIP3    H131505   6.380   6.370   1.661  3.9034  0.9947  1.0217
 3290TIP3    H231506   6.390   6.474   1.552 -0.1076 -0.3188 -0.8146
 3291TIP3   OH231507   2.368   5.447   6.407  0.1401  0.0119  0.2120
 3291TIP3    H131508   2.290   5.463   6.353  1.6271  0.7316 -1.8385
 3291TIP3    H231509   2.368   5.352   6.421  0.7466 -0.5392 -2.8478
 3292TIP3   OH231510   3.833   6.316   7.447 -0.0515 -0.0343 -0.0027
 3292TIP3    H131511   3.865   6.252   7.510  0.6638  0.0357 -0.2849
 3292TIP3    H231512   3.775   6.266   7.390 -1.5657  0.1143  1.3241
 3293TIP3   OH231513   0.261   4.022   7.546  0.2745  0.4824 -0.6661
 3293TIP3    H131514   0.274   4.116   7.543 -2.6543  0.9896 -0.6254
 3293TIP3    H231515   0.250   4.002   7.639  2.6048 -0.2642 -0.4872
 3294TIP3   OH231516   2.231   5.009   1.313  0.2027 -0.0832  0.3134
 3294TIP3    H131517   2.136   5.008   1.320 -0.2874  1.1173 -3.5678
 3294TIP3    H231518   2.251   4.936   1.254  1.0684  2.2004 -2.4287
 3295TIP3   OH231519   3.931   2.578   8.672 -0.1039  0.5122  0.4556
 3295TIP3    H131520   3.921   2.626   8.755 -0.9301 -0.7931  1.1501
 3295TIP3    H231521   4.024   2.555   8.669  0.1098  1.3240  0.5747
 3296TIP3   OH231522   1.729   2.306   7.374  0.5551 -0.0473  0.1432
 3296TIP3    H131523   1.677   2.253   7.434  0.0525 -2.1399 -1.9932
 3296TIP3    H231524   1.800   2.341   7.428  0.0557 -1.7072  1.9839
 3297TIP3   OH231525   2.124   0.906   7.362  0.0786  0.2457 -0.2272
 3297TIP3    H131526   2.085   0.831   7.319  0.0256 -0.0234  0.2800
 3297TIP3    H231527   2.115   0.978   7.299  0.1013 -0.1598 -0.6980
 3298TIP3   OH231528   5.196   4.663   1.150 -0.2628 -0.0350  0.0664
 3298TIP3    H131529   5.150   4.721   1.210 -3.8053  1.0039 -3.2478
 3298TIP3    H231530   5.243   4.722   1.091 -0.8824 -0.6949 -1.1269
 3299TIP3   OH231531   6.784   6.166   8.399  0.0061  0.1002  0.0139
 3299TIP3    H131532   6.700   6.201   8.428 -0.0924 -0.9923  1.1294
 3299TIP3    H231533   6.782   6.174   8.304 -2.4803 -2.2713 -0.2533
 3300TIP3   OH231534   5.438   5.796   1.503  0.0615 -0.1228  0.0649
 3300TIP3    H131535   5.370   5.728   1.505 -0.0662 -0.0196 -0.7178
 3300TIP3    H231536   5.520   5.747   1.501 -0.0379 -0.2639 -0.8090
 3301TIP3   OH231537   3.192   0.452   0.849 -0.3375 -0.4302  0.0086
 3301TIP3    H131538   3.191   0.358   0.867  0.0409 -0.4673 -0.1598
 3301TIP3    H231539   3.188   0.458   0.754  0.9127 -0.3074 -0.0467
 3302TIP3   OH231540   0.624   2.591   1.368 -0.5196  0.0762  0.4584
 3302TIP3    H131541   0.655   2.652   1.302  0.4882 -0.6841  0.2027
 3302TIP3    H231542   0.648   2.504   1.334  1.4616 -0.2688  2.4840
 3303TIP3   OH231543   0.947   0.969   8.617  0.4329 -0.3302 -0.2490
 3303TIP3    H131544   0.899   0.890   8.590  0.9802 -1.1766  1.1607
 3303TIP3    H231545   1.038   0.942   8.620  0.5297  0.0818  1.1432
 3304TIP3   OH231546   2.854   6.251   0.748 -0.5563 -0.0446 -0.3797
 3304TIP3    H131547   2.847   6.344   0.766  0.6029 -0.0544  0.1929
 3304TIP3    H231548   2.772   6.229   0.704 -0.8754  1.2188 -0.4497
 3305TIP3   OH231549   5.040   3.922   1.225 -0.6671 -0.2655  0.1698
 3305TIP3    H131550   5.053   4.004   1.176 -1.1321 -0.0055  0.4687
 3305TIP3    H231551   5.108   3.923   1.292 -0.0624 -0.5964 -0.4356
 3306TIP3   OH231552   1.236   0.076   2.274 -0.3269 -0.7284  0.3876
 3306TIP3    H131553   1.211   0.065   2.182  0.8860 -2.2960  0.1877
 3306TIP3    H231554   1.284   0.159   2.276 -0.3726 -0.6699 -0.4042
 3307TIP3   OH231555   0.687   5.069   7.597 -0.5458  0.0467 -0.1147
 3307TIP3    H131556   0.608   5.051   7.547 -0.3308 -0.5270 -0.2500
 3307TIP3    H231557   0.700   4.992   7.652 -0.6783  0.5933  0.6985
 3308TIP3   OH231558   1.459   4.933   6.846 -0.2301 -0.8086  0.1738
 3308TIP3    H131559   1.521   4.968   6.782 -2.5914 -0.3085 -1.9563
 3308TIP3    H231560   1.435   5.008   6.900 -0.8408 -0.4252 -0.6121
 3309TIP3   OH231561   1.723   4.395   0.560 -0.0070  0.6327  0.4226
 3309TIP3    H131562   1.775   4.365   0.485  3.1328  2.2975  1.7702
 3309TIP3    H231563   1.707   4.315   0.611  1.1272  0.0530 -0.0985
 3310TIP3   OH231564   2.412   4.310   1.098 -0.6311 -0.3879  0.3853
 3310TIP3    H131565   2.382   4.239   1.041 -0.5486 -0.1108 -0.0087
 3310TIP3    H231566   2.331   4.351   1.130 -0.6785 -0.2133  0.0467
 3311TIP3   OH231567   2.829   0.560   8.202 -0.2137 -0.3355 -0.4673
 3311TIP3    H131568   2.803   0.643   8.243  1.3908 -0.3033  0.5939
 3311TIP3    H231569   2.749   0.525   8.164 -1.3436  0.7020  0.8745
 3312TIP3   OH231570   3.411   4.746   7.767  0.5232 -0.1515  0.5688
 3312TIP3    H131571   3.471   4.672   7.781  0.0473 -0.5515  0.5044
 3312TIP3    H231572   3.335   4.708   7.725  0.7269  0.5705 -0.4848
 3313TIP3   OH231573   4.120   5.783   8.095 -0.4878  0.1591  0.0840
 3313TIP3    H131574   4.049   5.790   8.158 -0.0175 -0.1013  0.6564
 3313TIP3    H231575   4.197   5.817   8.141 -0.0886 -0.2498 -0.2607
 3314TIP3   OH231576   3.261   1.193   0.974  0.2832  0.3411  0.8198
 3314TIP3    H131577   3.183   1.154   1.014  1.1160 -2.7310 -0.2625
 3314TIP3    H231578   3.327   1.124   0.978  2.2744  2.0748 -0.3053
 3315TIP3   OH231579   5.078   2.668   6.667  0.4841 -0.3974 -0.5002
 3315TIP3    H131580   5.034   2.749   6.691  0.4934 -0.6200  0.3012
 3315TIP3    H231581   5.160   2.696   6.627  0.4888 -0.0110 -0.2250
 3316TIP3   OH231582   5.426   0.984   7.492  0.3527  0.0220  0.1952
 3316TIP3    H131583   5.487   1.052   7.463 -0.7312  1.0667  0.2681
 3316TIP3    H231584   5.417   0.998   7.587  0.5693 -0.6006  0.3121
 3317TIP3   OH231585   2.800   2.706   1.728  0.1458 -0.6708  0.3302
 3317TIP3    H131586   2.720   2.700   1.676  0.0204 -0.4138  0.4906
 3317TIP3    H231587   2.852   2.629   1.702  0.9379  0.4471 -1.5706
 3318TIP3   OH231588   2.849   4.864   0.987 -0.1464  0.2244 -0.2766
 3318TIP3    H131589   2.929   4.910   1.013 -0.0068 -0.7469  1.0807
 3318TIP3    H231590   2.786   4.885   1.056 -1.7192  2.4722 -2.2261
 3319TIP3   OH231591   3.163   6.075   1.040  0.1151 -0.2746 -0.9510
 3319TIP3    H131592   3.172   6.007   1.107 -3.6754 -2.3262 -2.2298
 3319TIP3    H231593   3.107   6.141   1.080  0.4491  0.0962 -1.0891
 3320TIP3   OH231594   4.403   0.895   8.486 -0.0248  0.0792  0.1650
 3320TIP3    H131595   4.413   0.800   8.496 -2.2083 -0.2564 -0.3290
 3320TIP3    H231596   4.364   0.906   8.400  0.9011  1.5017 -0.0874
 3321TIP3   OH231597   6.576   4.000   0.462 -0.3856  0.4012  0.0612
 3321TIP3    H131598   6.520   4.077   0.468 -0.3767  0.3211  1.5697
 3321TIP3    H231599   6.597   3.993   0.369 -3.8006 -0.2549 -0.7807
 3322TIP3   OH231600   3.565   5.804   0.440 -0.5848 -0.0632 -0.2579
 3322TIP3    H131601   3.608   5.860   0.375 -1.3811  0.9265  0.0437
 3322TIP3    H231602   3.473   5.801   0.412 -0.9362  0.3781  0.8173
 3323TIP3   OH231603   3.028   4.410   7.477  0.3907  0.4248 -0.1576
 3323TIP3    H131604   3.003   4.371   7.560 -0.6850  0.7760 -0.2968
 3323TIP3    H231605   3.065   4.337   7.426 -2.4514 -0.7200 -0.7784
 3324TIP3   OH231606   2.664   2.022   0.340 -0.2733  0.1141 -0.3604
 3324TIP3    H131607   2.755   2.007   0.365 -0.3323 -0.0922 -0.2677
 3324TIP3    H231608   2.628   1.934   0.327 -0.8277  0.1305  0.9079
 3325TIP3   OH231609   5.951   2.173   8.021 -0.2846  1.0188 -0.1915
 3325TIP3    H131610   5.888   2.156   8.091 -0.5664  0.3320 -0.5974
 3325TIP3    H231611   5.998   2.252   8.049  0.2058  0.2643  1.1742
 3326TIP3   OH231612   4.671   5.163   1.921 -0.2839  0.2455  0.4435
 3326TIP3    H131613   4.595   5.221   1.925 -0.1266  0.4683  0.1847
 3326TIP3    H231614   4.711   5.170   2.008 -1.1937 -0.7414  0.9733
 3327TIP3   OH231615   5.393   4.153   7.074 -0.2407  0.2624 -0.5675
 3327TIP3    H131616   5.319   4.154   7.013  1.3702  1.1252 -2.6330
 3327TIP3    H231617   5.467   4.123   7.021  1.4664  2.0975  0.6425
 3328TIP3   OH231618   2.828   0.645   7.674 -0.6009 -0.3991  0.4666
 3328TIP3    H131619   2.754   0.661   7.615  1.5930  0.0869 -2.4344
 3328TIP3    H231620   2.881   0.724   7.666  1.7236 -1.9153 -0.0742
 3329TIP3   OH231621   3.663   1.893   8.700  0.1854  0.5425 -0.1068
 3329TIP3    H131622   3.661   1.919   8.792  0.3640  0.8796 -0.1947
 3329TIP3    H231623   3.614   1.811   8.696 -0.8801  1.1547  0.0914
 3330TIP3   OH231624   2.173   3.323   0.287 -0.3149 -0.2337 -0.5903
 3330TIP3    H131625   2.078   3.321   0.292 -0.3238 -1.9615 -0.8538
 3330TIP3    H231626   2.201   3.365   0.368 -1.2664 -1.3549  0.3538
 3331TIP3   OH231627   2.634   1.266   8.592  0.8296 -0.1820 -1.3194
 3331TIP3    H131628   2.563   1.273   8.528  1.1379  0.4076 -1.6103
 3331TIP3    H231629   2.605   1.199   8.653 -0.3786  0.6706 -0.9102
 3332TIP3   OH231630   3.034   4.245   6.899 -0.3010 -0.2568  0.0238
 3332TIP3    H131631   3.128   4.234   6.890 -0.1138 -0.4107  1.7761
 3332TIP3    H231632   3.004   4.162   6.937 -1.6057 -1.3081 -2.9558
 3333TIP3   OH231633   2.708   0.434   0.147  0.3876  0.0188 -0.4383
 3333TIP3    H131634   2.758   0.361   0.181 -1.8377 -1.7350 -0.7007
 3333TIP3    H231635   2.743   0.511   0.193  1.3738 -1.4698  1.4407
 3334TIP3   OH231636   5.765   3.706   2.055  0.3085 -0.2919  0.2542
 3334TIP3    H131637   5.784   3.760   2.131  0.4199 -0.2820  0.2184
 3334TIP3    H231638   5.686   3.745   2.016  0.1652 -0.3847  0.4483
 3335TIP3   OH231639   4.872   1.160   6.577 -0.3630  0.2559 -0.4006
 3335TIP3    H131640   4.831   1.108   6.508  0.6269 -0.4502 -0.4739
 3335TIP3    H231641   4.940   1.103   6.613 -0.3616  0.9023  0.6413
 3336TIP3   OH231642   1.761   1.965   8.886  0.2848  0.5758 -0.0196
 3336TIP3    H131643   1.740   1.874   8.910  1.4590  0.1035 -0.7075
 3336TIP3    H231644   1.681   1.997   8.844  0.5623 -0.9232 -1.8769
 3337TIP3   OH231645   5.678   3.266   7.169 -1.0079  0.4805 -0.3249
 3337TIP3    H131646   5.613   3.261   7.099 -1.1911 -0.0952 -0.1157
 3337TIP3    H231647   5.762   3.254   7.125 -1.1940 -1.0506 -0.3108
 3338TIP3   OH231648   2.438   5.716   1.768 -0.6820 -1.2439  0.4736
 3338TIP3    H131649   2.403   5.800   1.740  0.7116 -0.9409 -0.4545
 3338TIP3    H231650   2.481   5.681   1.690 -0.4399 -2.3911  1.1002
 3339TIP3   OH231651   4.126   3.993   8.792 -0.1207  0.4323  0.2300
 3339TIP3    H131652   4.048   3.947   8.762 -0.0919  0.1151  0.6406
 3339TIP3    H231653   4.180   3.926   8.832 -0.3535  0.9167  1.3900
 3340TIP3   OH231654   2.557   5.197   1.314 -0.4553 -0.2081  0.0185
 3340TIP3    H131655   2.474   5.240   1.290  0.6419  1.6725 -0.6178
 3340TIP3    H231656   2.602   5.261   1.369  0.1958 -1.5969  1.1479
 3341TIP3   OH231657   4.474   4.947   2.537  0.0586 -0.5906 -0.5170
 3341TIP3    H131658   4.469   4.856   2.509 -0.3113 -1.4584  2.0624
 3341TIP3    H231659   4.443   4.946   2.628 -1.0831  2.3038 -0.7659
 3342TIP3   OH231660   2.649   1.778   8.972 -0.5288  0.2045  0.0885
 3342TIP3    H131661   2.568   1.727   8.982  0.4280 -1.3193  0.2578
 3342TIP3    H231662   2.657   1.792   8.878 -0.3921 -0.6441 -0.0300
 3343TIP3   OH231663   3.668   0.377   8.915  0.1938  0.0015  0.3298
 3343TIP3    H131664   3.750   0.358   8.869  0.6248  1.5765  0.3944
 3343TIP3    H231665   3.695   0.406   9.002 -0.2643  2.4106 -0.2586
 3344TIP3   OH231666   4.358   4.291   8.526 -0.1224  0.1611 -0.2197
 3344TIP3    H131667   4.390   4.234   8.596  0.0981 -0.3056 -0.6989
 3344TIP3    H231668   4.424   4.284   8.457 -0.3608  0.5844 -0.4954
 3345TIP3   OH231669   4.761   6.781   8.563  0.2198  0.1633 -0.5805
 3345TIP3    H131670   4.775   6.876   8.567 -3.0289  0.7979 -1.3610
 3345TIP3    H231671   4.760   6.761   8.470  1.4585 -0.8028 -0.4137
 3346TIP3   OH231672   0.318   2.223   7.082 -0.0375  0.1160 -0.2301
 3346TIP3    H131673   0.316   2.130   7.105  0.7665  0.2671  0.4974
 3346TIP3    H231674   0.341   2.224   6.989 -1.6679 -0.4495 -0.6810
 3347TIP3   OH231675   1.994   2.739   8.596 -0.5452  0.3823 -0.6587
 3347TIP3    H131676   2.063   2.729   8.531  0.3807  0.9645  0.2093
 3347TIP3    H231677   2.037   2.778   8.672 -2.3054  3.2725 -0.9825
 3348TIP3   OH231678   6.152   5.251   2.004  0.1242 -0.8521 -0.4021
 3348TIP3    H131679   6.170   5.224   2.095 -0.6657 -0.7226 -0.2046
 3348TIP3    H231680   6.065   5.217   1.985 -0.6185  0.8992 -0.3883
 3349TIP3   OH231681   1.505   1.638   8.979 -0.0381 -0.2501 -0.7404
 3349TIP3    H131682   1.592   1.673   8.994 -0.3933 -0.2128  1.4889
 3349TIP3    H231683   1.456   1.712   8.942  0.2318  0.4826  0.3263
 3350TIP3   OH231684   6.667   0.385   0.986  0.4574 -0.1605 -0.1942
 3350TIP3    H131685   6.597   0.416   1.045  2.1301  0.0203  1.8010
 3350TIP3    H231686   6.620   0.354   0.908 -1.8334  0.0316  1.0107
 3351TIP3   OH231687   6.389   4.177   0.272  0.3579 -0.3053 -0.0879
 3351TIP3    H131688   6.405   4.163   0.179  3.3973 -0.0435  0.2921
 3351TIP3    H231689   6.351   4.095   0.303  0.9878 -1.0495 -1.2336
 3352TIP3   OH231690   0.606   6.028   7.469 -0.3105  0.1984  0.4701
 3352TIP3    H131691   0.516   6.000   7.451 -0.5751  0.0553  1.8915
 3352TIP3    H231692   0.657   5.994   7.395 -1.3189 -0.2572 -0.0372
 3353TIP3   OH231693   2.462   3.465   0.692  0.4746 -0.6155 -0.4845
 3353TIP3    H131694   2.401   3.394   0.669  0.6122 -0.7931 -0.3025
 3353TIP3    H231695   2.408   3.529   0.739  0.2217 -0.3228 -1.1578
 3354TIP3   OH231696   2.334   1.880   1.364  0.1002  0.2768 -0.6921
 3354TIP3    H131697   2.345   1.863   1.270  1.6991 -1.7972 -0.1866
 3354TIP3    H231698   2.357   1.972   1.374  3.4056 -0.3056 -1.8884
 3355TIP3   OH231699   0.644   2.141   7.193  0.2889 -0.4085  0.6273
 3355TIP3    H131700   0.595   2.175   7.268  1.2498 -1.6696  1.8849
 3355TIP3    H231701   0.653   2.216   7.135 -0.8118  0.5181  1.5836
 3356TIP3   OH231702   4.605   2.292   7.855  0.5419 -0.2002  0.1551
 3356TIP3    H131703   4.614   2.275   7.949  0.1408  0.8930  0.4066
 3356TIP3    H231704   4.513   2.312   7.843  0.7429  0.4728 -0.3271
 3357TIP3   OH231705   1.866   3.436   6.826  0.7933 -0.1638 -0.1697
 3357TIP3    H131706   1.831   3.524   6.839  1.5866 -0.0172  1.1522
 3357TIP3    H231707   1.928   3.445   6.754  0.9364  0.3780  0.0157
 3358TIP3   OH231708   0.660   5.756   2.495  0.0195  0.1696  0.3577
 3358TIP3    H131709   0.719   5.740   2.568  1.3135 -0.3582 -0.7634
 3358TIP3    H231710   0.681   5.845   2.466 -0.7770  0.5352  0.8493
 3359TIP3   OH231711   3.449   0.712   8.254 -0.3501  0.9121  0.2916
 3359TIP3    H131712   3.540   0.705   8.283 -0.2583 -0.5703 -0.2573
 3359TIP3    H231713   3.408   0.772   8.317  0.0118 -1.5934  3.1408
 3360TIP3   OH231714   5.952   3.806   7.701  0.4982  0.2736 -0.5565
 3360TIP3    H131715   5.913   3.829   7.785  0.5052  0.0537 -0.4923
 3360TIP3    H231716   6.043   3.786   7.722  0.2955 -0.6049 -0.4820
 3361TIP3   OH231717   3.491   5.212   7.550  0.1247 -0.1753  0.1474
 3361TIP3    H131718   3.502   5.227   7.644 -0.6537  1.4046  0.0061
 3361TIP3    H231719   3.400   5.184   7.540  0.3591 -0.8910 -0.0972
 3362TIP3   OH231720   2.985   5.325   2.081  0.1046  0.3532 -0.6452
 3362TIP3    H131721   2.958   5.288   2.165 -1.0134  0.6778 -0.8384
 3362TIP3    H231722   3.020   5.251   2.032  0.5870  0.1251  0.0313
 3363TIP3   OH231723   4.697   3.915   1.660 -0.0076 -0.6178  0.2584
 3363TIP3    H131724   4.669   3.831   1.626  0.5736 -0.9048  0.4797
 3363TIP3    H231725   4.711   3.970   1.582  0.8111 -1.1102  0.0406
 3364TIP3   OH231726   1.650   1.053   7.653 -0.4850  0.0843 -0.1786
 3364TIP3    H131727   1.691   1.140   7.654 -1.5147  0.5806  1.0318
 3364TIP3    H231728   1.724   0.992   7.652  0.3017  0.9110 -2.9807
 3365TIP3   OH231729   5.167   2.933   0.531 -0.4543  0.0407 -0.5971
 3365TIP3    H131730   5.258   2.957   0.550  0.0574 -2.4973  0.4455
 3365TIP3    H231731   5.173   2.858   0.472 -1.8279 -0.8948  0.3901
 3366TIP3   OH231732   0.748   2.067   2.283  0.0579  0.2007 -0.2390
 3366TIP3    H131733   0.771   2.126   2.212  1.6478 -0.2397 -0.1523
 3366TIP3    H231734   0.826   2.068   2.340 -1.1238  0.4692  1.4463
 3367TIP3   OH231735   4.291   0.924   0.814 -0.0729 -0.1752 -0.3369
 3367TIP3    H131736   4.226   0.966   0.758  0.7400  1.3004 -0.2465
 3367TIP3    H231737   4.319   0.994   0.874  2.0084 -0.5766 -0.7628
 3368TIP3   OH231738   1.529   3.257   8.819  0.3603  0.1598  0.6124
 3368TIP3    H131739   1.608   3.306   8.841  1.2671 -0.2820 -1.4211
 3368TIP3    H231740   1.457   3.307   8.858  1.4375  1.8173  0.5488
 3369TIP3   OH231741   6.348   6.083   2.152  0.0342  0.3863  0.5588
 3369TIP3    H131742   6.311   6.041   2.230  0.5169 -0.0222  0.5733
 3369TIP3    H231743   6.371   6.010   2.094 -0.8696  0.7079 -0.2240
 3370TIP3   OH231744   0.634   2.036   0.377  0.5931 -0.3452 -0.2089
 3370TIP3    H131745   0.554   1.985   0.381  0.5461 -0.3019 -0.5325
 3370TIP3    H231746   0.699   1.976   0.340  0.2706  0.1340 -1.6346
 3371TIP3   OH231747   5.938   5.206   7.334  0.0446  0.1706  0.1642
 3371TIP3    H131748   6.027   5.205   7.297 -0.2793  1.6482 -0.7180
 3371TIP3    H231749   5.884   5.166   7.266 -0.1665  0.5305  0.1194
 3372TIP3   OH231750   2.544   4.085   8.071  0.0515 -0.0936  0.4039
 3372TIP3    H131751   2.480   4.020   8.042  0.1469  0.1618 -0.4188
 3372TIP3    H231752   2.628   4.042   8.061  0.0100 -0.5019  1.6841
 3373TIP3   OH231753   4.545   5.870   8.938  0.1604  0.0526  0.2453
 3373TIP3    H131754   4.534   5.777   8.959 -0.6861  0.1886  0.4498
 3373TIP3    H231755   4.564   5.871   8.844 -0.5830 -0.2871  0.0863
 3374TIP3   OH231756   5.760   1.638   0.838  0.3770 -0.2167 -0.1253
 3374TIP3    H131757   5.667   1.655   0.855  0.0973 -1.8100  0.2005
 3374TIP3    H231758   5.769   1.643   0.743  0.0995  0.5842 -0.1113
 3375TIP3   OH231759   2.475   6.739   8.383  0.4890  0.6839 -0.0267
 3375TIP3    H131760   2.569   6.746   8.363  0.9929 -1.3824  1.2872
 3375TIP3    H231761   2.444   6.669   8.325 -0.1667  1.1549 -0.2448
 3376TIP3   OH231762   4.645   4.984   8.032 -0.1902  0.2630 -0.4455
 3376TIP3    H131763   4.551   4.972   8.040  0.0545 -0.6204  2.1557
 3376TIP3    H231764   4.676   4.989   8.123  2.3448 -0.1676 -1.2130
 3377TIP3   OH231765   2.672   3.798   8.581  0.2624  0.2369 -0.3226
 3377TIP3    H131766   2.750   3.828   8.627 -0.8816  1.5097  0.8935
 3377TIP3    H231767   2.618   3.757   8.648 -0.0386 -0.8376 -1.1834
 3378TIP3   OH231768   3.044   4.760   1.550  0.6063 -0.5538 -0.5932
 3378TIP3    H131769   3.087   4.841   1.576 -0.5475 -0.6881  1.9625
 3378TIP3    H231770   3.079   4.693   1.608 -1.1573 -1.1378 -0.1291
 3379TIP3   OH231771   3.165   2.596   7.888  0.0115 -0.2322 -0.1064
 3379TIP3    H131772   3.230   2.665   7.874 -1.2324  1.0609  0.2677
 3379TIP3    H231773   3.207   2.535   7.949  0.0090  1.9041  2.1794
 3380TIP3   OH231774   3.744   1.602   0.373  0.1626 -0.5630 -0.2949
 3380TIP3    H131775   3.811   1.670   0.380 -0.3334  0.0861 -1.5852
 3380TIP3    H231776   3.757   1.563   0.287 -0.5786 -1.0097 -0.2181
 3381TIP3   OH231777   4.571   1.094   1.822  0.2902 -0.4754  0.0300
 3381TIP3    H131778   4.488   1.079   1.867 -0.4926  1.4180 -0.7181
 3381TIP3    H231779   4.602   1.178   1.857  1.2314 -0.5207 -0.6714
 3382TIP3   OH231780   6.461   2.097   0.552 -0.3972 -0.6370 -0.0102
 3382TIP3    H131781   6.371   2.106   0.585 -0.3388 -0.4134  0.0868
 3382TIP3    H231782   6.451   2.052   0.468 -0.5760 -0.8772  0.1368
 3383TIP3   OH231783   5.797   3.673   8.468 -0.5886 -0.0689  0.6115
 3383TIP3    H131784   5.799   3.577   8.466 -2.7840 -0.2136  2.3585
 3383TIP3    H231785   5.882   3.697   8.505 -0.2617 -1.3784  0.7880
 3384TIP3   OH231786   3.793   3.892   0.905  0.5671  0.7447 -0.2415
 3384TIP3    H131787   3.744   3.889   0.988  0.3211 -0.9514 -0.4175
 3384TIP3    H231788   3.882   3.869   0.929  0.8477  1.8005 -0.2318
 3385TIP3   OH231789   6.753   5.210   7.472 -0.2710  0.5336  0.1153
 3385TIP3    H131790   6.776   5.302   7.479 -0.5857  0.6062  0.1907
 3385TIP3    H231791   6.703   5.192   7.552  0.4842  0.0994  0.4989
 3386TIP3   OH231792   4.459   3.740   6.994  0.0186  0.2962  0.1082
 3386TIP3    H131793   4.516   3.813   7.019 -1.7724  1.3709  1.2823
 3386TIP3    H231794   4.381   3.751   7.047 -0.9306 -1.6738 -0.7546
 3387TIP3   OH231795   2.896   4.368   0.785  0.4454 -0.2203 -0.0508
 3387TIP3    H131796   2.866   4.408   0.866 -1.3031 -2.7748  0.6661
 3387TIP3    H231797   2.970   4.313   0.812  1.8780  1.2637 -0.7774
 3388TIP3   OH231798   2.854   1.467   1.701  0.6592 -0.0515 -0.0655
 3388TIP3    H131799   2.882   1.386   1.744 -1.2832 -0.6850  0.1348
 3388TIP3    H231800   2.803   1.512   1.768  1.5326  1.2607 -0.2490
 3389TIP3   OH231801   2.702   1.341   7.320  0.6971 -0.0480 -0.2860
 3389TIP3    H131802   2.621   1.349   7.370  1.7346  2.2286  1.1780
 3389TIP3    H231803   2.713   1.426   7.278  2.0586 -0.4976 -0.9104
 3390TIP3   OH231804   0.849   3.887   6.936  0.0447 -0.6830 -0.3122
 3390TIP3    H131805   0.809   3.819   6.883  0.0352 -0.3163 -0.7806
 3390TIP3    H231806   0.894   3.943   6.873  0.5218 -0.5746  0.1237
 3391TIP3   OH231807   3.448   5.012   2.095 -0.4332  0.0291  0.3399
 3391TIP3    H131808   3.401   4.955   2.155 -0.9377  0.6016  0.4983
 3391TIP3    H231809   3.458   5.094   2.142 -0.5599  0.3853 -0.2381
 3392TIP3   OH231810   0.544   2.716   1.887 -0.5979  0.7266 -0.9267
 3392TIP3    H131811   0.536   2.731   1.981  0.3926  0.4160 -0.7783
 3392TIP3    H231812   0.460   2.744   1.851 -1.0101  0.7979  0.0523
 3393TIP3   OH231813   3.980   0.835   7.515 -0.0420  0.1699  1.0630
 3393TIP3    H131814   3.950   0.760   7.566 -0.6909  1.0111  1.9676
 3393TIP3    H231815   3.904   0.860   7.462  0.8092 -1.0922 -0.8871
 3394TIP3   OH231816   3.884   6.714   7.118 -0.2497 -0.5125 -0.1810
 3394TIP3    H131817   3.847   6.686   7.035 -2.1103 -2.8207  1.3054
 3394TIP3    H231818   3.829   6.788   7.145 -1.2880 -1.3629  0.1184
 3395TIP3   OH231819   0.314   3.897   8.502 -0.3084 -0.4087  0.4903
 3395TIP3    H131820   0.323   3.829   8.569 -0.9508 -1.7367 -0.7117
 3395TIP3    H231821   0.375   3.870   8.433  0.4463  1.0142  0.5616
 3396TIP3   OH231822   5.490   0.912   0.018 -0.4119  0.0987  0.3039
 3396TIP3    H131823   5.424   0.932  -0.048 -0.1346  0.5664  0.1630
 3396TIP3    H231824   5.555   0.859  -0.028  0.4129  1.4355 -0.1556
 3397TIP3   OH231825   0.221   3.726   1.760 -0.4726 -0.0365  0.0844
 3397TIP3    H131826   0.132   3.695   1.773  0.3630 -2.5725  0.3866
 3397TIP3    H231827   0.271   3.685   1.831  1.1872  0.1015 -0.9380
 3398TIP3   OH231828   4.174   2.296   6.875 -0.4478 -0.0755 -0.2351
 3398TIP3    H131829   4.160   2.377   6.827  0.4860  0.5842  0.5487
 3398TIP3    H231830   4.262   2.269   6.851  1.0551  1.5531  2.7463
 3399TIP3   OH231831   4.460   2.222   2.378  0.7707  0.0235  0.3117
 3399TIP3    H131832   4.549   2.210   2.343  0.8629  0.9758  0.1927
 3399TIP3    H231833   4.463   2.307   2.422 -0.6459  1.1213 -1.5596
 3400TIP3   OH231834   2.438   2.784   7.235  0.0903 -0.6607  1.0968
 3400TIP3    H131835   2.403   2.861   7.189  0.0666 -0.9369  0.6467
 3400TIP3    H231836   2.526   2.810   7.263  0.0125 -0.4082  1.1099
 3401TIP3   OH231837   5.382   0.703   8.322  0.1055 -0.0361  0.3277
 3401TIP3    H131838   5.357   0.617   8.289  0.3547  0.4376 -1.1802
 3401TIP3    H231839   5.472   0.716   8.290  0.4347  0.3856  1.3746
 3402TIP3   OH231840   2.188   2.334   7.343  0.2191 -0.2440 -0.4851
 3402TIP3    H131841   2.260   2.384   7.306 -1.0465  1.6526 -0.5782
 3402TIP3    H231842   2.112   2.356   7.289 -1.6505  2.3972  2.7712
 3403TIP3   OH231843   2.237   0.275   0.844 -0.2985  0.4249 -0.5716
 3403TIP3    H131844   2.247   0.294   0.937 -0.9561  3.1987 -0.9931
 3403TIP3    H231845   2.143   0.265   0.831 -0.1002 -1.9524 -0.6736
 3404TIP3   OH231846   1.000   3.144   6.960 -0.2160  0.2792 -0.1255
 3404TIP3    H131847   1.036   3.205   6.896  1.1311 -1.5876 -1.2388
 3404TIP3    H231848   0.949   3.200   7.019  3.0134  2.8864  0.5037
 3405TIP3   OH231849   4.591   1.846   0.101  0.0230  0.2241  0.1847
 3405TIP3    H131850   4.563   1.883   0.185 -0.4888 -0.4858  0.3403
 3405TIP3    H231851   4.509   1.823   0.057  0.2756  0.9354 -0.6801
 3406TIP3   OH231852   2.755   5.931   7.581 -0.1638  0.1843  0.4396
 3406TIP3    H131853   2.783   5.840   7.596 -2.0841 -0.6569 -0.6545
 3406TIP3    H231854   2.677   5.923   7.526 -0.3323  2.5290  0.2428
 3407TIP3   OH231855   2.279   2.451   8.329  0.1437  0.2189 -0.3427
 3407TIP3    H131856   2.302   2.368   8.286  2.9909  0.9248 -0.3793
 3407TIP3    H231857   2.342   2.460   8.400 -1.2414  1.5607  0.7989
 3408TIP3   OH231858   2.129   3.560   0.498  0.4690  0.0854 -0.1901
 3408TIP3    H131859   2.137   3.652   0.520 -1.2235  0.0615  0.6755
 3408TIP3    H231860   2.050   3.554   0.444 -0.3070 -1.0388  1.0177
 3409TIP3   OH231861   6.682   2.504   7.588 -0.0577 -0.1039  0.1929
 3409TIP3    H131862   6.617   2.569   7.614 -0.7796 -0.3041 -1.0614
 3409TIP3    H231863   6.696   2.452   7.667 -1.6469 -0.2560  0.4033
 3410TIP3   OH231864   0.568   1.265   8.203  0.6614 -0.0835  0.7972
 3410TIP3    H131865   0.531   1.184   8.167 -0.6184 -0.7702  3.3917
 3410TIP3    H231866   0.496   1.304   8.253  1.4228  2.4062  0.0991
 3411TIP3   OH231867   4.229   5.711   7.635 -0.2428  0.1941 -0.2871
 3411TIP3    H131868   4.277   5.638   7.596 -0.3871 -0.6210  0.9827
 3411TIP3    H231869   4.151   5.721   7.581 -2.2559 -3.2006  1.5909
 3412TIP3   OH231870   1.485   2.720   1.334  0.1358  0.1817  0.2420
 3412TIP3    H131871   1.476   2.660   1.259 -0.0718 -1.4461  1.5173
 3412TIP3    H231872   1.402   2.714   1.380  0.1212  1.4609  0.4322
 3413TIP3   OH231873   5.646   4.598   1.667  0.1705 -0.0204 -0.0247
 3413TIP3    H131874   5.639   4.691   1.688 -0.9628 -0.1454  0.2544
 3413TIP3    H231875   5.597   4.554   1.737  2.1498 -0.9828  0.8463
 3414TIP3   OH231876   4.178   2.750   0.606 -0.1408 -0.1565  0.3909
 3414TIP3    H131877   4.121   2.786   0.675  3.2754 -1.9360  4.6353
 3414TIP3    H231878   4.261   2.796   0.618  0.5496 -0.2892 -3.0052
 3415TIP3   OH231879   5.134   0.165   1.585 -0.4621  0.7653  0.2158
 3415TIP3    H131880   5.212   0.216   1.564 -1.5322  1.9518 -1.1370
 3415TIP3    H231881   5.139   0.088   1.527 -1.4178  2.0333 -1.6465
 3416TIP3   OH231882   4.248   1.217   1.377  0.0037  0.0702 -0.1851
 3416TIP3    H131883   4.179   1.263   1.330 -0.7707 -0.0659  0.7868
 3416TIP3    H231884   4.250   1.129   1.337 -2.1395 -0.7765  1.3986
 3417TIP3   OH231885   6.118   5.987   8.133  0.3145  0.0042  0.8068
 3417TIP3    H131886   6.084   6.064   8.086  1.6495 -0.7620 -1.5795
 3417TIP3    H231887   6.127   6.017   8.224 -2.4555  1.5468  0.6974
 3418TIP3   OH231888   5.692   1.127   0.674  0.3461  0.1488 -0.3936
 3418TIP3    H131889   5.649   1.143   0.759  1.0143 -2.0539  0.4470
 3418TIP3    H231890   5.635   1.169   0.610 -0.4042  1.5218  1.1072
 3419TIP3   OH231891   1.037   1.374   0.411 -0.9673  0.2537 -0.2510
 3419TIP3    H131892   1.101   1.343   0.476  0.8649 -0.0650 -2.0986
 3419TIP3    H231893   1.001   1.454   0.450  0.1245  0.1207  1.1288
 3420TIP3   OH231894   5.314   5.946   6.747  0.2166 -0.1947  0.2818
 3420TIP3    H131895   5.220   5.967   6.742  0.3202  0.0619 -0.8081
 3420TIP3    H231896   5.317   5.858   6.783 -0.5579 -1.0644 -1.6469
 3421TIP3   OH231897   1.847   1.645   2.286 -0.5107  0.0102 -0.3047
 3421TIP3    H131898   1.794   1.670   2.210 -0.5343 -0.2457 -0.3719
 3421TIP3    H231899   1.935   1.678   2.266 -1.1169  2.6800  0.8769
 3422TIP3   OH231900   4.268   1.788   6.753  0.1264  0.3536  0.0700
 3422TIP3    H131901   4.258   1.800   6.848 -0.7893  0.1544  0.0100
 3422TIP3    H231902   4.188   1.743   6.726  1.6526 -2.3335 -0.3312
 3423TIP3   OH231903   4.514   5.545   7.816 -0.1027 -0.2709  0.2257
 3423TIP3    H131904   4.439   5.597   7.843  0.5479  1.1824 -0.6337
 3423TIP3    H231905   4.525   5.564   7.723  1.4573 -0.2548  0.3785
 3424TIP3   OH231906   2.244   5.404   7.953  0.3363 -0.6155 -0.0517
 3424TIP3    H131907   2.281   5.383   7.866  0.8850  0.5583 -0.1212
 3424TIP3    H231908   2.215   5.495   7.945 -0.6048 -0.8416  0.6830
 3425TIP3   OH231909   2.429   6.207   7.707  0.5377  0.6155 -0.4698
 3425TIP3    H131910   2.507   6.163   7.739  0.9384  1.9525  0.4231
 3425TIP3    H231911   2.458   6.295   7.685 -0.6554  1.0408 -0.3956
 3426TIP3   OH231912   3.227   3.360   6.896 -0.1840  0.2911  0.2015
 3426TIP3    H131913   3.160   3.310   6.849 -1.4948  0.1594  2.0739
 3426TIP3    H231914   3.241   3.438   6.843  0.3099 -1.0238 -1.6804
 3427TIP3   OH231915   3.739   6.419   1.652 -0.0005  0.2764 -0.5373
 3427TIP3    H131916   3.834   6.416   1.637  0.3378  0.6336  1.3408
 3427TIP3    H231917   3.707   6.337   1.615  1.1750 -0.2753 -0.3815
 3428TIP3   OH231918   6.335   3.389   7.089 -0.3124  0.2827 -0.3689
 3428TIP3    H131919   6.311   3.480   7.070 -0.4450  0.5183  0.8483
 3428TIP3    H231920   6.293   3.370   7.173  1.8966 -0.0070  0.7410
 3429TIP3   OH231921   0.826   5.837   7.725  0.0663 -0.4757 -0.3390
 3429TIP3    H131922   0.830   5.786   7.806 -0.7687 -0.7896 -0.4906
 3429TIP3    H231923   0.911   5.880   7.720 -0.0390 -0.0620  0.9719
 3430TIP3   OH231924   6.120   0.526   0.896  0.2198  0.0035 -0.4000
 3430TIP3    H131925   6.054   0.477   0.945 -0.6441 -0.5425 -2.0431
 3430TIP3    H231926   6.086   0.530   0.807  2.0620  0.3840 -1.1280
 3431TIP3   OH231927   2.154   1.607   1.035  0.3656  0.6649 -0.4095
 3431TIP3    H131928   2.232   1.578   0.988  0.3746 -1.2730  0.7121
 3431TIP3    H231929   2.081   1.563   0.991  0.0759  1.0805 -0.3581
 3432TIP3   OH231930   2.149   4.632   8.777  0.3771  0.0813  0.3207
 3432TIP3    H131931   2.168   4.647   8.685 -0.2083 -0.5508  0.0890
 3432TIP3    H231932   2.114   4.716   8.808  2.2920  0.8920  0.4595
 3433TIP3   OH231933   0.007   0.628   0.115 -0.5482 -0.3473  0.3958
 3433TIP3    H131934   0.074   0.637   0.047 -1.1727 -1.6741 -0.4256
 3433TIP3    H231935   0.051   0.656   0.195  1.0633 -1.3590 -0.0896
 3434TIP3   OH231936   6.719   1.678   0.383  0.3201 -0.0505 -0.2644
 3434TIP3    H131937   6.733   1.608   0.448 -0.5816  0.8094  0.9066
 3434TIP3    H231938   6.797   1.732   0.390  0.0843  0.2237  0.3767
 3435TIP3   OH231939   6.345   2.193   6.541  0.1041 -0.1204 -0.3414
 3435TIP3    H131940   6.309   2.269   6.495 -0.5973  1.0506  1.9813
 3435TIP3    H231941   6.436   2.216   6.558 -0.5333  1.1165  1.9070
 3436TIP3   OH231942   3.571   1.067   8.876 -0.4854 -0.2542 -0.0654
 3436TIP3    H131943   3.492   1.013   8.873 -0.7707 -0.0925  2.3221
 3436TIP3    H231944   3.634   1.013   8.924  0.5171  0.0500 -1.0115
 3437TIP3   OH231945   3.067   2.503   7.000  0.1640  0.1747 -1.0394
 3437TIP3    H131946   3.136   2.568   6.983  0.1066  0.4856 -0.1398
 3437TIP3    H231947   2.999   2.523   6.935  0.5051  0.4756 -1.3118
 3438TIP3   OH231948   6.216   3.741   7.620  0.1453 -0.1865  0.2170
 3438TIP3    H131949   6.213   3.652   7.653  0.6983 -0.0762  0.5889
 3438TIP3    H231950   6.207   3.733   7.525 -1.4276 -0.5132  0.3687
 3439TIP3   OH231951   2.435   6.514   7.859  0.2255 -0.7067 -0.1927
 3439TIP3    H131952   2.507   6.535   7.799 -0.7739 -1.6249 -1.7576
 3439TIP3    H231953   2.442   6.420   7.873  0.9719 -0.4096  1.9212
 3440TIP3   OH231954   6.246   1.419   7.189 -0.2408  0.5116  0.0988
 3440TIP3    H131955   6.326   1.424   7.136  0.4555 -3.1770  0.5760
 3440TIP3    H231956   6.175   1.420   7.124  0.4282 -0.4716 -0.6734
 3441TIP3   OH231957   1.307   2.713   2.382  0.0197 -0.4334 -0.1468
 3441TIP3    H131958   1.391   2.750   2.409  0.4339 -0.2550 -1.5709
 3441TIP3    H231959   1.245   2.740   2.450  0.4294  2.3483 -0.7728
 3442TIP3   OH231960   0.535   2.260   8.074  0.2341 -0.4436 -0.3518
 3442TIP3    H131961   0.491   2.296   8.151  2.2758 -0.1078  0.7501
 3442TIP3    H231962   0.468   2.257   8.007 -1.3293  0.4179  1.0924
 3443TIP3   OH231963   5.375   5.629   1.233  0.2359 -0.4104  0.2119
 3443TIP3    H131964   5.470   5.628   1.243  0.2785 -1.1405 -0.1701
 3443TIP3    H231965   5.347   5.541   1.260 -0.0868 -0.9558 -1.7662
 3444TIP3   OH231966   1.120   4.921   2.389 -0.6513 -0.0543  0.0481
 3444TIP3    H131967   1.196   4.975   2.413 -0.4654 -0.3800  0.1907
 3444TIP3    H231968   1.144   4.882   2.305 -0.1306 -1.1761  0.7092
 3445TIP3   OH231969   3.704   1.170   1.013  0.8568  0.7002 -0.0170
 3445TIP3    H131970   3.695   1.101   1.079  1.0856  0.6793 -0.0066
 3445TIP3    H231971   3.693   1.252   1.062  1.5884  0.7052  0.1493
 3446TIP3   OH231972   3.025   1.652   8.577 -0.4069  0.4472  0.1707
 3446TIP3    H131973   3.024   1.556   8.579  0.8576  0.4214  0.7871
 3446TIP3    H231974   3.063   1.673   8.491  1.7246  0.3159  1.0296
 3447TIP3   OH231975   3.679   0.493   0.772  0.3252 -0.5352 -0.3157
 3447TIP3    H131976   3.641   0.459   0.853  0.8580 -0.0517  0.1514
 3447TIP3    H231977   3.607   0.539   0.729 -0.0065 -0.9484 -0.2121
 3448TIP3   OH231978   6.320   1.922   0.026  0.2765 -0.2787  0.6949
 3448TIP3    H131979   6.232   1.887   0.039  1.0558 -2.2355  1.0445
 3448TIP3    H231980   6.321   1.951  -0.065 -0.6292 -0.5694  0.5810
 3449TIP3   OH231981   4.114   4.521   8.904  0.4475  0.1110 -0.2811
 3449TIP3    H131982   4.158   4.506   8.988  0.8283  0.6791 -0.3759
 3449TIP3    H231983   4.095   4.433   8.871  0.1958 -0.1176  0.4531
 3450TIP3   OH231984   0.130   5.731   2.590  0.2709  0.5183 -0.0850
 3450TIP3    H131985   0.058   5.703   2.647 -0.0823  0.7164 -0.4327
 3450TIP3    H231986   0.206   5.682   2.623  0.2083  1.0996  0.9576
 3451TIP3   OH231987   0.133   4.210   8.724 -0.0813 -0.1794 -0.0684
 3451TIP3    H131988   0.085   4.256   8.655 -3.8905 -1.0656  1.7654
 3451TIP3    H231989   0.147   4.277   8.791  3.0938  0.5233 -1.2237
 3452TIP3   OH231990   6.025   0.619   7.238  0.2907 -0.4505 -0.3052
 3452TIP3    H131991   6.048   0.708   7.265 -1.9108  0.3896 -1.0219
 3452TIP3    H231992   5.998   0.576   7.319 -1.7440  0.5934 -0.3665
 3453TIP3   OH231993   2.041   1.334   0.028  0.3063 -0.2009 -0.4586
 3453TIP3    H131994   2.098   1.300   0.097 -0.4099 -2.6241 -0.9829
 3453TIP3    H231995   2.063   1.427   0.023  1.1794 -0.1909  2.2261
 3454TIP3   OH231996   4.129   6.051   8.592 -0.2715 -0.7332  0.1835
 3454TIP3    H131997   4.084   5.967   8.581 -1.5344 -0.4060  2.3815
 3454TIP3    H231998   4.103   6.081   8.679 -0.6820  2.4286 -0.8984
 3455TIP3   OH231999   4.843   4.407   0.890  0.3316 -0.7384  0.0941
 3455TIP3    H132000   4.864   4.479   0.830 -0.7956  1.7923  2.5206
 3455TIP3    H232001   4.869   4.439   0.976  1.4336 -4.0329  1.1182
 3456TIP3   OH232002   5.221   2.155   7.261 -0.1491 -0.1035  0.5324
 3456TIP3    H132003   5.194   2.069   7.230 -0.7743 -0.0250  0.8408
 3456TIP3    H232004   5.265   2.139   7.344 -0.4966 -0.1052  0.7182
 3457TIP3   OH232005   3.282   5.291   6.363 -0.3816 -0.4648  0.1165
 3457TIP3    H132006   3.302   5.334   6.280  0.3437 -0.0428  0.4978
 3457TIP3    H232007   3.365   5.255   6.392  0.1539  2.1471  2.2168
 3458TIP3   OH232008   3.811   4.253   8.766  0.0062 -0.1065  0.1310
 3458TIP3    H132009   3.765   4.327   8.727 -1.4805 -0.4212  1.2201
 3458TIP3    H232010   3.782   4.177   8.717 -0.4079 -0.2653  0.6099
 3459TIP3   OH232011   1.728   0.795   6.777 -0.8156 -0.3819 -0.2103
 3459TIP3    H132012   1.646   0.843   6.761 -0.6813 -0.6813 -2.1102
 3459TIP3    H232013   1.703   0.702   6.769 -0.6331 -0.5581  1.1120
 3460TIP3   OH232014   4.276   6.484   1.016  0.6671  0.5482 -0.0196
 3460TIP3    H132015   4.329   6.482   0.937  0.3817 -0.7702 -0.2031
 3460TIP3    H232016   4.304   6.407   1.066 -2.0854 -1.1788 -0.8619
 3461TIP3   OH232017   5.040   1.969   1.098 -0.1232 -0.2399  0.1834
 3461TIP3    H132018   4.946   1.976   1.111 -0.0626  3.2967 -0.3234
 3461TIP3    H232019   5.063   2.047   1.048  2.7600 -2.2541 -1.9206
 3462TIP3   OH232020   2.191   5.164   7.375 -0.3257 -0.3800 -0.4133
 3462TIP3    H132021   2.285   5.156   7.359 -0.0392  1.7868 -0.1352
 3462TIP3    H232022   2.158   5.074   7.369  2.1902 -1.6650  2.2758
 3463TIP3   OH232023   6.355   3.175   8.264 -0.3406 -0.1125 -0.2336
 3463TIP3    H132024   6.372   3.154   8.172  0.5204  0.5407 -0.2472
 3463TIP3    H232025   6.426   3.236   8.288  0.1724 -1.1972  1.2000
 3464TIP3   OH232026   2.565   4.787   6.802 -0.0563 -0.3876  0.1655
 3464TIP3    H132027   2.548   4.786   6.708 -3.6092 -3.2077  0.5909
 3464TIP3    H232028   2.607   4.702   6.819  0.1324 -0.1061  1.1589
 3465TIP3   OH232029   4.965   5.976   8.029 -0.4888 -0.1218 -0.4686
 3465TIP3    H132030   4.905   6.046   8.055  0.5112  0.2508  0.9716
 3465TIP3    H232031   4.993   5.937   8.112  1.0805 -0.4305 -1.1036
 3466TIP3   OH232032   0.251   2.127   1.377 -0.0800  0.2528 -0.0926
 3466TIP3    H132033   0.280   2.179   1.452  1.0557  0.5286 -0.7092
 3466TIP3    H232034   0.270   2.182   1.301  2.2558 -1.4904 -0.8702
 3467TIP3   OH232035   4.688   4.968   0.909 -0.4821  0.1188  0.2275
 3467TIP3    H132036   4.606   4.986   0.956 -1.4650  0.6493 -1.6032
 3467TIP3    H232037   4.753   5.022   0.953 -1.5101  1.1203  0.5595
 3468TIP3   OH232038   4.442   6.392   7.802 -0.2845  0.2482  0.2152
 3468TIP3    H132039   4.427   6.449   7.878  1.7067 -0.3810  1.1389
 3468TIP3    H232040   4.432   6.451   7.726  0.3604  1.5140  1.0764
 3469TIP3   OH232041   1.775   0.254   1.422  0.3551 -0.1696 -0.3130
 3469TIP3    H132042   1.763   0.330   1.366 -1.5089 -0.2460 -0.0972
 3469TIP3    H232043   1.735   0.181   1.374 -0.6660 -0.3683  0.7754
 3470TIP3   OH232044   1.829   4.953   8.161 -0.0500 -0.0159  0.1271
 3470TIP3    H132045   1.746   4.948   8.209  0.2326 -2.5213  0.4990
 3470TIP3    H232046   1.861   5.042   8.178 -1.9337  0.5289  1.1741
 3471TIP3   OH232047   4.540   6.114   1.220  0.0878  0.2122 -0.4216
 3471TIP3    H132048   4.514   6.206   1.219  2.6203  0.9878 -0.3432
 3471TIP3    H232049   4.591   6.102   1.140  0.4133 -0.9166 -0.0620
 3472TIP3   OH232050   2.084   2.939   0.681 -0.3320 -0.2155 -0.1696
 3472TIP3    H132051   1.998   2.980   0.692 -1.0229 -1.4203 -0.8745
 3472TIP3    H232052   2.066   2.845   0.680  1.1750 -0.5515  1.0890
 3473TIP3   OH232053   2.319   5.599   8.686 -0.4199 -0.2303 -0.0219
 3473TIP3    H132054   2.364   5.618   8.768 -2.1742  0.8269  0.7596
 3473TIP3    H232055   2.389   5.586   8.622  0.9796 -0.8082  1.5711
 3474TIP3   OH232056   4.011   2.269   8.179 -0.5222  0.3268  0.7750
 3474TIP3    H132057   3.982   2.304   8.264  0.1598  0.7305  0.8536
 3474TIP3    H232058   4.069   2.337   8.145 -2.6910  1.3262 -1.1685
 3475TIP3   OH232059   3.967   0.330   0.243  0.2334 -0.0723  0.2902
 3475TIP3    H132060   3.917   0.253   0.217 -2.5821  2.0416 -0.9869
 3475TIP3    H232061   3.911   0.375   0.306  0.7284  2.0807 -0.7141
 3476TIP3   OH232062   6.269   3.388   1.804  0.3306  0.2783  0.3413
 3476TIP3    H132063   6.346   3.398   1.861 -0.1252  1.1337  0.8371
 3476TIP3    H232064   6.303   3.407   1.716  0.9397 -0.5715  0.3822
 3477TIP3   OH232065   4.426   0.645   6.612 -0.0241 -0.2239  0.4210
 3477TIP3    H132066   4.356   0.618   6.553 -2.0269  2.4370  1.4382
 3477TIP3    H232067   4.415   0.589   6.689 -2.7876  1.8017  1.6420
 3478TIP3   OH232068   0.103   2.912   7.682 -0.1731 -0.8327  0.5118
 3478TIP3    H132069   0.037   2.970   7.720 -0.1416 -0.2188 -0.3433
 3478TIP3    H232070   0.079   2.825   7.713 -2.3307 -0.8543 -1.0157
 3479TIP3   OH232071   0.333   1.995   0.248 -0.0237  0.0282 -0.0330
 3479TIP3    H132072   0.353   1.915   0.199  2.4028 -0.1971  1.1885
 3479TIP3    H232073   0.346   2.066   0.185 -0.3028 -0.4229 -0.6088
 3480TIP3   OH232074   5.506   1.316   8.577  0.1302 -0.3323 -0.2037
 3480TIP3    H132075   5.431   1.269   8.615 -0.3579  1.9492  1.8985
 3480TIP3    H232076   5.580   1.288   8.631  0.1412  0.0742 -0.0097
 3481TIP3   OH232077   6.629   2.457   0.856  0.2029 -0.6317  0.4269
 3481TIP3    H132078   6.686   2.442   0.781 -1.0549 -1.2040 -0.4288
 3481TIP3    H232079   6.544   2.421   0.831  0.0695 -2.0597  2.6215
 3482TIP3   OH232080   0.376   2.289   6.831  0.1684  0.1005 -0.4381
 3482TIP3    H132081   0.338   2.374   6.806 -0.4914 -0.2298 -0.5767
 3482TIP3    H232082   0.470   2.302   6.825  0.0819  0.9217 -0.1586
 3483TIP3   OH232083   6.358   4.610   0.003  0.0784  0.7084  0.0548
 3483TIP3    H132084   6.326   4.699   0.019 -0.9586  0.0164  2.2900
 3483TIP3    H232085   6.288   4.554   0.036  0.2659 -1.0038 -2.2178
 3484TIP3   OH232086   0.865   4.142   1.425 -0.0601  0.0668 -0.1380
 3484TIP3    H132087   0.888   4.220   1.375 -1.8029  2.0577  1.9664
 3484TIP3    H232088   0.843   4.077   1.358  0.2300  1.7385 -1.9638
 3485TIP3   OH232089   5.040   4.534   1.444  0.0765 -0.7904  0.0795
 3485TIP3    H132090   5.095   4.604   1.477  1.0021 -1.3801 -0.1467
 3485TIP3    H232091   4.958   4.542   1.492  0.5517 -0.2079  0.8171
 3486TIP3   OH232092   3.014   3.846   0.632  0.0949 -0.4304  0.2192
 3486TIP3    H132093   2.972   3.850   0.546 -1.0232 -2.4836  0.6137
 3486TIP3    H232094   2.976   3.919   0.681 -1.1738 -0.7658 -0.2343
 3487TIP3   OH232095   2.067   5.221   2.175 -0.3120  0.0390  0.2960
 3487TIP3    H132096   2.127   5.184   2.110 -0.7604 -0.3775  0.1048
 3487TIP3    H232097   1.993   5.160   2.175 -0.7502  0.5647  0.4958
 3488TIP3   OH232098   3.119   6.432   0.809  0.2082  0.0959  0.4919
 3488TIP3    H132099   3.169   6.354   0.833  0.3708  0.1532  0.3437
 3488TIP3    H232100   3.067   6.452   0.887  1.2133  0.6660  1.0500
 3489TIP3   OH232101   2.522   5.630   7.457 -0.0265 -0.7216 -0.3400
 3489TIP3    H132102   2.576   5.605   7.381 -2.0627 -0.2466 -2.0381
 3489TIP3    H232103   2.433   5.609   7.430 -1.1169  2.0685  0.8097
 3490TIP3   OH232104   6.359   6.043   6.881  0.1115 -0.5171  0.3551
 3490TIP3    H132105   6.280   5.992   6.868 -2.4190  2.6282  2.0564
 3490TIP3    H232106   6.368   6.051   6.976  1.7538  0.2879  0.1706
 3491TIP3   OH232107   2.737   2.648   7.379 -0.1194  0.2718  0.2575
 3491TIP3    H132108   2.694   2.655   7.465 -0.0049 -1.2846  0.4715
 3491TIP3    H232109   2.822   2.610   7.397 -1.0042 -2.3736 -0.7352
 3492TIP3   OH232110   1.657   2.997   0.472 -0.2936  0.3303  0.2615
 3492TIP3    H132111   1.633   2.921   0.526  1.4978 -1.2775 -1.0888
 3492TIP3    H232112   1.573   3.030   0.440 -1.3024  0.4084  2.7094
 3493TIP3   OH232113   2.544   2.683   1.851 -0.1792 -0.4155  0.3361
 3493TIP3    H132114   2.500   2.763   1.824 -0.4182 -0.7973 -0.4453
 3493TIP3    H232115   2.637   2.705   1.849 -0.1469 -0.5544 -1.3229
 3494TIP3   OH232116   2.530   2.852   8.021 -0.6626  0.0029 -0.7886
 3494TIP3    H132117   2.615   2.847   8.065 -1.1048 -0.1523  0.0658
 3494TIP3    H232118   2.479   2.780   8.058 -1.2704  0.2773 -1.0730
 3495TIP3   OH232119   3.917   4.338   8.377 -0.3210  0.5562  0.2358
 3495TIP3    H132120   3.945   4.330   8.469 -1.0081  0.8448  0.4744
 3495TIP3    H232121   3.916   4.248   8.345  2.4841  0.6176 -0.2902
 3496TIP3   OH232122   2.843   5.815   6.221  0.4627 -0.5244  0.3671
 3496TIP3    H132123   2.808   5.902   6.239  0.0684  0.2949 -3.4363
 3496TIP3    H232124   2.778   5.774   6.164  1.4692 -2.6260  0.6278
 3497TIP3   OH232125   3.726   4.385   1.244 -0.0917  0.2362  0.5378
 3497TIP3    H132126   3.785   4.313   1.225 -0.3234  0.0494  0.5250
 3497TIP3    H232127   3.727   4.392   1.340 -0.2198  0.0930  0.5483
 3498TIP3   OH232128   4.880   3.564   6.708  0.8415 -0.3019  0.4688
 3498TIP3    H132129   4.936   3.552   6.784 -1.1392  0.2099  2.1216
 3498TIP3    H232130   4.875   3.477   6.668  3.6977 -0.1197 -0.5053
 3499TIP3   OH232131   4.184   2.459   8.113 -0.3763  0.5413 -0.3124
 3499TIP3    H132132   4.270   2.474   8.073 -0.6651 -1.3257 -1.7489
 3499TIP3    H232133   4.122   2.468   8.041 -1.3266  0.9339  0.5250
 3500TIP3   OH232134   3.271   4.050   7.426  0.3863 -0.0936  0.0664
 3500TIP3    H132135   3.243   4.069   7.337  1.6011  0.7902 -0.1619
 3500TIP3    H232136   3.275   3.954   7.430  3.9507 -0.2306 -2.1190
 3501TIP3   OH232137   5.785   4.423   0.171 -0.0020  0.3787 -0.3541
 3501TIP3    H132138   5.744   4.421   0.257 -1.3906  1.1082 -0.9621
 3501TIP3    H232139   5.845   4.348   0.171  0.9416  1.0661  1.6527
 3502TIP3   OH232140   0.276   5.323   1.284 -0.0684 -0.0980 -0.4131
 3502TIP3    H132141   0.344   5.340   1.349 -0.1329 -0.1422 -0.3348
 3502TIP3    H232142   0.318   5.343   1.200 -0.3874  1.2005 -0.2787
 3503TIP3   OH232143   6.300   2.695   2.330  0.0692  0.1604  0.1469
 3503TIP3    H132144   6.273   2.604   2.344  0.3172 -0.0264 -0.5283
 3503TIP3    H232145   6.245   2.746   2.388 -1.4223 -0.2507 -0.8592
 3504TIP3   OH232146   0.006   6.401   1.101 -0.0941 -0.1257  0.3178
 3504TIP3    H132147  -0.001   6.327   1.041  2.9118 -1.5631  1.5406
 3504TIP3    H232148   0.035   6.474   1.046  2.6262 -1.4162 -0.0932
 3505TIP3   OH232149   5.885   0.380   1.592 -0.2803 -0.3176  0.1135
 3505TIP3    H132150   5.810   0.344   1.544 -1.7335 -0.6312  2.4312
 3505TIP3    H232151   5.882   0.474   1.574  1.0578 -0.7361 -2.7162
 3506TIP3   OH232152   3.481   6.002   8.751  0.0603 -0.4583  0.3269
 3506TIP3    H132153   3.439   5.922   8.723 -1.4009  0.5436 -0.4437
 3506TIP3    H232154   3.441   6.022   8.836  1.3695 -1.1977  1.1598
 3507TIP3   OH232155   2.364   1.858   7.248  0.0174 -0.3306  0.0885
 3507TIP3    H132156   2.437   1.869   7.309 -0.4555 -0.5798  0.7081
 3507TIP3    H232157   2.406   1.833   7.165  0.5768 -1.7134  0.7556
 3508TIP3   OH232158   4.858   4.748   1.115 -0.0755 -0.3009  0.4434
 3508TIP3    H132159   4.897   4.785   1.194  0.3670 -0.5541  0.3512
 3508TIP3    H232160   4.884   4.807   1.044 -1.6141  0.6869  0.6635
 3509TIP3   OH232161   5.616   5.632   7.197 -0.1146 -0.1660  0.5805
 3509TIP3    H132162   5.615   5.537   7.186 -3.1011 -0.1794  0.3477
 3509TIP3    H232163   5.565   5.648   7.275  0.9468  1.2633  1.0254
 3510TIP3   OH232164   4.117   5.012   0.711 -0.1162  0.1007  0.2532
 3510TIP3    H132165   4.062   4.969   0.646 -0.7334  0.0750  0.7792
 3510TIP3    H232166   4.133   4.945   0.777 -2.4326  1.0389  1.9104
 3511TIP3   OH232167   1.714   6.064   0.738  0.5454  0.2310  0.3865
 3511TIP3    H132168   1.730   6.012   0.817  2.6305  1.6793  0.9826
 3511TIP3    H232169   1.780   6.035   0.676 -1.9993 -1.9844 -1.5206
 3512TIP3   OH232170   4.141   0.377   6.686 -0.0015 -0.3041  0.0465
 3512TIP3    H132171   4.104   0.417   6.607 -0.3478  0.0141  0.3725
 3512TIP3    H232172   4.116   0.284   6.679 -1.3291  0.0026  0.5351
 3513TIP3   OH232173   4.232   5.761   1.333 -0.0638  0.5241 -1.1914
 3513TIP3    H132174   4.193   5.827   1.390 -1.6122  1.5236 -3.2869
 3513TIP3    H232175   4.228   5.680   1.384 -1.9179  1.2434 -0.0967
 3514TIP3   OH232176   3.593   4.104   7.530 -0.3500  0.4044  0.6749
 3514TIP3    H132177   3.543   4.115   7.449 -0.9500  0.2143  1.0065
 3514TIP3    H232178   3.574   4.014   7.557  2.6491 -0.7981 -0.8043
 3515TIP3   OH232179   5.677   0.228   7.964 -0.4788 -0.2494 -0.2063
 3515TIP3    H132180   5.746   0.290   7.985 -2.3829  1.2881  1.9383
 3515TIP3    H232181   5.712   0.143   7.991  1.0690  0.2544 -0.5167
 3516TIP3   OH232182   3.725   2.254   0.196 -0.5663 -0.3203  0.3487
 3516TIP3    H132183   3.679   2.301   0.127  1.1592  3.6959  1.6443
 3516TIP3    H232184   3.660   2.241   0.265 -0.9923  0.8843  0.1987
 3517TIP3   OH232185   0.512   1.309   1.095  0.1149  0.4559  0.6234
 3517TIP3    H132186   0.598   1.266   1.093 -0.3966 -0.5748 -0.1738
 3517TIP3    H232187   0.512   1.356   1.178  1.4578  0.4942  0.6331
 3518TIP3   OH232188   0.543   5.528   8.625  0.2737  0.4011  0.4065
 3518TIP3    H132189   0.571   5.456   8.570  0.0018  0.3482  0.3331
 3518TIP3    H232190   0.585   5.512   8.709  1.4357  0.9829 -0.0408
 3519TIP3   OH232191   1.078   6.669   0.189 -0.6220 -0.1525  0.0520
 3519TIP3    H132192   1.038   6.594   0.234 -1.9064  0.3705 -0.1537
 3519TIP3    H232193   1.097   6.731   0.259 -3.6160  1.1153 -0.0986
 3520TIP3   OH232194   3.997   0.555   0.735  0.0901 -0.0928 -0.5923
 3520TIP3    H132195   3.946   0.621   0.781  0.7823 -0.4853  0.7775
 3520TIP3    H232196   4.086   0.563   0.771  0.1937 -1.7339 -0.4017
 3521TIP3   OH232197   3.357   5.752   0.971  0.3817  0.3178 -0.2423
 3521TIP3    H132198   3.415   5.678   0.957  0.9131  0.3579  1.5388
 3521TIP3    H232199   3.413   5.829   0.960 -0.2685  0.5583 -2.5856
 3522TIP3   OH232200   0.717   5.410   1.305 -0.4106 -0.2117 -0.1652
 3522TIP3    H132201   0.699   5.494   1.347 -1.1164 -0.5471  0.2319
 3522TIP3    H232202   0.794   5.376   1.350 -0.4450 -0.0201  0.0378
 3523TIP3   OH232203   1.570   4.367   7.460 -0.7962 -0.3318  0.2656
 3523TIP3    H132204   1.598   4.295   7.403 -0.3040 -1.5757  1.9971
 3523TIP3    H232205   1.475   4.363   7.459 -0.8606  0.5749 -1.5318
 3524TIP3   OH232206   0.951   3.902   8.312  0.3827 -0.4608  0.1389
 3524TIP3    H132207   0.931   3.980   8.260  0.1766  0.5366  1.6456
 3524TIP3    H232208   0.945   3.932   8.403 -0.2049 -2.3562  0.7678
 3525TIP3   OH232209   1.047   3.025   7.673 -0.0716  0.4155  0.0621
 3525TIP3    H132210   0.958   3.052   7.694 -1.2267 -2.0308 -1.2609
 3525TIP3    H232211   1.053   3.036   7.578  0.5360 -0.7179 -0.0425
 3526TIP3   OH232212   5.935   2.528   1.302  0.0650 -0.5541 -0.1580
 3526TIP3    H132213   5.911   2.435   1.295 -1.2104 -0.3694  1.1150
 3526TIP3    H232214   5.851   2.573   1.305  0.6288  0.4523  1.3719
 3527TIP3   OH232215   1.699   3.156   7.956  0.1361 -0.3740  0.4816
 3527TIP3    H132216   1.624   3.215   7.961  1.0020  0.6882  1.6601
 3527TIP3    H232217   1.732   3.167   7.867 -0.7899 -0.4664  0.1122
 3528TIP3   OH232218   2.696   1.623   7.666  0.8387 -0.4093  0.5435
 3528TIP3    H132219   2.662   1.533   7.673  3.6008 -1.4334  2.3931
 3528TIP3    H232220   2.647   1.673   7.731  1.9987 -1.6147  2.4477
 3529TIP3   OH232221   1.373   4.096   0.923 -0.1879  0.8213  0.4983
 3529TIP3    H132222   1.308   4.116   0.990  0.5875  1.8194  0.9793
 3529TIP3    H232223   1.446   4.155   0.942  1.9950 -1.9935  1.5666
 3530TIP3   OH232224   5.318   3.266   7.198 -0.5035 -0.1743  0.0781
 3530TIP3    H132225   5.231   3.280   7.161  0.5811  1.1928 -2.1360
 3530TIP3    H232226   5.376   3.261   7.123  1.5612  0.4068  1.5335
 3531TIP3   OH232227   3.723   3.557   8.338 -0.5589  0.5252  0.0773
 3531TIP3    H132228   3.769   3.608   8.404  0.4218  1.0515 -0.9815
 3531TIP3    H232229   3.723   3.468   8.372 -0.1199  0.8015  0.8162
 3532TIP3   OH232230   3.588   3.666   6.422  0.0727 -0.0142  0.5304
 3532TIP3    H132231   3.595   3.682   6.516  2.8933 -1.5539  0.7073
 3532TIP3    H232232   3.527   3.592   6.415  0.1891 -0.1805  1.1906
 3533TIP3   OH232233   0.867   6.549   0.627 -0.3200 -0.4212  0.3865
 3533TIP3    H132234   0.802   6.511   0.568 -0.1860  0.3437 -0.2681
 3533TIP3    H232235   0.896   6.629   0.583  2.8887 -1.9355 -0.5076
 3534TIP3   OH232236   5.898   4.825   2.069  0.5277  0.0708 -0.4097
 3534TIP3    H132237   5.962   4.770   2.023  2.5464  1.8500  0.1367
 3534TIP3    H232238   5.892   4.786   2.157  0.8605 -0.0970 -0.4596
 3535TIP3   OH232239   4.127   5.637   1.057  0.0332  0.0904  0.3605
 3535TIP3    H132240   4.209   5.598   1.027  1.6834  3.3962  0.0790
 3535TIP3    H232241   4.139   5.648   1.151 -1.1311 -1.4958  0.7374
 3536TIP3   OH232242   5.621   5.160   7.770 -0.0256 -0.5774  0.1051
 3536TIP3    H132243   5.532   5.161   7.737  0.5254 -1.7001 -1.5086
 3536TIP3    H232244   5.618   5.099   7.844 -0.3350 -1.7440 -0.8313
 3537TIP3   OH232245   2.954   0.245   0.100  0.4663  0.2828  0.0559
 3537TIP3    H132246   3.019   0.309   0.131  0.2503  0.7050 -0.3556
 3537TIP3    H232247   2.909   0.218   0.180 -0.3559  1.6659  0.1003
 3538TIP3   OH232248   3.895   3.508   0.400  0.1196  0.3540  0.0912
 3538TIP3    H132249   3.856   3.580   0.349  0.5616  0.7262  0.2770
 3538TIP3    H232250   3.854   3.430   0.365 -1.0111  0.7579  0.4595
 3539TIP3   OH232251   1.631   6.204   6.628 -0.6296  0.1399  0.3043
 3539TIP3    H132252   1.563   6.140   6.647 -2.0794  0.5780 -2.8798
 3539TIP3    H232253   1.701   6.153   6.585 -2.2576  0.6304 -3.2714
 3540TIP3   OH232254   0.775   6.216   0.317  0.4636  0.3514 -0.1224
 3540TIP3    H132255   0.809   6.239   0.403  0.8581  2.7258 -0.8307
 3540TIP3    H232256   0.687   6.181   0.334  1.1576 -0.8038  1.3256
 3541TIP3   OH232257   0.839   5.304   8.754  0.0725  0.4907 -0.2871
 3541TIP3    H132258   0.851   5.399   8.749  0.3913  0.5215  0.7967
 3541TIP3    H232259   0.746   5.291   8.738 -0.3699  1.1798  1.4923
 3542TIP3   OH232260   2.161   2.219   7.861 -0.0211 -0.4510 -0.1201
 3542TIP3    H132261   2.201   2.306   7.858 -0.1651 -0.3949 -0.5181
 3542TIP3    H232262   2.211   2.168   7.797  1.4036 -1.2513  1.5405
 3543TIP3   OH232263   5.319   5.725   2.069  0.0731  0.3471 -0.8687
 3543TIP3    H132264   5.262   5.762   2.003 -1.0295 -0.4880 -0.4295
 3543TIP3    H232265   5.295   5.770   2.150 -0.1450 -0.1610 -0.6406
 3544TIP3   OH232266   3.178   4.710   1.222 -1.1100 -0.3274 -0.3681
 3544TIP3    H132267   3.234   4.746   1.290 -0.3379 -0.3182 -0.9894
 3544TIP3    H232268   3.094   4.695   1.265 -0.8113  0.2249  0.4290
 3545TIP3   OH232269   3.454   1.378   8.489 -0.1940  0.0294  0.2548
 3545TIP3    H132270   3.487   1.466   8.512  0.0001  0.2934 -0.9742
 3545TIP3    H232271   3.485   1.322   8.560  0.9687  0.6982  0.3085
 3546TIP3   OH232272   0.395   4.322   1.116  0.1761 -0.2773  0.0968
 3546TIP3    H132273   0.338   4.397   1.099  1.0461  0.3795 -0.0151
 3546TIP3    H232274   0.392   4.271   1.035  0.8544  0.5146 -0.4481
 3547TIP3   OH232275   1.157   0.372   1.733 -0.4533  0.2895 -0.0855
 3547TIP3    H132276   1.233   0.413   1.692  0.4850 -0.0654  1.2062
 3547TIP3    H232277   1.082   0.418   1.697  0.4140  1.1132 -0.8988
 3548TIP3   OH232278   5.079   5.746   6.468 -0.0646  0.2789 -0.7088
 3548TIP3    H132279   5.074   5.785   6.555 -1.2675 -0.2334 -0.5214
 3548TIP3    H232280   4.990   5.714   6.452  0.3739 -0.4496 -1.7431
 3549TIP3   OH232281   1.617   1.053   2.531  0.2770 -0.1371  0.1799
 3549TIP3    H132282   1.538   1.083   2.485  0.9731  0.9899 -0.3305
 3549TIP3    H232283   1.632   1.120   2.599  0.4959 -0.6268  0.6187
 3550TIP3   OH232284   5.508   6.198   7.164  0.2216  0.1205 -0.0634
 3550TIP3    H132285   5.439   6.153   7.115 -0.7914  0.0471  1.3682
 3550TIP3    H232286   5.546   6.130   7.220  0.0655  0.5832  0.6229
 3551TIP3   OH232287   4.155   5.973   0.435  0.1401 -0.2826  0.7903
 3551TIP3    H132288   4.192   6.061   0.438  1.6331 -0.8348 -0.4141
 3551TIP3    H232289   4.061   5.986   0.449  0.3449  1.4775  0.7249
 3552TIP3   OH232290   4.984   4.578   7.381  0.3362  0.2376 -0.3985
 3552TIP3    H132291   5.005   4.593   7.289 -0.4187  1.2708 -0.4085
 3552TIP3    H232292   4.891   4.599   7.389  0.3273 -0.1098  0.5490
 3553TIP3   OH232293   6.248   3.953   6.799  0.7161 -0.1828  0.7229
 3553TIP3    H132294   6.222   3.930   6.710  0.4611  0.1398  0.7115
 3553TIP3    H232295   6.188   3.904   6.855 -1.2736  1.9969  0.6921
 3554TIP3   OH232296   4.750   5.712   8.161  0.2215  0.6811  0.0861
 3554TIP3    H132297   4.708   5.775   8.103  1.0459  0.3996 -0.8404
 3554TIP3    H232298   4.812   5.764   8.213  0.0118  0.8167  0.2031
 3555TIP3   OH232299   0.192   5.133   0.879 -0.1144 -0.0733 -0.4558
 3555TIP3    H132300   0.155   5.150   0.965  0.5834 -0.6975 -0.0244
 3555TIP3    H232301   0.192   5.218   0.835 -1.6226  0.0317 -0.3108
 3556TIP3   OH232302   6.254   3.515   1.130  0.4765 -0.1362  0.1299
 3556TIP3    H132303   6.258   3.512   1.034 -0.5985 -1.0955  0.0900
 3556TIP3    H232304   6.262   3.424   1.158  5.3236  0.4046  1.2862
 3557TIP3   OH232305   3.968   3.433   2.218 -0.0764 -0.5565  0.4734
 3557TIP3    H132306   3.880   3.447   2.254 -0.5064 -0.2195 -0.6360
 3557TIP3    H232307   4.023   3.413   2.294 -1.0151 -0.3040  1.2397
 3558TIP3   OH232308   6.655   5.432   6.347  0.8685  0.0263  0.6945
 3558TIP3    H132309   6.677   5.339   6.341  1.7951  0.2194  0.9005
 3558TIP3    H232310   6.613   5.442   6.432 -0.6316 -0.4611  0.0359
 3559TIP3   OH232311   4.049   4.313   1.043  0.5945  0.1472  0.1702
 3559TIP3    H132312   4.093   4.356   0.970  0.2029 -0.3438 -0.3629
 3559TIP3    H232313   4.076   4.363   1.120 -1.0810  2.3820 -0.5748
 3560TIP3   OH232314   1.859   4.322   7.103  0.5180 -0.6577  0.3702
 3560TIP3    H132315   1.946   4.288   7.124  1.5069  0.4891 -1.6403
 3560TIP3    H232316   1.863   4.415   7.126 -0.1843 -0.5875  0.2376
 3561TIP3   OH232317   2.593   3.965   7.268  0.0457  0.0351  0.1207
 3561TIP3    H132318   2.601   4.054   7.233 -1.3195 -0.3424 -1.2534
 3561TIP3    H232319   2.577   3.910   7.191 -0.3190 -1.2405  1.0756
 3562TIP3   OH232320   2.216   4.147   2.189 -0.2029  0.2797 -0.1928
 3562TIP3    H132321   2.263   4.173   2.110  1.0961 -0.5192  0.2738
 3562TIP3    H232322   2.280   4.158   2.259  1.0321 -4.9887 -0.0339
 3563TIP3   OH232323   5.462   5.991   2.390  0.2617  0.3979 -0.4462
 3563TIP3    H132324   5.424   6.033   2.313  1.3885 -0.0664 -1.2877
 3563TIP3    H232325   5.538   6.045   2.412  0.2211  0.2609  0.0541
 3564TIP3   OH232326   4.978   5.907   0.260 -0.3028 -0.5220  0.1660
 3564TIP3    H132327   4.948   5.833   0.207 -0.2685  0.1834 -0.8762
 3564TIP3    H232328   4.925   5.903   0.339 -0.7187 -1.3131 -0.1434
 3565TIP3   OH232329   6.776   4.142   7.305 -0.6524 -0.2007 -0.3777
 3565TIP3    H132330   6.790   4.234   7.327 -1.7364 -0.1669  0.2596
 3565TIP3    H232331   6.681   4.130   7.314 -0.8514 -0.8001 -2.7551
 3566TIP3   OH232332   6.362   4.477   8.739  0.0128  0.2291  0.2314
 3566TIP3    H132333   6.376   4.561   8.695  1.3089  0.1385  0.4254
 3566TIP3    H232334   6.416   4.482   8.818 -0.3569 -0.5551  0.5418
 3567TIP3   OH232335   1.387   4.857   7.496 -0.3408  0.0871 -0.0521
 3567TIP3    H132336   1.481   4.878   7.495 -0.3599  0.2067  0.4453
 3567TIP3    H232337   1.365   4.853   7.589 -0.9518  0.5850 -0.1764
 3568TIP3   OH232338   4.076   2.895   6.757  0.7847 -0.0333  0.0250
 3568TIP3    H132339   4.116   2.981   6.771 -0.1930  0.3060  0.7981
 3568TIP3    H232340   4.150   2.834   6.757  1.3515  0.6298  0.9941
 3569TIP3   OH232341   0.679   4.437   1.480  0.0163 -0.0498  0.1571
 3569TIP3    H132342   0.735   4.506   1.445 -1.4142  0.6236 -0.9074
 3569TIP3    H232343   0.648   4.389   1.403 -0.2470 -0.9142  0.7788
 3570TIP3   OH232344   6.404   0.356   0.209 -0.3994 -1.1133 -0.3652
 3570TIP3    H132345   6.490   0.385   0.179  0.4194 -1.0233  1.9251
 3570TIP3    H232346   6.410   0.260   0.212  0.5763 -1.0543  2.1996
 3571TIP3   OH232347   2.546   3.892   7.680  0.5800 -0.2249  0.0354
 3571TIP3    H132348   2.628   3.846   7.699  0.4897 -0.0505  0.9021
 3571TIP3    H232349   2.567   3.951   7.609  0.0150 -3.6363 -3.2732
 3572TIP3   OH232350   6.697   2.260   0.676  0.0954  0.1548 -0.3453
 3572TIP3    H132351   6.751   2.263   0.597  1.5384  0.9381  0.6254
 3572TIP3    H232352   6.616   2.303   0.650  0.5006  0.3010 -1.4351
 3573TIP3   OH232353   4.369   1.695   0.528  0.2958  0.0404  0.2031
 3573TIP3    H132354   4.319   1.685   0.609 -2.5134 -0.2225 -1.4303
 3573TIP3    H232355   4.399   1.607   0.507 -1.5019 -0.4602 -0.4688
 3574TIP3   OH232356   3.872   4.359   7.719 -0.0493  0.1512  0.5127
 3574TIP3    H132357   3.864   4.455   7.725 -0.2627  0.1598  0.1403
 3574TIP3    H232358   3.856   4.328   7.808 -0.8500  0.4089  0.4683
 3575TIP3   OH232359   4.079   5.355   7.424  0.2588 -0.4146 -0.0553
 3575TIP3    H132360   4.067   5.362   7.519  1.3126  2.4926 -0.0438
 3575TIP3    H232361   4.163   5.309   7.414 -0.5203 -1.9769  0.3386
 3576TIP3   OH232362   2.950   5.586   1.272 -0.6430 -0.1143  0.5231
 3576TIP3    H132363   3.035   5.584   1.228  0.0856 -0.8422  1.9238
 3576TIP3    H232364   2.904   5.660   1.232  0.9730  0.8336  0.3596
 3577TIP3   OH232365   2.837   0.271   0.380 -0.1520  0.2482 -0.4233
 3577TIP3    H132366   2.772   0.201   0.383 -0.9071  0.9334 -0.3604
 3577TIP3    H232367   2.893   0.256   0.455 -1.1102  0.4591  0.3521
 3578TIP3   OH232368   3.257   1.822   0.052 -0.1459 -0.1396  0.0517
 3578TIP3    H132369   3.269   1.808  -0.042  2.5934  2.2598 -0.1015
 3578TIP3    H232370   3.345   1.815   0.088 -1.1146 -0.7978  2.4679
 3579TIP3   OH232371   3.020   6.101   7.742  0.5685  0.3356  0.1886
 3579TIP3    H132372   2.978   6.018   7.720  2.4194 -0.9128  1.0517
 3579TIP3    H232373   3.106   6.096   7.699  1.5963  0.7696  2.0715
 3580TIP3   OH232374   5.772   5.781   1.074 -0.6571 -0.7332 -0.5421
 3580TIP3    H132375   5.845   5.825   1.118 -2.4710  1.7166  0.2254
 3580TIP3    H232376   5.811   5.737   0.999  1.4891  1.1697 -0.6196
 3581TIP3   OH232377   1.571   4.405   1.484 -0.0731  0.0816 -0.0684
 3581TIP3    H132378   1.484   4.445   1.487 -0.8035 -1.4814  0.2898
 3581TIP3    H232379   1.586   4.388   1.391 -0.5179 -0.4133 -0.0523
 3582TIP3   OH232380   5.638   5.506   1.890 -0.0477  0.2082  0.0224
 3582TIP3    H132381   5.617   5.570   1.959  0.2911 -0.5803  0.8733
 3582TIP3    H232382   5.719   5.538   1.851 -0.8037  1.2466 -0.7665
 3583TIP3   OH232383   4.144   6.104   1.937 -0.3439  0.0798 -0.1761
 3583TIP3    H132384   4.091   6.025   1.952  0.1385 -0.1089  0.6061
 3583TIP3    H232385   4.120   6.163   2.009 -0.9187  0.7767 -0.9241
 3584TIP3   OH232386   1.302   6.216   0.997 -0.3773  0.2732  0.1655
 3584TIP3    H132387   1.218   6.249   1.029 -1.6608 -1.0439 -1.6453
 3584TIP3    H232388   1.289   6.207   0.902  1.3664 -1.1843  0.0250
 3585TIP3   OH232389   5.327   1.645   1.242  0.4141  0.0051  0.1366
 3585TIP3    H132390   5.380   1.580   1.197  1.0212  0.8732 -0.4345
 3585TIP3    H232391   5.330   1.722   1.186 -0.1599  0.5825  0.8729
 3586TIP3   OH232392   1.424   5.330   6.831 -0.0989  0.2336 -0.3199
 3586TIP3    H132393   1.454   5.420   6.842 -1.2079  0.7703 -1.4366
 3586TIP3    H232394   1.328   5.336   6.830 -0.2171 -1.0646  0.3564
 3587TIP3   OH232395   5.635   2.701   7.329 -0.1774 -0.0480  0.1463
 3587TIP3    H132396   5.603   2.672   7.414  1.0041  0.5509  0.8167
 3587TIP3    H232397   5.603   2.791   7.321 -1.3447 -0.4968 -0.6305
 3588TIP3   OH232398   1.332   5.394   7.237 -0.1217  0.1603  0.0020
 3588TIP3    H132399   1.389   5.470   7.250  0.9742 -0.8177  1.0952
 3588TIP3    H232400   1.360   5.331   7.303 -0.3707 -1.5769 -1.4767
 3589TIP3   OH232401   3.691   5.052   0.636  0.2514  0.1102  0.1488
 3589TIP3    H132402   3.738   5.005   0.705  1.0367 -0.8935 -1.0281
 3589TIP3    H232403   3.728   5.018   0.555  0.0794  2.0088 -0.7640
 3590TIP3   OH232404   2.497   0.986   7.196  0.6535 -0.0332 -0.0063
 3590TIP3    H132405   2.546   1.057   7.239  0.2200  0.9777 -1.1273
 3590TIP3    H232406   2.565   0.928   7.162  1.0147 -0.2649  1.0637
 3591TIP3   OH232407   6.676   2.247   7.486 -0.2122 -0.8948 -0.3334
 3591TIP3    H132408   6.588   2.218   7.512  1.1645 -2.9420  2.5905
 3591TIP3    H232409   6.689   2.330   7.532 -0.3998 -0.8668 -0.3295
 3592TIP3   OH232410   4.290   2.003   0.137  0.1423  0.3940  0.6776
 3592TIP3    H132411   4.212   2.058   0.143 -0.3620 -0.3212  0.7615
 3592TIP3    H232412   4.263   1.930   0.082  0.5574 -0.2063  1.2671
 3593TIP3   OH232413   6.156   3.155   7.625  0.2828 -0.3054  0.1683
 3593TIP3    H132414   6.111   3.091   7.680 -0.1377  0.0204  0.2097
 3593TIP3    H232415   6.119   3.142   7.538  0.3321 -0.2462  0.1388
 3594TIP3   OH232416   5.287   0.430   8.948  0.2363  0.4786  0.0252
 3594TIP3    H132417   5.258   0.475   9.028 -1.6934  0.6972 -0.7331
 3594TIP3    H232418   5.251   0.342   8.956  1.6269 -0.0902  0.2246
 3595TIP3   OH232419   4.931   0.359   8.947  0.2914 -0.5659  0.5493
 3595TIP3    H132420   4.845   0.323   8.971  0.1240  0.4401  1.5295
 3595TIP3    H232421   4.985   0.282   8.930 -0.4955 -1.2379  1.0183
 3596TIP3   OH232422   1.946   1.222   8.242  0.0702 -0.6362  0.3916
 3596TIP3    H132423   1.918   1.279   8.314  1.3203  0.0365  0.3685
 3596TIP3    H232424   1.864   1.189   8.205 -0.6141 -0.3061  1.5716
 3597TIP3   OH232425   0.831   2.020   7.349 -0.4561  0.4728 -0.2993
 3597TIP3    H132426   0.918   2.054   7.325 -0.4180  0.1566 -0.6096
 3597TIP3    H232427   0.775   2.045   7.275 -0.5120  0.1979 -0.3500
 3598TIP3   OH232428   4.200   1.737   7.997 -0.1967  0.4260  0.2265
 3598TIP3    H132429   4.108   1.719   7.979 -0.3696  0.8454  0.6656
 3598TIP3    H232430   4.247   1.665   7.954 -0.7574 -0.0835  0.4436
 3599TIP3   OH232431   3.784   3.626   8.066  0.2048 -0.2346  0.2428
 3599TIP3    H132432   3.772   3.586   8.152 -3.4736 -0.1149 -0.0427
 3599TIP3    H232433   3.774   3.720   8.081  0.2663 -0.1517 -0.2199
 3600TIP3   OH232434   0.435   2.652   0.403  0.2775  0.3952 -0.0412
 3600TIP3    H132435   0.495   2.579   0.417 -0.1356  0.1287  0.3304
 3600TIP3    H232436   0.390   2.631   0.322  0.9491  0.7773 -0.5232
 3601TIP3   OH232437   1.303   5.655   1.157  0.2236 -0.2407  0.5103
 3601TIP3    H132438   1.376   5.640   1.097  0.2384  4.5487 -1.0939
 3601TIP3    H232439   1.345   5.680   1.240  0.2553 -1.5065  0.9015
 3602TIP3   OH232440   1.094   4.601   1.812 -0.0251  0.2589 -0.1089
 3602TIP3    H132441   1.151   4.676   1.794  1.0888 -0.7347 -0.8403
 3602TIP3    H232442   1.138   4.554   1.883  0.5933 -1.0193 -1.2971
 3603TIP3   OH232443   2.117   0.673   8.886 -0.1075 -0.1134  0.3550
 3603TIP3    H132444   2.126   0.749   8.944 -1.6518  0.7657 -0.5136
 3603TIP3    H232445   2.094   0.601   8.944 -0.2534  0.4422  0.9971
 3604TIP3   OH232446   3.248   1.857   7.700 -0.5898  0.2126 -1.0611
 3604TIP3    H132447   3.248   1.813   7.615  0.5613 -0.4009 -0.7623
 3604TIP3    H232448   3.230   1.949   7.680 -0.8997 -0.0302 -1.9053
 3605TIP3   OH232449   1.830   3.694   6.864 -0.1693 -0.1763  0.2826
 3605TIP3    H132450   1.741   3.719   6.836 -0.0804  0.0558  0.2035
 3605TIP3    H232451   1.887   3.760   6.824  0.1164 -0.7675 -0.3075
 3606TIP3   OH232452   3.746   3.967   7.801 -0.4667  0.0103  0.6895
 3606TIP3    H132453   3.812   3.906   7.833 -0.3268  0.0205  0.4229
 3606TIP3    H232454   3.670   3.952   7.857 -0.4792 -0.5049  0.5378
 3607TIP3   OH232455   4.395   5.623   2.332  0.0881  0.1563 -0.4111
 3607TIP3    H132456   4.481   5.609   2.293  0.2477 -0.3815  0.1235
 3607TIP3    H232457   4.399   5.713   2.365  0.8860 -0.2433  0.6644
 3608TIP3   OH232458   6.747   2.096   6.992  0.0399  0.0002 -0.0436
 3608TIP3    H132459   6.807   2.141   6.933 -1.5867  2.1097 -0.1992
 3608TIP3    H232460   6.771   2.126   7.079 -0.4094  0.4208 -0.0585
 3609TIP3   OH232461   3.626   5.483   1.491 -0.0236  0.3914  0.0342
 3609TIP3    H132462   3.698   5.539   1.464 -0.2835  0.8368  0.2550
 3609TIP3    H232463   3.555   5.505   1.431 -0.0816  0.1896  0.0265
 3610TIP3   OH232464   1.182   0.509   8.601 -0.0899 -0.3385  0.2594
 3610TIP3    H132465   1.211   0.583   8.653 -0.1440 -1.6705  2.2945
 3610TIP3    H232466   1.258   0.451   8.596 -0.0151 -0.1496 -1.3864
 3611TIP3   OH232467   1.689   0.520   7.421  0.2950 -0.0127 -0.5842
 3611TIP3    H132468   1.676   0.439   7.470  2.5207 -0.2736 -0.2926
 3611TIP3    H232469   1.601   0.547   7.395 -0.6638 -1.5432  0.8501
 3612TIP3   OH232470   5.218   3.505   1.590  0.1232 -0.2623  0.2405
 3612TIP3    H132471   5.258   3.581   1.633  1.6824 -1.3630  0.8392
 3612TIP3    H232472   5.252   3.430   1.639  0.0497 -1.4457 -1.4470
 3613TIP3   OH232473   3.271   0.671   1.301 -0.4018 -0.3648  0.3849
 3613TIP3    H132474   3.296   0.628   1.219  2.3961 -0.7407  1.3341
 3613TIP3    H232475   3.300   0.761   1.290  0.0222 -0.4275  0.9484
 3614TIP3   OH232476   3.863   2.965   8.516  0.7012 -0.2471  0.2952
 3614TIP3    H132477   3.898   3.049   8.488  5.1328 -1.0739  2.5030
 3614TIP3    H232478   3.820   2.984   8.599 -1.0113  0.1818 -0.6351
 3615TIP3   OH232479   6.575   5.243   7.900  0.0452  0.7916 -0.0759
 3615TIP3    H132480   6.551   5.205   7.815 -3.2305 -0.7321  1.3357
 3615TIP3    H232481   6.669   5.226   7.908 -0.1151 -1.8139 -2.1085
 3616TIP3   OH232482   4.805   5.011   8.895 -0.5095  0.9843  0.1688
 3616TIP3    H132483   4.843   4.925   8.876 -0.4082  0.5782  2.0763
 3616TIP3    H232484   4.874   5.073   8.874  0.0938  0.4648  0.5913
 3617TIP3   OH232485   3.542   6.758   1.435  0.6694  0.1782 -0.0925
 3617TIP3    H132486   3.483   6.726   1.502 -0.9610  0.5386 -1.3040
 3617TIP3    H232487   3.617   6.698   1.439  0.3062 -0.2065  1.5610
 3618TIP3   OH232488   5.418   4.680   8.433 -0.1879 -0.2601  0.0497
 3618TIP3    H132489   5.357   4.692   8.505 -1.3084 -0.8361 -0.7808
 3618TIP3    H232490   5.386   4.739   8.364  1.1382  0.6384  0.1508
 3619TIP3   OH232491   4.446   0.977   2.275  0.1768  0.0437 -0.0024
 3619TIP3    H132492   4.407   0.973   2.188 -2.5181  1.8280  0.9961
 3619TIP3    H232493   4.416   0.898   2.319 -1.9167  1.0428  0.5090
 3620TIP3   OH232494   1.235   0.431   7.771 -0.2116 -0.2830 -0.1706
 3620TIP3    H132495   1.322   0.412   7.736 -0.2562  0.5849 -0.7786
 3620TIP3    H232496   1.247   0.437   7.866  0.2950 -0.6323 -0.2098
 3621TIP3   OH232497   4.874   4.400   2.298 -0.1744 -0.4109 -0.1741
 3621TIP3    H132498   4.947   4.338   2.306 -0.2451 -0.6534 -1.1883
 3621TIP3    H232499   4.806   4.365   2.354  0.2778 -0.5102  0.3195
 3622TIP3   OH232500   0.131   2.545   1.215 -0.4824 -0.4740 -0.2902
 3622TIP3    H132501   0.075   2.525   1.290 -0.2439  0.2834  0.0981
 3622TIP3    H232502   0.219   2.556   1.252 -0.3363 -0.2465 -0.6940
 3623TIP3   OH232503   3.378   6.244   0.950  0.1770  0.2232  0.0997
 3623TIP3    H132504   3.319   6.169   0.960 -1.7043  1.2202 -2.3775
 3623TIP3    H232505   3.466   6.207   0.948 -0.4235 -1.5065  2.2801
 3624TIP3   OH232506   4.225   4.794   6.917 -0.0237  0.2696 -0.1226
 3624TIP3    H132507   4.262   4.850   6.849  1.4387 -0.9917 -0.4255
 3624TIP3    H232508   4.132   4.814   6.916  0.4199  2.7104 -0.1702
 3625TIP3   OH232509   5.953   1.888   8.802  0.2250 -0.2105 -0.1121
 3625TIP3    H132510   5.873   1.839   8.784  0.2150 -1.2014  2.2790
 3625TIP3    H232511   6.024   1.828   8.780  0.2448 -0.5527  0.8620
 3626TIP3   OH232512   5.627   1.444   6.777 -0.4799 -0.3109 -0.3685
 3626TIP3    H132513   5.715   1.478   6.792 -0.8455  0.9421 -0.9172
 3626TIP3    H232514   5.603   1.477   6.691 -3.2209  3.3709  1.5283
 3627TIP3   OH232515   2.302   4.573   0.896  0.5558  0.3713 -0.1819
 3627TIP3    H132516   2.382   4.521   0.886  1.8399  2.1923  0.2054
 3627TIP3    H232517   2.331   4.654   0.937 -1.7293  0.4823  1.4358
 3628TIP3   OH232518   1.254   5.471   7.519  0.0338  0.1190 -0.2908
 3628TIP3    H132519   1.229   5.561   7.539 -2.5116 -1.1279  3.2292
 3628TIP3    H232520   1.210   5.451   7.436 -2.7474  1.0398  0.8357
 3629TIP3   OH232521   2.864   2.776   2.151 -0.0164  0.2469  0.0681
 3629TIP3    H132522   2.787   2.730   2.185 -0.7445  1.0364 -0.4844
 3629TIP3    H232523   2.884   2.842   2.217 -1.3950  1.7407 -0.9123
 3630TIP3   OH232524   0.193   4.550   2.589  0.3766  0.5214 -0.4983
 3630TIP3    H132525   0.158   4.636   2.612 -0.4617  0.2483 -0.7412
 3630TIP3    H232526   0.273   4.570   2.540  1.5039  1.1257  1.4645
 3631TIP3   OH232527   3.595   3.808   0.600  0.2486  0.5243  0.0431
 3631TIP3    H132528   3.601   3.885   0.657 -1.1302  1.6679 -1.2937
 3631TIP3    H232529   3.503   3.781   0.604  0.1725  0.4830 -1.4458
 3632TIP3   OH232530   3.653   5.945   0.029 -0.0527  0.0572 -0.2486
 3632TIP3    H132531   3.637   5.854   0.054  2.3400  0.0203  1.4639
 3632TIP3    H232532   3.701   5.940  -0.053  0.8158 -0.2991  0.2665
 3633TIP3   OH232533   3.350   2.938   7.553 -0.4465  0.0217  0.6395
 3633TIP3    H132534   3.265   2.911   7.587 -2.0745  2.2345 -1.3552
 3633TIP3    H232535   3.366   2.878   7.480 -0.1516 -0.5628  1.1788
 3634TIP3   OH232536   6.723   2.196   8.378  0.2617  0.3445  0.3864
 3634TIP3    H132537   6.815   2.186   8.351  0.2056  0.5591  0.1113
 3634TIP3    H232538   6.674   2.191   8.296 -0.0438 -0.5977  0.6088
 3635TIP3   OH232539   5.877   3.982   8.597 -0.7492 -0.1040  0.3522
 3635TIP3    H132540   5.827   4.063   8.609  0.5731  0.5654  1.5985
 3635TIP3    H232541   5.907   3.959   8.684  0.2685 -1.0561 -0.2196
 3636TIP3   OH232542   0.950   1.700   8.575 -0.5925  0.2435 -0.2958
 3636TIP3    H132543   0.941   1.792   8.551  1.2533  0.8200  1.0306
 3636TIP3    H232544   1.003   1.663   8.504  0.1539  0.6321  0.0492
 3637TIP3   OH232545   5.924   2.543   8.047  0.8534  0.2844 -0.7282
 3637TIP3    H132546   5.984   2.618   8.036  0.5772  0.6341  0.0336
 3637TIP3    H232547   5.973   2.482   8.103  0.4909  0.5985 -0.0515
 3638TIP3   OH232548   3.023   5.077   1.060  0.3801  0.5105 -0.8090
 3638TIP3    H132549   2.978   5.083   1.144 -3.3309 -0.5945 -2.5219
 3638TIP3    H232550   3.027   5.167   1.027  0.8528  0.8023  0.0230
 3639TIP3   OH232551   4.255   3.738   7.181 -0.1866  0.0835  0.2752
 3639TIP3    H132552   4.183   3.793   7.211 -0.5702 -0.6304  0.6963
 3639TIP3    H232553   4.306   3.721   7.261 -0.0216 -0.0919  0.1339
 3640TIP3   OH232554   3.746   0.668   0.020  0.4678  0.1655 -0.4476
 3640TIP3    H132555   3.692   0.662  -0.060  1.9289  0.7139 -1.5200
 3640TIP3    H232556   3.726   0.588   0.068 -1.2269  0.3125 -0.8346
 3641TIP3   OH232557   1.650   6.623   1.065  0.4461  1.1823 -0.3329
 3641TIP3    H132558   1.662   6.697   1.124  1.3491 -0.6644  1.9573
 3641TIP3    H232559   1.681   6.547   1.115 -0.4039 -0.7552 -2.5640
 3642TIP3   OH232560   4.571   6.421   0.458  0.2656  0.2913 -0.3859
 3642TIP3    H132561   4.584   6.359   0.530 -1.3295  0.2463 -0.0857
 3642TIP3    H232562   4.553   6.504   0.501 -0.5360  0.3025 -0.7213
 3643TIP3   OH232563   2.359   4.809   8.970  0.7402  0.6153  0.4719
 3643TIP3    H132564   2.286   4.830   8.911 -1.2918  1.3286  3.0104
 3643TIP3    H232565   2.395   4.895   8.994  1.7297  0.3199  0.0930
 3644TIP3   OH232566   6.242   3.279   6.813  0.2245 -0.1859 -0.0361
 3644TIP3    H132567   6.217   3.187   6.803  0.8995 -0.2543 -1.2274
 3644TIP3    H232568   6.254   3.290   6.907  0.0165 -1.2835  0.1359
 3645TIP3   OH232569   1.511   0.268   0.534 -0.4305  0.0146 -0.0642
 3645TIP3    H132570   1.475   0.228   0.612 -0.3364 -1.3353 -0.6756
 3645TIP3    H232571   1.437   0.312   0.492 -0.1496  2.3352  1.6448
 3646TIP3   OH232572   3.344   6.048   1.668 -0.6902 -0.0118  0.3749
 3646TIP3    H132573   3.290   5.997   1.730 -3.4672 -0.1714 -1.9547
 3646TIP3    H232574   3.300   6.036   1.584  2.0238  1.4648 -1.3686
 3647TIP3   OH232575   0.287   1.856   1.245 -0.3294  0.2854  0.4911
 3647TIP3    H132576   0.250   1.940   1.272  0.3913  0.4840  0.8761
 3647TIP3    H232577   0.276   1.855   1.150  0.5547  1.2724  0.3522
 3648TIP3   OH232578   2.996   2.788   0.739 -0.0804 -0.2564 -0.1030
 3648TIP3    H132579   3.001   2.860   0.802  0.0244 -0.7115  0.4118
 3648TIP3    H232580   3.020   2.710   0.789  1.1884 -0.4631 -1.0008
 3649TIP3   OH232581   6.206   1.515   1.987  0.0053  0.0363  0.1115
 3649TIP3    H132582   6.300   1.501   2.000 -0.4346 -1.6081  2.0384
 3649TIP3    H232583   6.176   1.551   2.071 -0.9520  1.5088 -0.8187
 3650TIP3   OH232584   2.608   1.333   7.751  0.2829  0.1442  0.2559
 3650TIP3    H132585   2.571   1.245   7.753  1.3823 -0.3219  1.2349
 3650TIP3    H232586   2.567   1.377   7.825  0.6191  0.0826  0.4772
 3651TIP3   OH232587   3.164   1.950   6.474  0.4539 -0.1253 -0.8681
 3651TIP3    H132588   3.126   2.030   6.436  0.9227  0.1268 -0.8116
 3651TIP3    H232589   3.119   1.879   6.430  0.8726  0.1602 -1.7761
 3652TIP3   OH232590   0.436   1.971   7.731 -0.0995  0.2175 -0.7652
 3652TIP3    H132591   0.421   1.911   7.657  2.3371 -1.4946 -0.0020
 3652TIP3    H232592   0.348   1.997   7.758 -1.1857 -1.4159 -2.4350
 3653TIP3   OH232593   6.241   6.563   7.237 -0.2261 -0.0395 -0.6106
 3653TIP3    H132594   6.189   6.522   7.306  0.2410  1.2372  0.5319
 3653TIP3    H232595   6.213   6.518   7.157 -0.3920 -1.9389  0.4421
 3654TIP3   OH232596   0.253   4.122   0.029 -0.0640  0.5901 -0.7630
 3654TIP3    H132597   0.217   4.069  -0.041  1.2102  0.4285 -1.3293
 3654TIP3    H232598   0.348   4.109   0.023  0.1613  1.6049  0.1541
 3655TIP3   OH232599   0.784   6.561   8.772 -0.0735 -0.2247 -0.3132
 3655TIP3    H132600   0.870   6.529   8.798 -0.0165  0.1915  0.0123
 3655TIP3    H232601   0.795   6.582   8.679  0.0138 -0.7044 -0.4192
 3656TIP3   OH232602   2.247   3.190   8.225  0.5029 -0.2453 -0.3912
 3656TIP3    H132603   2.335   3.154   8.237  1.2463  1.6748  0.3453
 3656TIP3    H232604   2.190   3.129   8.271  1.8245 -0.0637  1.6485
 3657TIP3   OH232605   4.408   0.873   7.730  0.6107 -0.3089  0.5664
 3657TIP3    H132606   4.477   0.921   7.775 -0.4231  0.4546  1.3817
 3657TIP3    H232607   4.395   0.920   7.648  1.0890 -0.4951  0.3783
 3658TIP3   OH232608   4.056   3.370   8.556 -0.5057  0.1328  0.1746
 3658TIP3    H132609   4.054   3.318   8.476 -0.5292 -0.4121  0.5177
 3658TIP3    H232610   4.044   3.460   8.527  0.3879  0.0415 -0.5179
 3659TIP3   OH232611   2.361   0.139   0.662 -0.2177 -0.1629  0.0481
 3659TIP3    H132612   2.312   0.191   0.725  0.4630  1.2778 -0.5580
 3659TIP3    H232613   2.453   0.157   0.683  0.0464 -1.5740  0.1698
 3660TIP3   OH232614   4.857   5.334   0.068 -0.1153  0.8690 -0.2466
 3660TIP3    H132615   4.861   5.238   0.061  0.5361  0.7475  1.2000
 3660TIP3    H232616   4.792   5.361   0.004 -1.6598 -0.7185  0.5595
 3661TIP3   OH232617   5.396   3.266   2.253  0.3621 -0.2435 -0.1811
 3661TIP3    H132618   5.426   3.351   2.288 -0.4253 -0.1174  0.2178
 3661TIP3    H232619   5.477   3.220   2.231  0.9398 -0.3405  1.8628
 3662TIP3   OH232620   2.825   3.474   0.889  0.0067  0.1338 -0.1060
 3662TIP3    H132621   2.857   3.558   0.855  1.6695 -0.1157  0.7566
 3662TIP3    H232622   2.807   3.422   0.810  2.8103 -0.0633 -0.7306
 3663TIP3   OH232623   5.680   1.110   7.447  0.5026  0.1545  0.3190
 3663TIP3    H132624   5.769   1.129   7.416  0.3351  1.6250  0.6715
 3663TIP3    H232625   5.690   1.032   7.501  1.4309 -0.1944 -0.3195
 3664TIP3   OH232626   5.014   5.662   0.730  0.2642 -0.2947  0.6365
 3664TIP3    H132627   5.025   5.591   0.793  2.9461 -1.8466 -1.3116
 3664TIP3    H232628   4.940   5.636   0.676 -0.9539  0.1948  2.0124
 3665TIP3   OH232629   1.119   2.778   2.582 -0.6804  0.4156 -0.1270
 3665TIP3    H132630   1.092   2.715   2.650 -1.9685 -0.5188 -1.4373
 3665TIP3    H232631   1.111   2.863   2.624  0.2855 -0.2188  1.4453
 3666TIP3   OH232632   3.463   3.388   2.178 -0.4424 -0.3585  0.5371
 3666TIP3    H132633   3.425   3.442   2.109  1.1493  0.9144  0.5785
 3666TIP3    H232634   3.444   3.298   2.152  0.1735  0.0758 -1.6298
 3667TIP3   OH232635   6.763   2.977   8.298  0.5065  0.0164  0.3718
 3667TIP3    H132636   6.804   3.062   8.280  1.4005 -0.5019 -0.1377
 3667TIP3    H232637   6.826   2.932   8.354  1.5114 -1.4522 -1.8101
 3668TIP3   OH232638   4.297   2.146   0.402 -0.9584  0.5122  0.5919
 3668TIP3    H132639   4.313   2.095   0.323  1.7000  0.6689  0.9214
 3668TIP3    H232640   4.277   2.082   0.469 -0.4661  0.1305  0.3800
 3669TIP3   OH232641   1.913   4.357   0.369  0.0652 -0.8744  0.2613
 3669TIP3    H132642   1.879   4.396   0.288  0.3332 -1.5612 -0.2003
 3669TIP3    H232643   1.991   4.409   0.389  0.7024 -1.4372 -0.6220
 3670TIP3   OH232644   0.652   5.049   2.489 -0.0456 -0.4267  0.4723
 3670TIP3    H132645   0.619   5.018   2.573  0.4802 -1.9390  0.1497
 3670TIP3    H232646   0.606   4.995   2.424 -0.4124  0.6888 -0.2279
 3671TIP3   OH232647   0.786   4.069   7.595 -0.0545 -0.2052 -0.5509
 3671TIP3    H132648   0.759   4.029   7.513  0.0798  0.7125 -1.0564
 3671TIP3    H232649   0.872   4.029   7.614 -0.8945 -1.7930  0.1386
 3672TIP3   OH232650   5.737   6.409   0.268 -0.1867  0.1780  0.2147
 3672TIP3    H132651   5.780   6.324   0.260  0.9969  0.8074 -0.4501
 3672TIP3    H232652   5.695   6.407   0.354  2.1423 -0.0655  1.4151
 3673TIP3   OH232653   1.903   3.828   1.219 -0.1137  0.2181  0.2579
 3673TIP3    H132654   1.835   3.771   1.183  0.5617  0.4623 -1.4953
 3673TIP3    H232655   1.951   3.773   1.280  0.1835 -0.9583 -0.9955
 3674TIP3   OH232656   1.185   1.810   6.365 -0.1612  0.0326 -0.5054
 3674TIP3    H132657   1.211   1.723   6.393 -0.6121  0.2838  0.7491
 3674TIP3    H232658   1.237   1.870   6.418 -0.7560  0.5241 -0.4652
 3675TIP3   OH232659   0.959   4.240   7.436 -0.0947 -0.3344 -0.5071
 3675TIP3    H132660   0.997   4.223   7.350 -0.0441 -0.3044 -0.4909
 3675TIP3    H232661   1.029   4.283   7.486 -0.8829  1.9645 -1.2496
 3676TIP3   OH232662   4.395   1.438   0.074  0.0218  0.1856  0.7338
 3676TIP3    H132663   4.407   1.512   0.133 -0.0166  0.9107 -0.1362
 3676TIP3    H232664   4.341   1.376   0.123 -1.3641  1.4678  0.8965
 3677TIP3   OH232665   2.287   5.101   8.369  0.5001 -0.0352  0.0649
 3677TIP3    H132666   2.251   5.184   8.338 -0.2523 -0.6561 -0.7532
 3677TIP3    H232667   2.334   5.065   8.294  1.9494  0.2472  0.7996
 3678TIP3   OH232668   6.510   4.418   0.902 -0.1867 -0.1744 -0.6392
 3678TIP3    H132669   6.545   4.350   0.844 -1.3040 -1.8907  0.5879
 3678TIP3    H232670   6.416   4.415   0.887 -0.1929  1.9918 -1.4045
 3679TIP3   OH232671   3.885   1.005   7.105  0.5494  0.3116  0.4721
 3679TIP3    H132672   3.830   0.936   7.068  0.7100 -0.7890  2.1464
 3679TIP3    H232673   3.849   1.086   7.070 -0.9229 -0.4991 -0.0026
 3680TIP3   OH232674   0.228   2.362   7.304  0.0502 -0.4546 -0.1560
 3680TIP3    H132675   0.264   2.450   7.318  0.3719 -0.3735 -1.3563
 3680TIP3    H232676   0.278   2.327   7.230 -0.8951 -1.1703 -0.4784
 3681TIP3   OH232677   6.550   3.120   7.259 -0.1270  0.1465 -0.1310
 3681TIP3    H132678   6.596   3.063   7.320  1.0236  0.5817 -0.5606
 3681TIP3    H232679   6.514   3.190   7.314 -0.6566 -0.4369  0.2644
 3682TIP3   OH232680   2.382   2.294   1.952 -0.2436  0.0668  0.3263
 3682TIP3    H132681   2.448   2.244   1.904  0.2232 -0.0584  1.0688
 3682TIP3    H232682   2.307   2.234   1.959  0.8848 -1.2271  2.6032
 3683TIP3   OH232683   4.107   3.186   7.654  0.1381 -0.0241  0.2579
 3683TIP3    H132684   4.013   3.175   7.641  0.2398  1.6717 -2.7741
 3683TIP3    H232685   4.120   3.281   7.657  1.9343 -0.1787 -1.3821
 3684TIP3   OH232686   4.900   4.830   7.679 -0.1156  0.4740 -0.4656
 3684TIP3    H132687   4.881   4.838   7.585  1.8721  0.1087 -0.9405
 3684TIP3    H232688   4.948   4.748   7.687  1.0207  1.2079  0.6391
 3685TIP3   OH232689   3.753   6.484   0.873 -0.3089 -0.5334  0.0632
 3685TIP3    H132690   3.760   6.389   0.862  0.1103 -0.9963  3.4401
 3685TIP3    H232691   3.830   6.509   0.923 -1.3514  1.2827  0.8684
 3686TIP3   OH232692   2.059   6.674   8.314 -0.2639 -0.2191  0.1539
 3686TIP3    H132693   2.109   6.652   8.392 -2.2366 -1.0503  1.2233
 3686TIP3    H232694   2.073   6.769   8.303  0.0645 -0.1020  1.4691
 3687TIP3   OH232695   3.290   5.373   0.059 -0.0711 -0.4045 -0.5772
 3687TIP3    H132696   3.337   5.408   0.134 -0.5402  0.1665 -0.5437
 3687TIP3    H232697   3.318   5.428  -0.015 -2.3666  1.5120 -0.1823
 3688TIP3   OH232698   3.977   4.568   1.164  0.3528 -0.0153 -0.2297
 3688TIP3    H132699   3.910   4.507   1.193  0.6941 -0.4718 -0.3896
 3688TIP3    H232700   4.043   4.566   1.233  0.0282  0.7248  0.1146
 3689TIP3   OH232701   2.505   5.781   8.165 -0.5892 -0.2147  0.2470
 3689TIP3    H132702   2.483   5.692   8.195 -2.1860  0.0379 -0.0951
 3689TIP3    H232703   2.509   5.774   8.070 -1.5143  0.2280  0.1642
 3690TIP3   OH232704   2.161   5.750   0.745 -0.0928  0.2326  0.3387
 3690TIP3    H132705   2.240   5.778   0.700 -1.2376  0.2541 -1.7995
 3690TIP3    H232706   2.121   5.832   0.776 -0.1942  0.4042 -0.2263
 3691TIP3   OH232707   4.258   3.163   1.653  0.1616  0.7175 -0.2322
 3691TIP3    H132708   4.305   3.111   1.719  1.0800  1.2496 -0.4476
 3691TIP3    H232709   4.321   3.230   1.626 -0.3448  0.7671 -1.3461
 3692TIP3   OH232710   3.699   1.547   6.334 -0.1322 -0.4357  0.2464
 3692TIP3    H132711   3.751   1.470   6.360 -0.7710 -0.8390  0.3457
 3692TIP3    H232712   3.613   1.532   6.372  0.1995  1.1670  1.7903
 3693TIP3   OH232713   5.670   3.615   1.283 -0.2315  0.4729 -0.8265
 3693TIP3    H132714   5.654   3.554   1.355 -0.5021  1.6462  0.1264
 3693TIP3    H232715   5.612   3.689   1.300 -1.6617  0.0299 -3.2356
 3694TIP3   OH232716   1.311   6.066   1.787  0.0212  0.0640  0.0472
 3694TIP3    H132717   1.253   5.992   1.771  0.3651 -0.6399  1.8178
 3694TIP3    H232718   1.392   6.027   1.819 -0.3574  1.2173  2.6900
 3695TIP3   OH232719   2.070   2.709   7.685  0.6379  0.2908  0.0620
 3695TIP3    H132720   2.142   2.755   7.728 -0.3810  2.4357 -0.3711
 3695TIP3    H232721   2.112   2.637   7.637  2.5510  1.6941 -0.4767
 3696TIP3   OH232722   0.579   1.757   0.430  0.2756  0.2390  0.1273
 3696TIP3    H132723   0.567   1.691   0.498  1.1101  0.9828  1.0316
 3696TIP3    H232724   0.564   1.711   0.348  1.4864 -1.2606  0.6955
 3697TIP3   OH232725   0.324   6.232   0.856 -0.2352 -0.5979  0.5577
 3697TIP3    H132726   0.370   6.151   0.832 -1.9843 -1.0624 -1.4724
 3697TIP3    H232727   0.317   6.281   0.775 -1.4132  0.4644  1.2648
 3698TIP3   OH232728   2.327   3.445   8.308  0.0365 -0.0709 -0.7798
 3698TIP3    H132729   2.317   3.352   8.288  1.5840 -1.0298  2.2797
 3698TIP3    H232730   2.412   3.468   8.270  0.8195 -0.6476  0.5374
 3699TIP3   OH232731   0.906   6.754   8.106  0.2915  0.2540 -0.4280
 3699TIP3    H132732   0.906   6.659   8.096 -1.4147  0.2235 -0.3760
 3699TIP3    H232733   0.915   6.787   8.016  0.7315  0.0527 -0.4612
 3700TIP3   OH232734   5.635   2.717   1.595 -0.0130  0.5122  0.5103
 3700TIP3    H132735   5.662   2.633   1.632  0.3901  0.3768 -0.0609
 3700TIP3    H232736   5.540   2.710   1.585  0.2720 -1.0034 -2.1186
 3701TIP3   OH232737   3.938   5.867   8.982  0.3095 -0.7890  0.5021
 3701TIP3    H132738   3.940   5.772   8.967  2.4146 -1.1757  2.6044
 3701TIP3    H232739   4.021   5.898   8.947  0.8488 -0.2018  2.2092
 3702TIP3   OH232740   4.115   4.055   7.993 -0.1372 -0.0655 -0.7574
 3702TIP3    H132741   4.087   4.077   7.904 -1.3519 -2.1528 -0.9719
 3702TIP3    H232742   4.195   4.004   7.981  1.2974  1.9684 -0.4140
 3703TIP3   OH232743   6.128   1.574   0.196  0.8192 -0.2210  0.0499
 3703TIP3    H132744   6.046   1.619   0.179  0.9488 -0.0521 -0.1289
 3703TIP3    H232745   6.121   1.544   0.287  0.6182 -0.0904  0.0769
 3704TIP3   OH232746   3.630   6.134   0.598 -0.2931 -0.0120 -0.0471
 3704TIP3    H132747   3.599   6.200   0.536  1.3062 -0.2540 -1.1719
 3704TIP3    H232748   3.703   6.176   0.644  0.0815 -0.6521 -0.0483
 3705TIP3   OH232749   1.305   3.750   6.843 -0.6618  0.4713  0.2306
 3705TIP3    H132750   1.249   3.817   6.804 -0.6073  0.2108 -0.3004
 3705TIP3    H232751   1.251   3.671   6.842  0.0375 -0.0142 -1.1664
 3706TIP3   OH232752   2.198   2.303   8.884  0.5527  0.3640  0.6102
 3706TIP3    H132753   2.249   2.356   8.823  0.5324 -1.4581 -1.1036
 3706TIP3    H232754   2.123   2.358   8.906 -0.4380  0.4772 -2.5371
 3707TIP3   OH232755   2.389   0.772   7.378  0.5897  0.5648  0.3019
 3707TIP3    H132756   2.313   0.811   7.420  0.5162  0.7019  0.0416
 3707TIP3    H232757   2.404   0.825   7.300  0.2173 -0.1813 -0.2974
 3708TIP3   OH232758   2.307   2.834   7.725  0.5921 -0.3382 -0.4561
 3708TIP3    H132759   2.293   2.833   7.630 -0.1944  0.4702 -0.3611
 3708TIP3    H232760   2.399   2.861   7.734 -0.0631  2.3746 -0.9761
 3709TIP3   OH232761   4.744   3.549   7.884 -0.0977  0.7468  0.1877
 3709TIP3    H132762   4.803   3.606   7.935  1.7155  0.1921 -1.1722
 3709TIP3    H232763   4.798   3.473   7.863 -2.3135 -1.3336  1.5574
 3710TIP3   OH232764   4.919   0.629   1.900 -0.4244 -0.5090  0.7565
 3710TIP3    H132765   5.008   0.613   1.933 -1.2618 -0.4070  3.2740
 3710TIP3    H232766   4.914   0.576   1.820  1.8129 -0.6947  0.6552
 3711TIP3   OH232767   2.589   6.134   0.052  0.0716  0.2135  0.0009
 3711TIP3    H132768   2.667   6.163   0.099  0.2121  2.1974 -1.3108
 3711TIP3    H232769   2.518   6.142   0.115  0.5641  0.7829  0.4933
 3712TIP3   OH232770   3.896   5.783   0.275 -0.3975 -0.1346  0.0777
 3712TIP3    H132771   3.899   5.834   0.194  0.8068 -0.0305  0.1773
 3712TIP3    H232772   3.871   5.846   0.342 -1.8921 -0.3192 -0.2562
 3713TIP3   OH232773   2.736   0.034   0.871 -0.1638 -0.4711 -0.0625
 3713TIP3    H132774   2.701  -0.020   0.942 -2.0789  0.4999 -0.1994
 3713TIP3    H232775   2.696   0.120   0.884 -0.2218 -0.1489 -2.0496
 3714TIP3   OH232776   4.679   2.012   7.507 -0.0210 -0.0056 -0.5369
 3714TIP3    H132777   4.655   1.962   7.584  0.7164 -0.6785 -0.7297
 3714TIP3    H232778   4.637   1.967   7.434 -0.4497  0.4393 -0.5716
 3715TIP3   OH232779   0.979   1.551   0.698 -0.3068  0.4500 -0.0122
 3715TIP3    H132780   0.907   1.562   0.760 -1.7360  0.3080 -1.5656
 3715TIP3    H232781   1.054   1.591   0.740 -1.3368  0.7716  1.5962
 3716TIP3   OH232782   4.231   6.517   8.959  0.4549 -0.2894  0.1654
 3716TIP3    H132783   4.274   6.444   9.003  2.5898  1.1973  0.6593
 3716TIP3    H232784   4.301   6.564   8.914 -1.2448 -0.1062 -2.5689
 3717TIP3   OH232785   2.085   0.942   8.200 -0.1656  0.1776  0.1414
 3717TIP3    H132786   2.089   0.910   8.110  3.2680 -0.2689  0.2910
 3717TIP3    H232787   2.091   1.037   8.192  0.6573  0.1136 -0.1397
 3718TIP3   OH232788   4.531   1.606   0.217  0.4954 -0.0409  0.0548
 3718TIP3    H132789   4.560   1.647   0.135  2.5160 -0.3406  0.5777
 3718TIP3    H232790   4.501   1.679   0.271 -1.3037  0.1188 -1.0753
 3719TIP3   OH232791   2.125   5.919   0.034  0.0586  0.0828  0.0023
 3719TIP3    H132792   2.035   5.891   0.020 -0.1944  1.1706 -0.7333
 3719TIP3    H232793   2.117   5.992   0.096  0.3177  0.7182 -0.6853
 3720TIP3   OH232794   2.356   6.231   0.147 -0.0969 -0.5548 -0.8366
 3720TIP3    H132795   2.321   6.228   0.236 -0.8250 -1.3485 -1.1392
 3720TIP3    H232796   2.322   6.313   0.111 -0.3260 -0.5425 -0.6003
 3721TIP3   OH232797   4.973   6.577   6.807  0.4725  0.6980 -0.5926
 3721TIP3    H132798   5.009   6.493   6.837  0.5332  1.5437  1.8560
 3721TIP3    H232799   5.046   6.619   6.762 -0.0802 -1.2931 -3.7142
 3722TIP3   OH232800   6.231   0.013   7.434  0.1931  0.2469  0.2889
 3722TIP3    H132801   6.306   0.068   7.410  0.6587 -1.3039 -2.0736
 3722TIP3    H232802   6.258  -0.032   7.514  0.8283  1.4387  0.7665
 3723TIP3   OH232803   3.026   1.246   5.972 -0.0209 -0.0522 -0.1869
 3723TIP3    H132804   3.014   1.322   6.029 -3.3020 -1.8424  1.8523
 3723TIP3    H232805   2.937   1.210   5.962  1.2133 -2.9402 -2.0406
 3724TIP3   OH232806   0.684   6.106   7.705  0.0992 -0.7734 -0.5815
 3724TIP3    H132807   0.738   6.027   7.713 -1.5363 -1.8671  0.2838
 3724TIP3    H232808   0.636   6.094   7.623 -0.2010 -0.7152 -0.4157
 3725TIP3   OH232809   6.585   4.580   1.533  0.2776 -0.7523 -0.1142
 3725TIP3    H132810   6.525   4.543   1.467 -0.7877 -1.8790  1.3942
 3725TIP3    H232811   6.652   4.625   1.482 -0.6735 -1.2941 -1.9517
 3726TIP3   OH232812   6.510   2.741   2.156 -0.0639 -0.6742 -0.2294
 3726TIP3    H132813   6.443   2.731   2.224 -2.2449 -0.5349 -2.2358
 3726TIP3    H232814   6.587   2.773   2.203 -2.0998  1.4934  1.9122
 3727TIP3   OH232815   6.025   3.677   1.171 -0.5808  0.1037 -0.5219
 3727TIP3    H132816   6.059   3.588   1.162 -0.3028  0.1219  0.2517
 3727TIP3    H232817   6.029   3.713   1.083 -1.3880 -0.8916 -0.9850
 3728TIP3   OH232818   3.392   3.688   7.255 -0.4784  0.0575 -0.3565
 3728TIP3    H132819   3.462   3.753   7.252 -1.5450  1.3014  0.4390
 3728TIP3    H232820   3.436   3.604   7.249  1.1197  0.7857  0.6325
 3729TIP3   OH232821   3.862   5.558   1.327  0.2584  0.1160 -0.2980
 3729TIP3    H132822   3.936   5.514   1.285  0.6551  0.6654 -0.1725
 3729TIP3    H232823   3.794   5.560   1.259  0.6752  0.4200 -0.7068
 3730TIP3   OH232824   1.953   2.071   1.233 -0.3557  0.2122  0.5664
 3730TIP3    H132825   1.867   2.043   1.265 -0.1285  0.1886  1.1802
 3730TIP3    H232826   2.009   1.994   1.243 -0.0520  0.4829  1.0079
 3731TIP3   OH232827   4.181   1.153   8.313  0.1086  0.6260  0.3037
 3731TIP3    H132828   4.229   1.210   8.253  0.6433 -1.2051 -1.1186
 3731TIP3    H232829   4.189   1.066   8.274 -1.2034 -0.3324  2.0424
 3732TIP3   OH232830   3.584   5.053   1.297 -0.4411 -0.3244 -0.4116
 3732TIP3    H132831   3.518   5.051   1.227 -0.1934  0.0149 -0.6612
 3732TIP3    H232832   3.650   5.115   1.265 -0.3077 -0.1981  0.1092
 3733TIP3   OH232833   3.340   4.971   8.200 -0.1972  0.2046 -0.0368
 3733TIP3    H132834   3.404   4.904   8.222  0.5245  0.6099 -0.8702
 3733TIP3    H232835   3.259   4.922   8.184 -0.1873 -0.2845  1.2871
 3734TIP3   OH232836   1.114   1.727   0.847 -0.4551  0.6515  0.2124
 3734TIP3    H132837   1.159   1.698   0.926 -1.9131 -0.0387  0.8271
 3734TIP3    H232838   1.078   1.813   0.869 -0.4951  0.6505  0.1530
 3735TIP3   OH232839   0.430   5.103   6.427 -0.3069  0.0367 -0.1535
 3735TIP3    H132840   0.455   5.194   6.415  1.9704 -0.7646 -2.5140
 3735TIP3    H232841   0.402   5.074   6.340 -1.6550 -1.3744  0.6987
 3736TIP3   OH232842   5.338   3.748   7.003 -0.1069  0.0951  0.3803
 3736TIP3    H132843   5.427   3.781   6.995 -0.2620  0.3746 -0.2413
 3736TIP3    H232844   5.348   3.654   7.018  0.2688 -0.2367 -1.7144
 3737TIP3   OH232845   4.685   2.695   8.640 -0.1434  0.1484  0.2576
 3737TIP3    H132846   4.743   2.754   8.686  0.6090 -0.5522  0.2372
 3737TIP3    H232847   4.612   2.680   8.700 -0.4076  1.1693  0.2126
 3738TIP3   OH232848   0.928   6.495   0.317 -0.4978 -0.2467 -0.0430
 3738TIP3    H132849   0.946   6.434   0.388  0.1054 -0.3081 -0.2415
 3738TIP3    H232850   0.850   6.459   0.274  0.9111 -1.9649 -1.3264
 3739TIP3   OH232851   0.406   5.766   8.681 -0.1571 -0.0104 -0.1477
 3739TIP3    H132852   0.365   5.799   8.601 -1.2663 -0.3143  0.2808
 3739TIP3    H232853   0.465   5.697   8.652  0.2641  0.6139 -0.8001
 3740TIP3   OH232854   4.845   1.446   1.918  0.0784  0.3457 -0.0430
 3740TIP3    H132855   4.858   1.533   1.956 -0.1819  0.0794  0.6797
 3740TIP3    H232856   4.834   1.388   1.994 -0.6889 -0.1660 -0.5307
 3741TIP3   OH232857   3.196   1.826   8.741  0.4846 -0.2981 -0.4228
 3741TIP3    H132858   3.197   1.904   8.685 -1.1965  0.6686  0.7987
 3741TIP3    H232859   3.122   1.775   8.709 -0.4112  0.1992  0.7732
 3742TIP3   OH232860   6.018   2.074   1.848  0.0164 -0.0087  0.3519
 3742TIP3    H132861   5.935   2.027   1.847 -0.4944  0.8672 -1.0051
 3742TIP3    H232862   6.069   2.032   1.917 -0.7436 -1.9664 -0.2291
 3743TIP3   OH232863   4.964   1.102   0.803 -0.8044  0.0280 -0.0253
 3743TIP3    H132864   4.878   1.141   0.784 -1.0496  0.4102  1.6766
 3743TIP3    H232865   5.023   1.178   0.809 -0.5895 -0.1385 -0.0411
 3744TIP3   OH232866   5.761   2.660   2.154 -0.0525  0.3900 -0.3315
 3744TIP3    H132867   5.811   2.686   2.077  0.0363 -1.0837 -0.7972
 3744TIP3    H232868   5.757   2.564   2.150 -1.4148  0.3700  0.6320
 3745TIP3   OH232869   2.924   4.731   6.814  0.5310 -0.2487 -0.4748
 3745TIP3    H132870   2.935   4.681   6.895 -1.7593 -0.0577  0.0243
 3745TIP3    H232871   2.935   4.667   6.744  3.1848 -0.2956 -0.0942
 3746TIP3   OH232872   1.254   5.248   7.674 -0.0962  0.0530  0.0396
 3746TIP3    H132873   1.235   5.330   7.628  0.0010  1.2208  1.9483
 3746TIP3    H232874   1.345   5.229   7.652 -0.3028  0.1209 -0.9029
 3747TIP3   OH232875   2.229   5.546   8.337  0.1038 -0.2126 -0.0229
 3747TIP3    H132876   2.311   5.530   8.383 -0.0992  1.7110  1.1402
 3747TIP3    H232877   2.163   5.548   8.407 -0.4050  1.5668 -0.4886
 3748TIP3   OH232878   1.889   2.728   0.765 -0.7726  0.6227 -0.3102
 3748TIP3    H132879   1.981   2.703   0.769 -0.4930  1.5016 -1.0358
 3748TIP3    H232880   1.855   2.708   0.852  0.5042  1.7527  0.4967
 3749TIP3   OH232881   4.315   1.391   1.937  0.2506  0.8553  0.4049
 3749TIP3    H132882   4.363   1.422   2.014  0.0953  0.4410  0.6671
 3749TIP3    H232883   4.224   1.412   1.955  0.2016  0.6693  0.3768
 3750TIP3   OH232884   3.513   4.808   0.868 -0.2109  0.0395 -0.4201
 3750TIP3    H132885   3.566   4.886   0.883 -0.2076  0.0544 -0.5074
 3750TIP3    H232886   3.491   4.776   0.955 -3.2134  2.1649 -0.2361
 3751TIP3   OH232887   0.990   2.186   8.563 -0.1979  0.3543 -0.4599
 3751TIP3    H132888   0.964   2.195   8.655 -1.7659 -0.3675 -0.7896
 3751TIP3    H232889   0.949   2.261   8.520  1.4677  1.3306 -0.4377
 3752TIP3   OH232890   2.303   6.344   1.256 -0.0620  0.2969 -0.4736
 3752TIP3    H132891   2.226   6.308   1.212 -0.3996 -0.2582  0.5460
 3752TIP3    H232892   2.275   6.431   1.286 -0.1728  0.2382 -0.4089
 3753TIP3   OH232893   0.386   6.287   7.567  0.6805 -0.5699  0.4790
 3753TIP3    H132894   0.466   6.331   7.597  1.1171  0.1397 -1.5482
 3753TIP3    H232895   0.322   6.357   7.558 -0.1154 -1.0932  1.7639
 3754TIP3   OH232896   2.471   6.529   1.442 -0.0549 -0.5600  0.1594
 3754TIP3    H132897   2.456   6.501   1.532  1.4493 -1.2842  0.2076
 3754TIP3    H232898   2.566   6.531   1.433 -0.1852 -0.4878 -1.4120
 3755TIP3   OH232899   3.571   6.379   7.818 -0.6167 -0.0558  0.2718
 3755TIP3    H132900   3.660   6.390   7.785 -1.3186  3.0637 -0.8427
 3755TIP3    H232901   3.520   6.352   7.742 -0.8918 -0.4807  0.5998
 3756TIP3   OH232902   4.574   3.220   1.114  0.3969 -0.4105 -0.3578
 3756TIP3    H132903   4.648   3.260   1.069  0.1835  0.4893  0.0474
 3756TIP3    H232904   4.566   3.132   1.077  1.0747 -0.1770 -1.0698
 3757TIP3   OH232905   1.930   4.588   6.856  0.5130 -0.0600  0.0763
 3757TIP3    H132906   1.900   4.589   6.947  0.4046  0.6303  0.0351
 3757TIP3    H232907   1.860   4.632   6.807  0.0545 -1.3830 -0.5042
 3758TIP3   OH232908   6.727   4.916   1.083  0.3631 -0.1266  0.0524
 3758TIP3    H132909   6.680   4.937   1.164 -1.5709  1.5726 -1.3903
 3758TIP3    H232910   6.730   4.999   1.035 -0.3887 -1.4527 -2.4683
 3759TIP3   OH232911   1.897   1.497   1.007 -0.4078  0.4649  0.1503
 3759TIP3    H132912   1.835   1.452   1.065  1.1332  0.2437  1.7147
 3759TIP3    H232913   1.902   1.442   0.929 -0.9180 -0.3809  0.7035
 3760TIP3   OH232914   1.073   0.387   0.047  0.2724 -0.2937  0.1275
 3760TIP3    H132915   1.101   0.317  -0.012 -1.8262 -1.2956  0.2075
 3760TIP3    H232916   1.018   0.443  -0.008 -0.4695 -0.3941  0.7546
 3761TIP3   OH232917   1.050   5.440   7.224  0.4634  0.1225 -0.6229
 3761TIP3    H132918   0.974   5.390   7.195  0.2571  1.1120 -1.8717
 3761TIP3    H232919   1.125   5.397   7.182  0.4833 -0.2065 -0.2546
 3762TIP3   OH232920   4.110   3.513   7.320 -0.1154 -0.5730 -0.1620
 3762TIP3    H132921   4.019   3.483   7.313 -0.7953  1.6050 -1.8146
 3762TIP3    H232922   4.117   3.583   7.255  2.6943 -0.4959  0.1173
 3763TIP3   OH232923   4.056   1.953   8.755 -0.2325  0.3951  0.2923
 3763TIP3    H132924   4.007   1.966   8.674 -0.6197 -1.6985  0.1376
 3763TIP3    H232925   4.003   1.998   8.822  0.5315  2.8687 -0.6823
 3764TIP3   OH232926   6.322   1.508   1.603 -0.2845  0.0021  0.2673
 3764TIP3    H132927   6.248   1.567   1.620  0.0068  0.3771  0.2398
 3764TIP3    H232928   6.392   1.566   1.573  0.0003 -0.3619  0.2310
 3765TIP3   OH232929   3.047   0.314   8.842  0.3629  0.0192 -0.1986
 3765TIP3    H132930   3.010   0.298   8.929 -2.0909  2.9397 -0.5141
 3765TIP3    H232931   3.026   0.235   8.792 -2.8753  0.2327  0.5829
 3766TIP3   OH232932   2.128   4.252   7.153 -0.2922  0.2629  0.5893
 3766TIP3    H132933   2.201   4.273   7.211 -1.7710  0.0908  2.6340
 3766TIP3    H232934   2.154   4.287   7.068  2.6673 -0.8955  0.9015
 3767TIP3   OH232935   5.566   1.517   1.094  0.1160  0.3010  0.3844
 3767TIP3    H132936   5.631   1.557   1.152 -0.5175 -0.0075  1.3258
 3767TIP3    H232937   5.546   1.432   1.134 -0.2971  0.0558 -0.3127
 3768TIP3   OH232938   3.817   2.970   1.278 -0.0475 -0.9645 -0.0485
 3768TIP3    H132939   3.767   2.966   1.196  2.3750  0.4136 -1.7319
 3768TIP3    H232940   3.908   2.959   1.251  0.9929  1.0447  2.2434
 3769TIP3   OH232941   6.071   3.672   8.981 -0.2332 -0.4495 -0.4799
 3769TIP3    H132942   6.089   3.733   9.053 -1.7655 -0.5359  0.0171
 3769TIP3    H232943   6.136   3.603   8.991 -2.7601 -2.6339  3.3901
 3770TIP3   OH232944   2.459   3.765   8.416 -0.2379  0.2547  0.4760
 3770TIP3    H132945   2.508   3.791   8.494  0.2691 -2.6132  1.2465
 3770TIP3    H232946   2.367   3.764   8.445 -0.2948  1.3777  0.3482
 3771TIP3   OH232947   2.406   4.308   7.207 -0.6587 -0.1992  0.2418
 3771TIP3    H132948   2.500   4.294   7.198 -0.6994 -0.6441  0.4492
 3771TIP3    H232949   2.396   4.402   7.221 -0.3761  0.0829 -1.3615
 3772TIP3   OH232950   3.720   4.769   8.615  0.0500 -0.4275 -0.3748
 3772TIP3    H132951   3.784   4.703   8.641 -1.0485 -1.8761 -1.1219
 3772TIP3    H232952   3.765   4.823   8.550  1.3601  0.3768  1.1560
 3773TIP3   OH232953   5.171   3.335   0.910  0.2720 -0.5935  0.2039
 3773TIP3    H132954   5.254   3.288   0.919  0.1113 -1.0233 -0.4635
 3773TIP3    H232955   5.107   3.278   0.952  0.1027 -0.9076 -0.4657
 3774TIP3   OH232956   6.255   1.988   0.375 -0.0982  0.3134  0.7782
 3774TIP3    H132957   6.310   1.971   0.299  1.4083 -0.3913  1.9705
 3774TIP3    H232958   6.167   2.000   0.339  0.2658 -1.6085 -0.9428
 3775TIP3   OH232959   1.960   3.426   7.357 -0.0586 -0.5451  0.1930
 3775TIP3    H132960   1.890   3.451   7.296  1.3295 -1.3794 -1.8383
 3775TIP3    H232961   2.016   3.504   7.362 -0.2522 -0.4257  0.5472
 3776TIP3   OH232962   2.705   0.236   7.481 -0.0967 -0.2785  0.0807
 3776TIP3    H132963   2.794   0.201   7.487 -0.4843 -1.2768  0.2669
 3776TIP3    H232964   2.669   0.227   7.569  0.6036  2.9538  0.7991
 3777TIP3   OH232965   4.767   3.831   6.949 -0.0691  0.2845 -0.2025
 3777TIP3    H132966   4.814   3.805   7.028 -0.5597  0.3840  0.1281
 3777TIP3    H232967   4.714   3.906   6.976 -0.1378  0.4076 -0.6611
 3778TIP3   OH232968   4.661   5.923   8.028  0.2912 -0.4576 -0.0045
 3778TIP3    H132969   4.698   5.998   8.074  1.0376 -0.4971 -0.5104
 3778TIP3    H232970   4.660   5.950   7.936  2.4874 -1.7774 -0.4909
 3779TIP3   OH232971   5.297   1.380   7.916  0.0859 -0.2375 -0.9074
 3779TIP3    H132972   5.237   1.446   7.950  1.7178  1.7059 -1.5616
 3779TIP3    H232973   5.302   1.399   7.822  1.5908 -0.4189 -0.8828
 3780TIP3   OH232974   1.894   5.888   8.201  0.5752 -0.2434 -0.5067
 3780TIP3    H132975   1.819   5.880   8.141  0.4415  0.4370 -0.4430
 3780TIP3    H232976   1.901   5.802   8.242 -1.0349  0.0536  0.4956
 3781TIP3   OH232977   1.936   6.774   7.246 -0.5950 -0.1718  0.2351
 3781TIP3    H132978   1.999   6.774   7.317 -0.0682  0.6520 -0.2170
 3781TIP3    H232979   1.850   6.770   7.289 -0.2830  0.3766  0.9169
 3782TIP3   OH232980   6.076   5.827   1.750  0.6614 -0.3332 -0.1882
 3782TIP3    H132981   6.163   5.792   1.737  1.1522  0.4670  0.7975
 3782TIP3    H232982   6.088   5.922   1.754 -0.2721 -0.1975 -0.2596
 3783TIP3   OH232983   0.054   4.637   6.415  0.2903 -0.2608 -0.7892
 3783TIP3    H132984   0.102   4.609   6.493 -0.0444  1.1967 -0.0266
 3783TIP3    H232985   0.119   4.680   6.361  0.2561 -0.0921 -0.6967
 3784TIP3   OH232986   5.149   0.702   0.437  0.1879  0.3638 -0.6370
 3784TIP3    H132987   5.058   0.678   0.418 -0.3886  1.4496  0.5919
 3784TIP3    H232988   5.157   0.792   0.407  0.4432  0.7321  0.4802
 3785TIP3   OH232989   6.472   0.677   1.295  0.2749 -0.1928  0.0194
 3785TIP3    H132990   6.461   0.619   1.370  0.3800  0.3016  0.4219
 3785TIP3    H232991   6.429   0.759   1.322  1.5432  0.4721  0.1104
 3786TIP3   OH232992   5.376   3.432   0.360  0.0326  0.3193 -0.0241
 3786TIP3    H132993   5.400   3.339   0.358  0.0920  0.3239  0.3397
 3786TIP3    H232994   5.426   3.467   0.434  0.0458  0.6519 -0.1917
 3787TIP3   OH232995   1.714   1.954   0.746 -0.5262 -0.0326  0.3180
 3787TIP3    H132996   1.734   1.995   0.661 -0.5643  2.2174  1.3089
 3787TIP3    H232997   1.779   1.991   0.806 -0.8911 -1.0949  1.4059
 3788TIP3   OH232998   6.223   1.659   2.562  0.3997  0.1020  0.3651
 3788TIP3    H132999   6.265   1.711   2.631 -0.1080  0.7840  0.1650
 3788TIP3    H233000   6.246   1.703   2.481  0.7524 -0.5351  0.1171
 3789TIP3   OH233001   0.332   6.177   0.380  0.3278 -0.4135 -0.0363
 3789TIP3    H133002   0.394   6.248   0.371 -0.3656  0.2702  0.4427
 3789TIP3    H233003   0.301   6.160   0.291 -0.8970  1.1836  0.0344
 3790TIP3   OH233004   0.637   3.624   8.481  0.0769 -0.0440  0.2876
 3790TIP3    H133005   0.564   3.623   8.419 -1.4814  1.8786  1.9787
 3790TIP3    H233006   0.606   3.575   8.556  1.4981 -1.3023  0.1144
 3791TIP3   OH233007   4.309   5.898   7.819  0.4303 -0.4850 -0.4506
 3791TIP3    H133008   4.318   5.864   7.730  0.5713  2.2143 -1.5458
 3791TIP3    H233009   4.379   5.963   7.828 -1.0693  1.0733  0.7268
 3792TIP3   OH233010   0.454   5.586   1.272  0.6908 -0.3304  0.9553
 3792TIP3    H133011   0.464   5.612   1.364  0.2249  0.0712  0.9015
 3792TIP3    H233012   0.509   5.509   1.262  1.9125  0.4751  1.2015
 3793TIP3   OH233013   5.804   4.913   0.812  0.3996  0.2215  0.4372
 3793TIP3    H133014   5.756   4.834   0.788  1.7460 -0.5849  0.3188
 3793TIP3    H233015   5.749   4.956   0.877 -2.2465  1.2490 -2.2337
 3794TIP3   OH233016   3.937   6.078   2.312 -0.5564 -0.5219 -0.7051
 3794TIP3    H133017   3.860   6.083   2.256  0.0928  0.9391 -1.5246
 3794TIP3    H233018   3.990   6.153   2.286  1.9592 -2.3968 -1.3451
 3795TIP3   OH233019   1.022   4.355   1.304 -0.1522 -0.4118 -0.0359
 3795TIP3    H133020   1.020   4.386   1.395  0.6631  1.4485 -0.6189
 3795TIP3    H233021   1.112   4.367   1.276 -0.3139 -1.3041 -1.0043
 3796TIP3   OH233022   1.552   0.471   8.524  0.0967 -0.2495 -0.0048
 3796TIP3    H133023   1.622   0.412   8.552  0.3103 -0.3538 -0.7449
 3796TIP3    H233024   1.477   0.414   8.507 -0.3948 -0.0720  1.4439
 3797TIP3   OH233025   6.660   0.106   8.592 -0.4386  0.6852 -0.0570
 3797TIP3    H133026   6.705   0.106   8.508 -1.5583  1.0495 -0.6788
 3797TIP3    H233027   6.685   0.189   8.633  0.4269  0.3261  0.1603
 3798TIP3   OH233028   6.712   0.583   7.769  0.0554 -0.7702  0.0690
 3798TIP3    H133029   6.793   0.547   7.733 -0.6657 -1.3451 -1.0351
 3798TIP3    H233030   6.688   0.652   7.707  0.5245  0.5029  1.2516
 3799TIP3   OH233031   1.622   2.342   0.098 -0.3617 -0.5654 -0.4956
 3799TIP3    H133032   1.532   2.372   0.101 -0.1955 -0.0692 -0.3523
 3799TIP3    H233033   1.671   2.417   0.063  0.3619  0.0837  1.7444
 3800TIP3   OH233034   2.808   6.634   0.131 -0.4229 -0.6581  0.0245
 3800TIP3    H133035   2.888   6.593   0.165 -0.6351 -0.0691  1.2927
 3800TIP3    H233036   2.783   6.580   0.056  1.1652 -0.8436 -0.3989
 3801TIP3   OH233037   0.137   1.857   0.421  0.6009  0.0375  0.3675
 3801TIP3    H133038   0.202   1.905   0.370 -0.0022  0.4072 -0.0769
 3801TIP3    H233039   0.179   1.840   0.505 -0.0385  3.7639  1.6461
 3802TIP3   OH233040   3.151   5.872   1.230  0.1492 -0.9793  0.4910
 3802TIP3    H133041   3.181   5.782   1.224 -0.8253 -1.3406  0.8979
 3802TIP3    H233042   3.061   5.870   1.196  0.5471  0.0725 -0.7180
 3803TIP3   OH233043   0.535   4.072   0.423 -0.0046 -0.0262 -0.5444
 3803TIP3    H133044   0.551   3.980   0.402 -0.9193 -0.9415  2.3676
 3803TIP3    H233045   0.598   4.120   0.368 -1.2208 -2.0841 -4.1010
 3804TIP3   OH233046   1.746   6.320   8.054  0.0548  0.4424  0.1347
 3804TIP3    H133047   1.755   6.374   7.976 -0.8288 -0.2442 -0.4616
 3804TIP3    H233048   1.796   6.241   8.034 -0.5685  0.0597  0.0595
 3805TIP3   OH233049   5.991   6.512   0.523  0.2021 -0.4432  0.5627
 3805TIP3    H133050   6.031   6.568   0.589 -2.0025 -0.0437  1.6562
 3805TIP3    H233051   6.042   6.528   0.444 -0.2201  3.1109  0.8336
 3806TIP3   OH233052   6.039   4.628   1.183 -0.3427 -0.3514  0.0827
 3806TIP3    H133053   6.051   4.696   1.250  0.8577  0.6102 -1.0554
 3806TIP3    H233054   6.127   4.594   1.168 -0.7993 -1.5023 -0.0564
 3807TIP3   OH233055   5.840   3.356   1.105  0.4324  0.4727 -0.3602
 3807TIP3    H133056   5.901   3.360   1.178 -1.0106  0.2177  0.9020
 3807TIP3    H233057   5.802   3.443   1.100  0.3851  0.4353 -0.6967
 3808TIP3   OH233058   4.111   0.310   0.861 -0.1978  0.0309  0.0736
 3808TIP3    H133059   4.020   0.312   0.891 -0.3309  0.2375 -0.3276
 3808TIP3    H233060   4.108   0.352   0.775  0.4754  1.1953  0.5999
 3809TIP3   OH233061   5.843   3.674   0.267  0.5758 -0.8364  0.2827
 3809TIP3    H133062   5.810   3.614   0.334  1.2487 -0.7909  0.6739
 3809TIP3    H233063   5.938   3.670   0.277  0.6408  0.1355  0.1814
 3810TIP3   OH233064   4.413   4.611   1.605 -0.2017 -0.1387 -0.1733
 3810TIP3    H133065   4.336   4.647   1.649 -1.1361 -1.8536 -0.3012
 3810TIP3    H233066   4.487   4.644   1.655 -0.9868  1.6078 -0.0752
 3811TIP3   OH233067   2.728   1.114   1.898 -0.4396 -0.8911 -0.2693
 3811TIP3    H133068   2.680   1.150   1.972  0.4551  0.3745 -0.2773
 3811TIP3    H233069   2.685   1.030   1.880 -1.5895 -0.5433  0.7425
 3812TIP3   OH233070   1.060   3.983   7.426  0.5662 -0.2228 -0.0494
 3812TIP3    H133071   1.106   4.058   7.389 -1.5682  1.3778  0.3623
 3812TIP3    H233072   0.991   3.964   7.363 -2.0978  1.4953  2.1213
 3813TIP3   OH233073   3.192   0.986   7.052 -0.1691  0.2991  0.3860
 3813TIP3    H133074   3.139   1.066   7.060  0.4599  0.7606  0.0291
 3813TIP3    H233075   3.160   0.945   6.972 -1.4577 -0.5511  1.3005
 3814TIP3   OH233076   6.104   5.381   0.393 -0.5958  0.7093  0.1182
 3814TIP3    H133077   6.094   5.291   0.361  1.1039  0.8288 -0.9230
 3814TIP3    H233078   6.025   5.426   0.365 -1.2305 -0.3288  0.1832
 3815TIP3   OH233079   4.941   1.231   1.721 -0.6376 -0.2859  0.0572
 3815TIP3    H133080   5.022   1.280   1.706 -1.1222  0.1971 -1.2138
 3815TIP3    H233081   4.876   1.299   1.740 -1.1602 -0.4778 -0.9727
 3816TIP3   OH233082   0.790   4.588   0.977 -0.0589 -0.6018  0.1707
 3816TIP3    H133083   0.704   4.568   0.939 -0.1771  1.2279 -0.6168
 3816TIP3    H233084   0.772   4.605   1.069 -0.7462  0.8672 -0.2087
 3817TIP3   OH233085   4.455   1.929   8.424  0.1391 -0.5508  0.0571
 3817TIP3    H133086   4.367   1.966   8.427  0.3252  0.1513 -1.7714
 3817TIP3    H233087   4.445   1.840   8.458 -1.1271 -0.2265  0.5711
 3818TIP3   OH233088   1.727   0.981   1.225 -0.2638 -0.5454  0.1752
 3818TIP3    H133089   1.754   0.982   1.133 -0.5859  0.9102  0.0870
 3818TIP3    H233090   1.793   1.034   1.270 -0.7927 -0.2224  0.5810
 3819TIP3   OH233091   1.195   6.715   7.431  0.2297 -0.5373 -0.7136
 3819TIP3    H133092   1.249   6.637   7.447  2.1205  0.9572  0.5155
 3819TIP3    H233093   1.105   6.683   7.439  0.9261 -2.7212 -0.8744
 3820TIP3   OH233094   0.783   2.605   8.204 -0.2479  0.0053 -0.7814
 3820TIP3    H133095   0.702   2.656   8.201 -0.8308 -0.7661  0.8335
 3820TIP3    H233096   0.780   2.551   8.125 -1.8450 -0.7521 -0.2499
 3821TIP3   OH233097   1.041   3.407   0.092 -0.0993 -0.2616  0.4675
 3821TIP3    H133098   1.028   3.327   0.144  0.6844 -0.0855  0.9557
 3821TIP3    H233099   0.970   3.464   0.119  0.9060  0.2543  2.2339
 3822TIP3   OH233100   5.663   0.951   7.193  0.1301  0.0126 -0.0025
 3822TIP3    H133101   5.714   0.936   7.272  1.8485 -1.6124 -1.3479
 3822TIP3    H233102   5.716   1.013   7.142 -0.2716 -0.0270 -0.4774
 3823TIP3   OH233103   4.308   0.379   7.448 -0.3438 -0.6644 -0.5970
 3823TIP3    H133104   4.290   0.415   7.535  0.9385 -1.0115 -0.1698
 3823TIP3    H233105   4.224   0.343   7.419 -1.1913  0.9697 -0.2401
 3824TIP3   OH233106   1.516   5.770   7.577  0.5442 -0.6292  0.4485
 3824TIP3    H133107   1.522   5.804   7.488 -0.3324 -0.8908  0.2773
 3824TIP3    H233108   1.606   5.755   7.604  0.7868 -3.1856 -1.4191
 3825TIP3   OH233109   4.923   0.953   8.100 -0.1434 -0.1177 -0.7421
 3825TIP3    H133110   4.856   0.890   8.128 -0.3023  0.0110 -0.8325
 3825TIP3    H233111   4.968   0.908   8.028  1.6293 -1.3040  1.0165
 3826TIP3   OH233112   3.434   1.973   6.397  0.4215 -0.6312 -0.1577
 3826TIP3    H133113   3.391   2.001   6.317  0.0620  1.2233  0.6236
 3826TIP3    H233114   3.362   1.953   6.457  0.5861  1.2726  0.7504
 3827TIP3   OH233115   0.866   5.671   1.819 -0.3172 -0.2913  0.6406
 3827TIP3    H133116   0.777   5.662   1.852 -0.2869 -1.2012  0.5077
 3827TIP3    H233117   0.898   5.752   1.858 -1.4047  0.3632  0.2094
 3828TIP3   OH233118   6.435   5.918   8.521  0.3033 -0.0254 -0.5933
 3828TIP3    H133119   6.511   5.889   8.470  0.4173 -0.7245 -0.0454
 3828TIP3    H233120   6.470   5.981   8.584  0.5612 -0.8338  0.0954
 3829TIP3   OH233121   2.187   5.309   8.196 -0.1485 -0.4936 -0.7962
 3829TIP3    H133122   2.202   5.391   8.244  0.2674  0.0697 -1.8519
 3829TIP3    H233123   2.183   5.336   8.104 -2.8173 -1.2945 -0.9714
 3830TIP3   OH233124   0.533   0.836   0.160 -0.4914  0.7660  0.4063
 3830TIP3    H133125   0.624   0.814   0.140 -0.7640  0.8305 -0.9993
 3830TIP3    H233126   0.536   0.876   0.247  0.5950 -0.7457  1.1005
 3831TIP3   OH233127   6.504   1.917   0.227  0.1955  0.0504 -0.3655
 3831TIP3    H133128   6.455   1.898   0.147 -0.2336 -2.1936  0.3601
 3831TIP3    H233129   6.588   1.951   0.196  0.6113 -2.1313 -1.8660
 3832TIP3   OH233130   4.876   5.568   8.815 -0.0130  0.1054 -0.5167
 3832TIP3    H133131   4.841   5.487   8.851  0.4247  0.0192 -0.2786
 3832TIP3    H233132   4.929   5.541   8.741 -0.7256  0.2651 -1.1015
 3833TIP3   OH233133   0.797   1.403   6.191 -0.1348  0.4127 -0.1255
 3833TIP3    H133134   0.832   1.483   6.229  2.2974  0.1456 -1.6173
 3833TIP3    H233135   0.823   1.334   6.252 -0.5629  0.5159  0.1827
 3834TIP3   OH233136   4.860   0.828   8.381 -0.1187 -0.1670 -0.4975
 3834TIP3    H133137   4.790   0.893   8.388 -0.8497 -0.7435 -1.9488
 3834TIP3    H233138   4.929   0.871   8.332 -0.1816 -0.1430 -0.5667
 3835TIP3   OH233139   3.079   2.792   8.919  0.8707 -0.2501 -0.3608
 3835TIP3    H133140   3.042   2.749   8.996  1.0624  0.6206  0.2188
 3835TIP3    H233141   3.147   2.732   8.889  0.9795 -0.4588  0.3019
 3836TIP3   OH233142   2.284   0.597   8.074 -0.4198  0.4151 -0.4141
 3836TIP3    H133143   2.238   0.522   8.112  1.3846 -0.7519 -0.4033
 3836TIP3    H233144   2.324   0.563   7.995 -1.0651  1.8793 -1.4155
 3837TIP3   OH233145   0.290   4.816   8.575 -0.4592 -0.0340  0.3567
 3837TIP3    H133146   0.314   4.908   8.586 -2.2516  0.7682 -1.6480
 3837TIP3    H233147   0.216   4.804   8.635  0.7885 -0.6909  1.8271
 3838TIP3   OH233148   6.556   2.396   7.200  0.0203  0.5807 -0.0196
 3838TIP3    H133149   6.499   2.420   7.127  1.7375 -0.2946 -1.7294
 3838TIP3    H233150   6.519   2.315   7.234  0.5848 -0.3609 -1.5660
 3839TIP3   OH233151   3.312   0.953   7.997 -0.0888  0.2170  0.4317
 3839TIP3    H133152   3.273   0.885   8.051  0.6455 -0.1368  0.5355
 3839TIP3    H233153   3.238   0.996   7.953 -0.5609 -0.6102  0.4099
 3840TIP3   OH233154   4.286   5.342   7.989  0.3040  0.2010  0.2257
 3840TIP3    H133155   4.260   5.431   7.964 -0.1866 -0.4756 -1.8568
 3840TIP3    H233156   4.221   5.315   8.054 -0.3985  0.8469 -0.1895
 3841TIP3   OH233157   6.652   1.925   0.641  0.0894 -0.2455  0.1370
 3841TIP3    H133158   6.688   1.884   0.563  1.1902  0.5900  0.1892
 3841TIP3    H233159   6.600   1.998   0.609  0.3980 -0.0089  0.1705
 3842TIP3   OH233160   1.134   2.364   0.870  0.0811  0.6863  0.2421
 3842TIP3    H133161   1.227   2.371   0.849 -0.3539  1.7572 -1.6398
 3842TIP3    H233162   1.102   2.295   0.812 -0.9142  2.8115 -1.9578
 3843TIP3   OH233163   3.567   6.581   8.529 -0.8089 -0.4021 -0.0493
 3843TIP3    H133164   3.536   6.586   8.619 -0.0949  2.5252  0.1473
 3843TIP3    H233165   3.633   6.650   8.523  1.2867 -2.4147 -2.0687
 3844TIP3   OH233166   3.759   2.271   8.624 -0.1082  0.1627 -0.1164
 3844TIP3    H133167   3.733   2.264   8.715 -3.1747  1.0100 -0.8127
 3844TIP3    H233168   3.702   2.209   8.578 -0.1554  1.2925 -1.6653
 3845TIP3   OH233169   0.617   1.888   1.287 -0.2094 -0.0875 -0.1063
 3845TIP3    H133170   0.543   1.869   1.229  0.7130 -2.9759 -0.5352
 3845TIP3    H233171   0.583   1.952   1.350 -1.8930  1.5248 -2.4906
 3846TIP3   OH233172   2.287   2.014   0.031  0.4599 -0.4836  0.2170
 3846TIP3    H133173   2.270   1.960  -0.046 -0.2223  1.4385 -1.0514
 3846TIP3    H233174   2.232   2.091   0.019 -0.5426 -0.6133  3.2247
 3847TIP3   OH233175   4.859   1.607   6.426  0.5255 -0.0358  0.2390
 3847TIP3    H133176   4.927   1.540   6.435 -0.5647 -0.9136  3.3570
 3847TIP3    H233177   4.798   1.571   6.362  1.0882 -0.9812  0.2120
 3848TIP3   OH233178   5.933   3.304   7.344  0.2525  0.0298 -0.2100
 3848TIP3    H133179   5.901   3.390   7.316  0.2033 -0.1339 -0.6606
 3848TIP3    H233180   5.919   3.247   7.268  0.0314 -0.4425  0.1816
 3849TIP3   OH233181   0.185   0.536   7.973  0.1889 -0.3790 -0.4637
 3849TIP3    H133182   0.197   0.445   7.945  0.2420 -0.4762 -0.1200
 3849TIP3    H233183   0.172   0.531   8.067  1.6722  0.0785 -0.2086
 3850TIP3   OH233184   4.652   2.874   7.487  0.7896 -0.8996 -0.2046
 3850TIP3    H133185   4.665   2.884   7.393 -0.8856  0.3668 -0.3545
 3850TIP3    H233186   4.739   2.887   7.525  0.8092  4.3856 -1.2734
 3851TIP3   OH233187   5.447   1.737   7.914 -0.2456  0.2167 -0.1555
 3851TIP3    H133188   5.514   1.675   7.942 -1.7157 -0.8867  1.0700
 3851TIP3    H233189   5.398   1.759   7.994 -2.9362 -1.0091 -1.3420
 3852TIP3   OH233190   1.987   4.882   1.874 -0.6462 -0.4975 -0.1903
 3852TIP3    H133191   2.050   4.923   1.935 -0.7922 -0.5288 -0.0168
 3852TIP3    H233192   1.910   4.939   1.878 -0.0564  0.4649 -1.6299
 3853TIP3   OH233193   4.321   5.408   2.155 -0.0250  0.0348  0.4294
 3853TIP3    H133194   4.358   5.461   2.225  0.0135 -0.1500  0.5490
 3853TIP3    H233195   4.289   5.329   2.199 -1.2237  0.5038  0.4525
 3854TIP3   OH233196   6.468   3.271   1.014 -0.0878  0.4078  0.0096
 3854TIP3    H133197   6.461   3.180   0.986 -0.2125 -0.4002  2.4160
 3854TIP3    H233198   6.428   3.321   0.943 -2.4416 -1.6425 -0.2550
 3855TIP3   OH233199   3.235   0.501   8.499 -0.0647 -0.7383 -0.0212
 3855TIP3    H133200   3.168   0.438   8.470 -0.1101 -0.9771  0.5976
 3855TIP3    H233201   3.231   0.571   8.434  0.2817 -1.5680 -0.9816
 3856TIP3   OH233202   6.727   4.941   0.340 -0.1168 -0.0826  1.0398
 3856TIP3    H133203   6.778   4.875   0.386  0.7119  0.5928  1.0997
 3856TIP3    H233204   6.657   4.965   0.402  0.5236  0.2489  1.6523
 3857TIP3   OH233205   4.176   6.229   7.921 -0.3922  0.9262 -0.3735
 3857TIP3    H133206   4.254   6.205   7.973 -1.2920 -0.2491  0.4982
 3857TIP3    H233207   4.139   6.145   7.894 -0.6363  1.5026 -1.9324
 3858TIP3   OH233208   4.141   5.894   6.918  0.6230 -0.6964  0.0079
 3858TIP3    H133209   4.235   5.905   6.933  0.4111  0.1675  0.7673
 3858TIP3    H233210   4.124   5.802   6.937  0.7053 -0.1017  3.4903
 3859TIP3   OH233211   4.325   4.175   7.029 -0.2596  0.3790  0.6068
 3859TIP3    H133212   4.270   4.209   6.958  2.2356 -0.4751 -1.9022
 3859TIP3    H233213   4.365   4.253   7.067  0.7107  0.7449 -1.0407
 3860TIP3   OH233214   3.711   6.291   6.725 -0.6250  0.4710  0.0866
 3860TIP3    H133215   3.780   6.325   6.782 -1.6625  2.0264  0.4934
 3860TIP3    H233216   3.737   6.201   6.705  2.1177  1.3762 -0.7655
 3861TIP3   OH233217   3.213   1.645   1.521  0.5334 -0.3521 -0.4784
 3861TIP3    H133218   3.257   1.730   1.523  0.8727 -0.5376  1.7639
 3861TIP3    H233219   3.260   1.592   1.585  0.3799 -2.2897 -1.8831
 3862TIP3   OH233220   0.925   3.783   0.425  0.3372 -0.3671  0.5354
 3862TIP3    H133221   0.931   3.687   0.425  1.7843 -0.3862  3.4443
 3862TIP3    H233222   0.861   3.803   0.493 -0.3707  0.7503 -0.4328
 3863TIP3   OH233223   1.876   6.661   1.449  0.0343 -0.1654 -0.2851
 3863TIP3    H133224   1.785   6.631   1.439 -0.1199  0.1814  0.0496
 3863TIP3    H233225   1.913   6.654   1.361  0.0645 -1.5167 -0.1931
 3864TIP3   OH233226   0.459   5.007   7.432  0.0327 -0.3246 -0.2510
 3864TIP3    H133227   0.372   5.047   7.434  0.7548  1.2795  0.4621
 3864TIP3    H233228   0.455   4.947   7.358 -0.4879  2.6045 -2.8128
 3865TIP3   OH233229   0.262   5.323   7.272 -0.2766 -0.0658  0.3150
 3865TIP3    H133230   0.242   5.250   7.213 -2.1023  1.0773 -0.6029
 3865TIP3    H233231   0.357   5.328   7.274 -0.1433 -1.6389 -0.6607
 3866TIP3   OH233232   1.308   3.315   0.503 -0.2142 -0.1501 -0.3198
 3866TIP3    H133233   1.398   3.343   0.517 -0.0878 -0.9369  0.5779
 3866TIP3    H233234   1.260   3.396   0.486  0.7124  0.2465 -1.1855
 3867TIP3   OH233235   2.001   1.529   7.456  0.3646 -0.5628 -0.6325
 3867TIP3    H133236   2.024   1.550   7.547  1.7406 -1.3892 -0.7615
 3867TIP3    H233237   2.077   1.555   7.405 -0.2482 -0.4555 -1.5181
 3868TIP3   OH233238   6.061   1.726   1.887 -0.2191  0.2324 -0.1569
 3868TIP3    H133239   6.098   1.657   1.942  0.2621  1.5557  1.2463
 3868TIP3    H233240   5.968   1.727   1.910  0.0298  0.9614  0.8662
 3869TIP3   OH233241   1.716   0.603   0.050  0.3630  0.0502  0.1229
 3869TIP3    H133242   1.629   0.585   0.015 -0.5989  0.9197  1.9477
 3869TIP3    H233243   1.718   0.698   0.061  1.1839 -0.0558  0.9783
 3870TIP3   OH233244   0.530   6.284   1.926  0.4174 -0.6352 -0.5693
 3870TIP3    H133245   0.486   6.199   1.916 -0.3073 -0.3382 -0.0254
 3870TIP3    H233246   0.466   6.338   1.973  0.8293  0.2442 -1.0072
 3871TIP3   OH233247   3.856   4.209   7.157  0.1857 -0.2613 -0.0456
 3871TIP3    H133248   3.872   4.121   7.124 -0.2397 -0.4290  0.1896
 3871TIP3    H233249   3.827   4.196   7.247 -0.1650  0.1005 -0.1063
 3872TIP3   OH233250   4.842   4.190   0.532 -0.1584 -0.3455  0.0793
 3872TIP3    H133251   4.847   4.097   0.551  1.4968 -0.3160 -0.0676
 3872TIP3    H233252   4.751   4.205   0.509 -0.8697 -1.5679  1.8622
 3873TIP3   OH233253   3.579   0.989   0.835 -0.4544  0.1589 -0.2715
 3873TIP3    H133254   3.539   0.939   0.906 -3.5350  0.2516 -1.7598
 3873TIP3    H233255   3.608   1.070   0.876 -1.0523 -0.2990  1.1115
 3874TIP3   OH233256   3.296   0.286   0.050  0.0833 -0.1024  0.4032
 3874TIP3    H133257   3.364   0.220   0.038 -0.1040 -0.2309  0.0050
 3874TIP3    H233258   3.239   0.275  -0.026  0.1480  0.6386  0.2373
 3875TIP3   OH233259   0.170   1.470   6.623 -0.2672 -0.1533 -0.0402
 3875TIP3    H133260   0.091   1.420   6.604 -0.9671  0.8394  0.1765
 3875TIP3    H233261   0.234   1.440   6.559 -1.4220  0.4453 -1.5274
 3876TIP3   OH233262   4.995   0.958   0.388 -0.2651 -0.0606 -0.5624
 3876TIP3    H133263   4.988   0.918   0.301 -0.2545 -0.4217 -0.3980
 3876TIP3    H233264   4.970   1.050   0.374  1.4984  0.3681 -1.3240
 3877TIP3   OH233265   2.228   1.167   6.877  0.6939 -0.8884 -0.0368
 3877TIP3    H133266   2.224   1.231   6.948 -0.9423 -1.3303  0.3017
 3877TIP3    H233267   2.272   1.091   6.916 -0.8259 -1.3968  0.7528
 3878TIP3   OH233268   4.572   4.566   7.943  0.3831  0.0595 -0.0454
 3878TIP3    H133269   4.651   4.567   7.889 -0.2967 -0.5992 -1.0931
 3878TIP3    H233270   4.580   4.643   7.999  1.1820  0.6922 -0.9927
 3879TIP3   OH233271   1.386   6.267   7.162 -0.1189  0.2220 -0.0890
 3879TIP3    H133272   1.452   6.224   7.218 -0.7341 -0.8811 -0.1742
 3879TIP3    H233273   1.306   6.263   7.214 -0.0813  1.8091  0.1270
 3880TIP3   OH233274   2.064   1.544   8.743 -0.5433 -0.1458 -0.1748
 3880TIP3    H133275   2.007   1.479   8.784 -0.8874  0.5918  0.5390
 3880TIP3    H233276   2.051   1.624   8.795  0.2138  0.3686 -0.7560
 3881TIP3   OH233277   6.289   1.426   0.477 -0.4463 -0.0048  0.2070
 3881TIP3    H133278   6.199   1.458   0.474 -0.1782  0.7213 -0.3942
 3881TIP3    H233279   6.287   1.345   0.426 -0.8578 -0.2677  0.6308
 3882TIP3   OH233280   4.842   3.377   8.224 -0.2598  0.1089 -0.6027
 3882TIP3    H133281   4.865   3.462   8.263 -1.8617 -0.4261  1.6882
 3882TIP3    H233282   4.757   3.355   8.262  1.2306 -3.7324  1.0370
 3883TIP3   OH233283   3.433   0.361   8.745 -0.2019 -0.5340  0.3118
 3883TIP3    H133284   3.379   0.440   8.731 -1.8510 -1.6014  0.3444
 3883TIP3    H233285   3.502   0.390   8.804 -1.6220  0.5964  1.5120
 3884TIP3   OH233286   4.309   4.469   1.145  0.9095 -0.4750  0.0929
 3884TIP3    H133287   4.246   4.507   1.085 -0.3502 -2.6099 -0.0330
 3884TIP3    H233288   4.380   4.534   1.150 -1.7347  2.5607  1.1655
 3885TIP3   OH233289   3.925   3.067   7.219 -1.2388  0.1411  0.2614
 3885TIP3    H133290   3.930   3.030   7.307 -1.3273  1.2897  0.7729
 3885TIP3    H233291   3.958   2.998   7.161 -1.4792 -0.7409  1.1571
 3886TIP3   OH233292   4.344   5.487   8.273  0.0292 -1.0428 -0.0839
 3886TIP3    H133293   4.377   5.531   8.194  0.1924 -1.0101  0.0017
 3886TIP3    H233294   4.376   5.397   8.264  0.2661 -0.9726  0.0738
 3887TIP3   OH233295   2.134   4.810   1.137 -0.9777  0.1687 -0.3768
 3887TIP3    H133296   2.078   4.789   1.063 -0.2413  1.0171 -1.1901
 3887TIP3    H233297   2.113   4.743   1.203 -1.8998 -0.3692 -1.1967
 3888TIP3   OH233298   2.690   2.863   1.480  0.6072 -0.0670  1.1220
 3888TIP3    H133299   2.599   2.880   1.505 -0.3017  0.9996 -2.3504
 3888TIP3    H233300   2.736   2.944   1.501  0.1249  0.4060  0.3752
 3889TIP3   OH233301   5.090   0.680   7.371  0.1610 -0.1775  0.0964
 3889TIP3    H133302   5.062   0.597   7.331  0.0168 -0.0467 -0.0756
 3889TIP3    H233303   5.148   0.719   7.306  2.6457 -1.5099  1.3530
 3890TIP3   OH233304   2.237   0.462   1.086 -0.2160  0.2581 -0.4764
 3890TIP3    H133305   2.204   0.506   1.164 -0.4215  0.6662 -0.7883
 3890TIP3    H233306   2.217   0.522   1.014 -2.0421 -1.0738 -1.1575
 3891TIP3   OH233307   0.837   0.421   7.745 -0.3786  0.3393 -0.3489
 3891TIP3    H133308   0.854   0.403   7.838  0.7561 -0.2400 -0.6566
 3891TIP3    H233309   0.764   0.483   7.746  1.2254  2.3563  1.0383
 3892TIP3   OH233310   3.850   4.548   8.752  0.5771 -1.0957  0.3202
 3892TIP3    H133311   3.931   4.549   8.802  0.2899  1.6101  0.8877
 3892TIP3    H233312   3.782   4.530   8.817  0.3852  0.6645  0.6706
 3893TIP3   OH233313   2.210   2.931   7.977  0.0370  0.4565 -0.6787
 3893TIP3    H133314   2.192   3.025   7.983  0.2692  0.6444 -2.4126
 3893TIP3    H233315   2.240   2.918   7.887 -1.4959 -1.5353 -0.9849
 3894TIP3   OH233316   5.249   0.399   7.344  0.0830  0.0253 -0.3420
 3894TIP3    H133317   5.195   0.406   7.423 -0.1167 -0.6355 -0.4189
 3894TIP3    H233318   5.263   0.306   7.332  0.8552  0.1619 -0.5923
 3895TIP3   OH233319   6.437   4.221   7.291  0.0480  0.3653 -0.1770
 3895TIP3    H133320   6.349   4.188   7.307  0.3941 -1.4837 -1.6478
 3895TIP3    H233321   6.490   4.183   7.361 -0.2663  1.3711  0.6303
 3896TIP3   OH233322   1.256   1.807   0.274 -0.3150  0.4806  0.1404
 3896TIP3    H133323   1.210   1.744   0.218 -0.3975  0.7392 -0.0857
 3896TIP3    H233324   1.297   1.754   0.341  1.7024 -0.0939 -1.4432
 3897TIP3   OH233325   0.187   3.330   7.742  0.6297 -0.4922  0.5040
 3897TIP3    H133326   0.245   3.268   7.699 -0.5260 -1.3170  0.0818
 3897TIP3    H233327   0.229   3.415   7.729  1.4786 -1.0044 -0.2158
 3898TIP3   OH233328   3.498   4.378   8.618  0.0091 -0.7343 -0.1978
 3898TIP3    H133329   3.418   4.415   8.656  1.3920  1.6386  0.6534
 3898TIP3    H233330   3.477   4.287   8.600 -2.6699 -0.3468  0.5790
 3899TIP3   OH233331   3.812   5.795   7.736  0.1268 -0.1870 -0.2321
 3899TIP3    H133332   3.851   5.737   7.802  1.8278 -0.3378 -1.2971
 3899TIP3    H233333   3.731   5.826   7.776  1.5849  0.5712  2.3839
 3900TIP3   OH233334   1.407   3.818   8.986  0.2639  0.6697 -0.1080
 3900TIP3    H133335   1.346   3.769   9.042  0.8463 -2.4614 -1.9466
 3900TIP3    H233336   1.357   3.894   8.957 -1.6158 -0.0358  1.0580
 3901TIP3   OH233337   5.181   2.636   2.117  0.2950 -0.5616  0.4094
 3901TIP3    H133338   5.183   2.596   2.030  3.0167 -0.8227  0.4842
 3901TIP3    H233339   5.211   2.726   2.103  0.5820 -0.5509  1.0336
 3902TIP3   OH233340   3.103   2.984   1.763  0.1197 -0.0050 -0.5421
 3902TIP3    H133341   3.090   3.052   1.830 -1.2557 -0.8435  0.0853
 3902TIP3    H233342   3.145   3.030   1.691  1.9669  0.8747  0.9952
 3903TIP3   OH233343   2.023   2.645   1.210  0.1089 -0.9617  0.2784
 3903TIP3    H133344   2.108   2.601   1.217 -0.9526 -3.6254 -1.9103
 3903TIP3    H233345   1.959   2.576   1.230 -1.5913  0.4596 -0.0564
 3904TIP3   OH233346   4.242   1.048   8.962  0.5755 -0.3945  0.2902
 3904TIP3    H133347   4.151   1.072   8.947  1.0002  1.9064  0.9998
 3904TIP3    H233348   4.288   1.079   8.883  0.9106 -0.4886  0.4472
 3905TIP3   OH233349   0.509   0.576   8.159 -0.1396  0.1558 -0.6116
 3905TIP3    H133350   0.447   0.502   8.153 -1.5691  1.4197 -2.6407
 3905TIP3    H233351   0.554   0.577   8.075  1.1014  0.6187  0.0254
 3906TIP3   OH233352   5.087   4.607   0.053  0.8018  0.2390 -0.1109
 3906TIP3    H133353   5.021   4.663   0.013  0.9759  0.4174 -0.1520
 3906TIP3    H233354   5.108   4.542  -0.015  0.7445  0.2452 -0.1345
 3907TIP3   OH233355   6.032   2.146   8.597  0.0986 -0.1285 -0.1578
 3907TIP3    H133356   6.085   2.086   8.544 -1.2972 -1.2338 -0.3752
 3907TIP3    H233357   6.071   2.232   8.582  1.0435 -0.7194 -1.2817
 3908TIP3   OH233358   5.157   3.814   1.458 -0.4066 -0.4943  0.2817
 3908TIP3    H133359   5.213   3.844   1.530  0.7579 -1.0915 -0.3560
 3908TIP3    H233360   5.085   3.768   1.502 -0.3700  0.1876  1.1026
 3909TIP3   OH233361   1.950   6.517   1.787 -0.1453 -0.6800  0.1409
 3909TIP3    H133362   1.894   6.446   1.820  1.7093 -1.7535  1.1697
 3909TIP3    H233363   2.036   6.499   1.825  0.7231  1.3622 -0.7189
 3910TIP3   OH233364   0.651   3.917   8.489 -0.1306 -0.0441 -0.2693
 3910TIP3    H133365   0.739   3.951   8.509  0.1051 -0.7657 -0.0514
 3910TIP3    H233366   0.659   3.822   8.499 -0.6599 -0.2106 -1.3423
 3911TIP3   OH233367   6.255   2.424   6.379  0.1214  0.0679  0.0749
 3911TIP3    H133368   6.245   2.452   6.470  0.1425 -1.3728  0.5511
 3911TIP3    H233369   6.308   2.492   6.338 -0.2434  0.9473  1.0234
 3912TIP3   OH233370   0.318   1.324   8.287  0.0298 -0.0545 -0.3000
 3912TIP3    H133371   0.283   1.319   8.199 -1.3572  0.9883  0.1583
 3912TIP3    H233372   0.255   1.276   8.341  0.2967  0.2348  0.2794
 3913TIP3   OH233373   2.057   5.489   1.300 -0.1046  0.1596  0.3993
 3913TIP3    H133374   2.007   5.412   1.278 -0.9440  0.6180  0.6636
 3913TIP3    H233375   2.134   5.456   1.346 -1.0552 -0.4601  1.5985
 3914TIP3   OH233376   6.015   0.880   2.618 -0.6495  0.5650  0.4147
 3914TIP3    H133377   5.998   0.861   2.526  5.6350 -2.2208 -0.6508
 3914TIP3    H233378   6.072   0.957   2.617  1.3124 -0.7895  1.6219
 3915TIP3   OH233379   3.041   6.304   8.395 -0.1540  0.4583  0.6842
 3915TIP3    H133380   3.119   6.310   8.341 -1.9903 -0.0851 -2.2670
 3915TIP3    H233381   2.994   6.228   8.361 -3.2850  2.3595  0.3974
 3916TIP3   OH233382   3.816   3.912   8.098  0.2110 -0.0134  0.3890
 3916TIP3    H133383   3.731   3.954   8.105 -0.8901 -2.2176  1.2248
 3916TIP3    H233384   3.877   3.983   8.079 -1.9614  1.4780 -1.5308
 3917TIP3   OH233385   2.896   2.595   6.794  0.4819 -0.1741 -0.2105
 3917TIP3    H133386   2.918   2.679   6.753 -1.3362  0.8532  0.8251
 3917TIP3    H233387   2.809   2.608   6.831  0.3357 -2.3997  0.3524
 3918TIP3   OH233388   2.105   3.775   0.326  0.2024  0.3444  0.1265
 3918TIP3    H133389   2.074   3.815   0.245 -0.7396  1.3778  0.9522
 3918TIP3    H233390   2.144   3.693   0.299  0.4857  0.9585 -1.4379
 3919TIP3   OH233391   5.890   3.821   1.689 -0.0823 -0.2355  0.0219
 3919TIP3    H133392   5.931   3.746   1.647 -0.7588  1.1830 -3.5920
 3919TIP3    H233393   5.923   3.820   1.779  2.4132 -2.9653 -0.7671
 3920TIP3   OH233394   2.897   2.670   0.093  0.3864 -0.0366 -0.3924
 3920TIP3    H133395   2.820   2.726   0.085 -1.4028 -2.0258  1.4934
 3920TIP3    H233396   2.883   2.602   0.027  0.5334 -0.3589 -0.0945
 3921TIP3   OH233397   3.748   3.592   7.014  0.5466  0.0042  0.0177
 3921TIP3    H133398   3.726   3.638   6.933  0.8292  1.3594  0.6750
 3921TIP3    H233399   3.827   3.543   6.993 -0.9303 -1.9842 -1.3113
 3922TIP3   OH233400   1.212   0.655   0.722  0.3790  0.0111 -0.2347
 3922TIP3    H133401   1.294   0.696   0.694 -0.5099  1.2082 -1.1793
 3922TIP3    H233402   1.159   0.649   0.643 -1.5797  1.9943  0.8081
 3923TIP3   OH233403   2.010   4.886   2.609  0.6048  0.0728 -0.1430
 3923TIP3    H133404   2.017   4.940   2.530 -1.8833  1.2557  0.3398
 3923TIP3    H233405   1.957   4.939   2.669  0.6806 -1.6582  1.5407
 3924TIP3   OH233406   2.476   0.653   8.250  0.4754  0.3652 -0.2630
 3924TIP3    H133407   2.415   0.710   8.296  0.0478 -0.1838 -0.1356
 3924TIP3    H233408   2.432   0.632   8.167  0.6561  0.2643 -0.3357
 3925TIP3   OH233409   5.051   2.395   7.861 -0.1040 -0.2648 -0.1025
 3925TIP3    H133410   5.096   2.386   7.945  0.5630  1.2701 -0.2678
 3925TIP3    H233411   4.978   2.454   7.879 -0.5584 -0.7263 -0.3931
 3926TIP3   OH233412   0.917   3.248   0.818 -0.0228 -0.0190 -0.2460
 3926TIP3    H133413   0.883   3.261   0.730  1.2882  0.4089 -0.7076
 3926TIP3    H233414   0.891   3.159   0.841  0.8707 -0.6734 -1.6638
 3927TIP3   OH233415   5.155   2.900   8.577  0.1347  0.6546  0.4961
 3927TIP3    H133416   5.144   2.837   8.648  0.5333  1.6799  1.5017
 3927TIP3    H233417   5.171   2.846   8.499 -1.1229 -0.5236  1.0084
 3928TIP3   OH233418   2.502   3.763   6.751 -0.2054 -0.1152 -0.4463
 3928TIP3    H133419   2.596   3.779   6.753 -0.3833  1.1833  1.4451
 3928TIP3    H233420   2.468   3.827   6.688 -0.1224  2.0833  1.5873
 3929TIP3   OH233421   6.500   2.707   7.644  0.3032  0.4104  0.4371
 3929TIP3    H133422   6.483   2.799   7.668  0.1326  0.2602  0.9018
 3929TIP3    H233423   6.464   2.699   7.555  0.4733  0.8385  0.3276
 3930TIP3   OH233424   5.525   3.370   0.007 -0.5936 -0.3241 -0.2841
 3930TIP3    H133425   5.463   3.440   0.028 -1.0821 -1.0338  0.7013
 3930TIP3    H233426   5.576   3.404  -0.067 -1.6492  0.5760 -0.6166
 3931TIP3   OH233427   1.631   3.399   6.940 -0.3274 -0.1106 -0.0007
 3931TIP3    H133428   1.707   3.407   6.883 -0.0928  1.8391  0.5218
 3931TIP3    H233429   1.557   3.423   6.885 -0.3007  0.0772  0.0425
 3932TIP3   OH233430   0.847   3.511   0.456 -0.1441  0.5026 -0.5800
 3932TIP3    H133431   0.837   3.420   0.430 -1.1641  0.0917  1.1019
 3932TIP3    H233432   0.857   3.508   0.551 -1.3189  2.2131 -0.3632
 3933TIP3   OH233433   4.229   5.262   2.380 -0.2425  0.1361 -0.0918
 3933TIP3    H133434   4.150   5.249   2.432  0.2181  0.9650  0.8385
 3933TIP3    H233435   4.290   5.195   2.410 -0.4844 -0.3426 -0.6349
 3934TIP3   OH233436   1.627   3.705   7.392  0.1035 -0.3626  0.3310
 3934TIP3    H133437   1.686   3.747   7.330  1.0921 -1.7778  0.2556
 3934TIP3    H233438   1.543   3.750   7.381  0.4870 -0.0375 -1.4334
 3935TIP3   OH233439   5.059   3.533   6.913  0.1382 -0.1656  1.3602
 3935TIP3    H133440   5.150   3.515   6.937  0.9612 -2.1979 -2.5593
 3935TIP3    H233441   5.012   3.454   6.937  0.3251 -0.8682 -0.4723
 3936TIP3   OH233442   5.005   3.916   7.715 -0.4390  0.1310  0.1746
 3936TIP3    H133443   5.034   3.829   7.685 -0.1845  0.6562 -1.1586
 3936TIP3    H233444   4.937   3.941   7.652 -0.9493  0.6530  0.9164
 3937TIP3   OH233445   3.091   4.138   8.517  0.0921  0.1222  0.5351
 3937TIP3    H133446   3.025   4.189   8.470 -0.1679 -0.0472  0.7070
 3937TIP3    H233447   3.167   4.137   8.459  0.2681  1.1047  0.7472
 3938TIP3   OH233448   5.609   6.680   7.205  0.3471 -0.1068 -0.0762
 3938TIP3    H133449   5.625   6.767   7.169 -1.8339 -0.1489 -1.2838
 3938TIP3    H233450   5.638   6.687   7.296 -0.6567  2.2008  0.1427
 3939TIP3   OH233451   1.549   0.737   7.804 -0.3796 -0.4706  0.2102
 3939TIP3    H133452   1.536   0.802   7.735 -1.2540 -0.3095  0.5073
 3939TIP3    H233453   1.494   0.768   7.876  1.0176 -0.2783  1.2362
 3940TIP3   OH233454   1.577   3.453   7.464 -0.1247  0.2969  0.2121
 3940TIP3    H133455   1.661   3.408   7.475 -0.7172 -0.7445  0.6210
 3940TIP3    H233456   1.598   3.532   7.415  0.8124 -0.9152 -1.4353
 3941TIP3   OH233457   5.342   4.122   7.460  0.0051  0.4023 -0.2447
 3941TIP3    H133458   5.356   4.211   7.492 -1.7168  0.0014  1.9092
 3941TIP3    H233459   5.304   4.075   7.535  0.0694 -1.9336 -1.5611
 3942TIP3   OH233460   3.484   2.844   8.658  0.6783 -0.0718  0.4113
 3942TIP3    H133461   3.461   2.804   8.742  1.1556  1.5301  1.3392
 3942TIP3    H233462   3.404   2.838   8.606  0.3566 -1.0220  0.9950
 3943TIP3   OH233463   5.189   0.882   8.275  0.5616  0.1970 -0.1658
 3943TIP3    H133464   5.145   0.835   8.204  1.8030  0.5064 -1.1842
 3943TIP3    H233465   5.265   0.827   8.296 -0.0058 -0.0889  1.2169
 3944TIP3   OH233466   4.458   6.714   8.097 -0.5039 -0.6543  0.7291
 3944TIP3    H133467   4.425   6.693   8.010 -1.2345 -0.5127  0.9714
 3944TIP3    H233468   4.381   6.740   8.147 -0.3794 -2.3901  1.9254
 3945TIP3   OH233469   6.753   0.535   7.210 -0.3014 -1.1142 -0.8028
 3945TIP3    H133470   6.707   0.582   7.140 -1.5343  0.4411  0.9481
 3945TIP3    H233471   6.842   0.525   7.177  0.4986  3.7378 -0.9677
 3946TIP3   OH233472   4.907   5.966   0.523 -0.1720 -0.3378 -0.1157
 3946TIP3    H133473   4.934   5.945   0.612  0.1666  0.3104 -0.0582
 3946TIP3    H233474   4.942   6.054   0.507  1.4719 -1.1903 -1.5859
 3947TIP3   OH233475   4.768   4.254   2.014  0.3074  0.3013 -0.0774
 3947TIP3    H133476   4.783   4.170   2.059 -1.4776 -0.0428 -0.0494
 3947TIP3    H233477   4.790   4.320   2.079 -0.7127 -0.1823  0.7851
 3948TIP3   OH233478   1.426   5.928   0.878  0.0974 -0.0812  0.3790
 3948TIP3    H133479   1.410   5.985   0.803 -1.9953 -2.4522 -1.1256
 3948TIP3    H233480   1.340   5.918   0.919  1.0542  0.5118  2.6769
 3949TIP3   OH233481   0.956   3.589   2.184 -0.2875 -0.1131 -0.8051
 3949TIP3    H133482   0.951   3.599   2.088 -0.1344 -0.8011 -0.8884
 3949TIP3    H233483   0.869   3.557   2.209 -0.5445  0.6997 -0.6265
 3950TIP3   OH233484   6.078   5.069   1.702  0.1850  0.4723 -0.1097
 3950TIP3    H133485   6.031   5.073   1.786  0.6713  1.6591  0.1296
 3950TIP3    H233486   6.071   4.977   1.675  0.4734 -0.0558  1.4967
 3951TIP3   OH233487   5.888   5.624   1.774 -0.0916  0.2868  0.0702
 3951TIP3    H133488   5.951   5.695   1.785  0.1008  0.4297 -1.6512
 3951TIP3    H233489   5.941   5.546   1.760 -0.2334  0.4915 -1.8985
 3952TIP3   OH233490   1.513   6.192   7.965  0.1322  0.3239 -0.3185
 3952TIP3    H133491   1.566   6.214   8.041  1.5690 -1.7241 -0.6252
 3952TIP3    H233492   1.511   6.096   7.965  1.4403  0.1635 -3.6071
 3953TIP3   OH233493   4.670   2.231   2.042  0.4589  0.3716  0.2991
 3953TIP3    H133494   4.645   2.324   2.035 -2.1569 -0.1569  1.2805
 3953TIP3    H233495   4.732   2.228   2.114  0.8368  1.4010  0.0366
 3954TIP3   OH233496   6.488   5.620   1.551 -0.3996  0.0029 -0.2290
 3954TIP3    H133497   6.525   5.685   1.611 -0.0084 -0.0887 -0.3705
 3954TIP3    H233498   6.533   5.635   1.468 -0.3822 -0.3784 -0.2920
 3955TIP3   OH233499   4.601   0.130   1.043  0.1728 -0.2075  0.2709
 3955TIP3    H133500   4.656   0.207   1.032  1.7365 -1.1574  1.1476
 3955TIP3    H233501   4.584   0.125   1.137  2.4614 -2.4322  0.6846
 3956TIP3   OH233502   0.864   5.309   7.528 -0.2489  0.0663  0.4493
 3956TIP3    H133503   0.889   5.400   7.510 -0.0680  0.0948  0.8320
 3956TIP3    H233504   0.893   5.293   7.618  0.1305 -0.5119  0.2344
 3957TIP3   OH233505   1.328   3.994   8.617  0.3575  0.7020 -0.7902
 3957TIP3    H133506   1.300   4.007   8.527 -1.7353  1.4635 -0.0985
 3957TIP3    H233507   1.251   3.956   8.661  1.6263 -0.5286  0.4833
 3958TIP3   OH233508   1.038   2.803   1.927  0.4692 -0.0591  0.7855
 3958TIP3    H133509   1.061   2.806   2.020  0.9370  1.5718  0.6502
 3958TIP3    H233510   0.943   2.792   1.927  0.1744  2.0578  1.5321
 3959TIP3   OH233511   0.670   2.079   8.220 -0.0298 -0.4310 -0.3095
 3959TIP3    H133512   0.637   2.142   8.155  2.9872  2.3289  0.5437
 3959TIP3    H233513   0.605   2.080   8.290 -1.5493 -0.6689 -1.6626
 3960TIP3   OH233514   3.534   3.066   8.493  0.3612 -0.0876 -0.0024
 3960TIP3    H133515   3.485   3.006   8.549 -0.3233  0.2302 -0.2537
 3960TIP3    H233516   3.490   3.061   8.408  2.1813 -1.5782 -0.9298
 3961TIP3   OH233517   1.695   2.252   6.581 -0.0713 -0.0010 -0.3845
 3961TIP3    H133518   1.728   2.342   6.570 -0.4551  0.1150 -0.5796
 3961TIP3    H233519   1.601   2.262   6.592 -0.0255 -0.3251  0.3504
 3962TIP3   OH233520   6.316   4.959   1.077 -0.2466 -0.0473  0.1591
 3962TIP3    H133521   6.231   4.968   1.034  1.2601  2.1332 -2.7641
 3962TIP3    H233522   6.363   4.895   1.024  0.7201  0.6005  0.2036
 3963TIP3   OH233523   3.424   0.029   6.805 -0.2933 -0.1022 -0.0657
 3963TIP3    H133524   3.465   0.087   6.741 -0.4486  1.6583  1.3438
 3963TIP3    H233525   3.498  -0.005   6.856 -0.3284  0.3084  0.2620
 3964TIP3   OH233526   3.142   1.535   8.191  0.6108  0.3063 -0.0901
 3964TIP3    H133527   3.228   1.503   8.220 -0.3777 -2.3448  0.2160
 3964TIP3    H233528   3.147   1.535   8.096  0.4681 -1.4516 -0.1245
 3965TIP3   OH233529   4.285   5.430   6.621 -0.0983 -0.2220  0.7555
 3965TIP3    H133530   4.379   5.432   6.601 -0.1247 -1.3662  0.4537
 3965TIP3    H233531   4.264   5.337   6.625 -1.6754 -0.0095 -1.3277
 3966TIP3   OH233532   4.628   0.076   7.675  0.2533  0.3984  0.0177
 3966TIP3    H133533   4.664  -0.004   7.638  0.6793 -0.1503  1.5217
 3966TIP3    H233534   4.577   0.115   7.604 -0.6051 -1.5977 -0.5322
 3967TIP3   OH233535   5.424   6.239   8.666  0.1534 -0.5568  0.2503
 3967TIP3    H133536   5.488   6.309   8.658  0.6640 -0.9950  0.4570
 3967TIP3    H233537   5.433   6.207   8.756  0.8301 -1.7411 -0.2136
 3968TIP3   OH233538   5.948   6.276   1.499 -0.5074 -0.0514 -0.6118
 3968TIP3    H133539   5.944   6.213   1.427  2.0564  3.0022 -3.7848
 3968TIP3    H233540   5.907   6.355   1.463  2.1159  2.0360  0.6629
 3969TIP3   OH233541   1.840   0.843   7.660 -0.4932 -0.9490  0.6280
 3969TIP3    H133542   1.841   0.814   7.751 -0.4476 -0.2690  0.8514
 3969TIP3    H233543   1.860   0.764   7.609 -1.3599 -1.5219  1.1472
 3970TIP3   OH233544   6.480   5.999   1.640 -0.2940  0.4203 -0.3346
 3970TIP3    H133545   6.561   6.044   1.617  1.3883 -2.5217 -0.6563
 3970TIP3    H233546   6.451   6.043   1.720  0.9496  2.3120 -0.8457
 3971TIP3   OH233547   3.474   6.092   8.471  0.3175  0.4674  0.1638
 3971TIP3    H133548   3.544   6.156   8.457  1.9904 -0.2576  3.9596
 3971TIP3    H233549   3.520   6.009   8.481 -1.2915 -0.3698  0.8206
 3972TIP3   OH233550   0.744   3.015   1.810 -0.0192 -0.2456  0.2615
 3972TIP3    H133551   0.718   2.925   1.792 -1.6588  0.0568  0.9108
 3972TIP3    H233552   0.776   3.014   1.900  0.8646 -0.3480 -0.0508
 3973TIP3   OH233553   2.612   1.662   2.349  0.4928  0.4599 -0.0754
 3973TIP3    H133554   2.647   1.749   2.368 -2.7057  1.7076  0.9611
 3973TIP3    H233555   2.603   1.621   2.435 -1.3125  0.5873 -0.1639
 3974TIP3   OH233556   5.383   5.308   1.904 -0.0899  0.4773 -0.0954
 3974TIP3    H133557   5.473   5.333   1.887  0.3778 -0.7009  0.5381
 3974TIP3    H233558   5.343   5.300   1.817  0.6591  0.1254 -0.4086
 3975TIP3   OH233559   2.488   1.520   7.387  0.9031 -0.0547  0.9069
 3975TIP3    H133560   2.405   1.479   7.363  1.0118  0.9318 -1.3443
 3975TIP3    H233561   2.467   1.576   7.461  0.2955 -2.3122  2.5617
 3976TIP3   OH233562   3.078   3.967   0.267 -0.3143 -0.1996  0.1095
 3976TIP3    H133563   2.989   3.952   0.298  0.4013 -2.4174  1.3209
 3976TIP3    H233564   3.071   3.963   0.171 -1.5810  0.2976  0.1588
 3977TIP3   OH233565   1.723   0.419   0.630  0.0885  0.2176  0.3099
 3977TIP3    H133566   1.685   0.496   0.672  1.0178  0.7721  0.1472
 3977TIP3    H233567   1.648   0.373   0.593 -0.6218  0.3535  1.5064
 3978TIP3   OH233568   5.057   4.049   7.071  0.3109 -0.3899 -0.0471
 3978TIP3    H133569   4.991   4.113   7.048  2.7008  1.4513 -2.2951
 3978TIP3    H233570   5.066   4.057   7.166 -1.3852  0.5492  0.0685
 3979TIP3   OH233571   1.568   0.105   7.155 -0.3157  0.2212  0.9532
 3979TIP3    H133572   1.605   0.064   7.234  1.1519 -0.0452  0.1440
 3979TIP3    H233573   1.542   0.031   7.100  0.7775  0.3673  0.2166
 3980TIP3   OH233574   0.982   1.915   1.696  0.2580 -0.7624 -0.3753
 3980TIP3    H133575   0.927   1.917   1.618  1.3438 -2.1770 -1.2384
 3980TIP3    H233576   0.926   1.948   1.767 -1.2209 -0.8436 -1.4661
 3981TIP3   OH233577   4.879   2.380   0.574 -0.0557 -0.3809 -0.4018
 3981TIP3    H133578   4.821   2.306   0.594  0.5341 -1.0603 -1.1563
 3981TIP3    H233579   4.819   2.454   0.559 -0.6100 -0.2619  1.9627
 3982TIP3   OH233580   5.998   5.114   6.518 -0.1490  1.0159  0.2791
 3982TIP3    H133581   5.956   5.034   6.487 -0.8531  2.3063 -2.3374
 3982TIP3    H233582   6.092   5.098   6.506 -0.0711 -0.2238  2.0269
 3983TIP3   OH233583   1.106   2.351   0.512 -0.2613 -0.1184 -0.1763
 3983TIP3    H133584   1.114   2.350   0.416 -0.5239  1.1528 -0.2284
 3983TIP3    H233585   1.067   2.436   0.532 -1.2624 -0.8190  0.9884
 3984TIP3   OH233586   0.617   5.885   7.202 -0.3582 -0.2375 -0.1851
 3984TIP3    H133587   0.614   5.976   7.172  2.8284  0.2599  0.5679
 3984TIP3    H233588   0.702   5.853   7.172  0.7156 -1.3784  3.4795
 3985TIP3   OH233589   6.142   2.489   2.216  0.3555  0.1476  0.1513
 3985TIP3    H133590   6.078   2.419   2.203  0.5123 -0.1842  1.0511
 3985TIP3    H233591   6.093   2.560   2.257  0.5289 -0.0628  0.7340
 3986TIP3   OH233592   4.706   4.252   7.306 -0.2634 -0.3327 -0.6735
 3986TIP3    H133593   4.736   4.261   7.396 -1.5630  1.7859 -0.3955
 3986TIP3    H233594   4.629   4.308   7.301 -1.4205 -1.9922 -2.5775
 3987TIP3   OH233595   2.141   5.988   8.759  0.0625 -0.5950  0.0094
 3987TIP3    H133596   2.132   5.978   8.854 -0.8255 -0.8272 -0.0897
 3987TIP3    H233597   2.135   5.899   8.724  2.2631 -0.7486 -0.1570
 3988TIP3   OH233598   2.391   6.355   6.873  0.3695 -0.2063 -0.3533
 3988TIP3    H133599   2.358   6.343   6.784  0.5202 -1.7076 -0.2309
 3988TIP3    H233600   2.448   6.431   6.868 -0.1547  0.1341 -1.3898
 3989TIP3   OH233601   1.289   2.942   0.926  0.6242 -0.4944  0.4268
 3989TIP3    H133602   1.365   2.890   0.897 -0.2304 -1.4109 -0.2223
 3989TIP3    H233603   1.218   2.916   0.867 -0.9484 -1.6866  2.7165
 3990TIP3   OH233604   1.866   2.191   1.945  0.5053  0.2281 -0.8351
 3990TIP3    H133605   1.828   2.177   2.032  0.2864 -1.3320 -1.1503
 3990TIP3    H233606   1.819   2.130   1.888  2.0321 -0.2307 -1.6654
 3991TIP3   OH233607   4.557   3.398   7.543  0.6543  0.1289  0.9079
 3991TIP3    H133608   4.593   3.446   7.468 -2.3416  0.3006 -0.5567
 3991TIP3    H233609   4.582   3.307   7.527  0.3932  0.2224 -0.0921
 3992TIP3   OH233610   3.301   3.431   1.017 -0.3324  0.2331 -0.6606
 3992TIP3    H133611   3.210   3.409   1.034 -0.3957 -0.3436 -1.6242
 3992TIP3    H233612   3.299   3.522   0.987 -0.9002 -0.4319 -2.8044
 3993TIP3   OH233613   1.963   4.252   1.891 -0.3036  0.1629  0.7191
 3993TIP3    H133614   2.002   4.322   1.942 -0.2847  0.5115  0.2374
 3993TIP3    H233615   1.968   4.283   1.800  3.2162 -2.0536 -0.0270
 3994TIP3   OH233616   2.065   6.779   8.862 -0.3840 -0.1277  0.5178
 3994TIP3    H133617   2.073   6.843   8.932  0.5917  1.4342 -0.9473
 3994TIP3    H233618   2.154   6.768   8.829 -0.8293 -0.7473 -0.5325
 3995TIP3   OH233619   5.015   4.069   7.949  0.1387  0.5714  0.1362
 3995TIP3    H133620   4.986   4.015   7.875  0.5194  0.2610  0.2068
 3995TIP3    H233621   4.935   4.109   7.983 -0.1410  0.1059  0.0333
 3996TIP3   OH233622   2.785   1.700   8.701 -0.1325  0.3401 -0.0499
 3996TIP3    H133623   2.777   1.620   8.752  0.1840 -1.4667 -2.6127
 3996TIP3    H233624   2.879   1.705   8.679 -0.1250  1.4937  0.1914
 3997TIP3   OH233625   6.091   0.792   8.230 -0.2688  0.6106  0.3188
 3997TIP3    H133626   6.110   0.882   8.254  0.4628  0.5803 -0.1241
 3997TIP3    H233627   6.133   0.780   8.145 -0.3773 -0.1400  0.3605
 3998TIP3   OH233628   5.698   1.635   7.870 -0.6389 -0.5122  0.5220
 3998TIP3    H133629   5.706   1.666   7.960  0.5363  0.3603  0.1401
 3998TIP3    H233630   5.727   1.544   7.873  0.0295 -0.2937  0.9216
 3999TIP3   OH233631   3.912   1.260   0.359 -0.0575 -0.3466  0.0984
 3999TIP3    H133632   3.964   1.184   0.382 -0.2278 -0.6890 -0.6234
 3999TIP3    H233633   3.840   1.261   0.422 -1.0423 -1.8061 -0.9411
 4000TIP3   OH233634   0.253   0.839   1.361 -0.1256 -0.2356 -0.5944
 4000TIP3    H133635   0.308   0.900   1.409 -0.4777 -0.1061 -0.3463
 4000TIP3    H233636   0.311   0.800   1.296  0.6940 -1.3470  0.7380
 4001TIP3   OH233637   3.616   5.665   0.070  0.2956 -0.0877 -0.2256
 4001TIP3    H133638   3.667   5.587   0.090  1.1732  0.5858  0.2114
 4001TIP3    H233639   3.529   5.632   0.046  0.1115 -1.0902  1.6959
 4002TIP3   OH233640   6.779   1.353   0.084  0.1382 -1.1990 -0.0407
 4002TIP3    H133641   6.846   1.370   0.018  0.7225 -1.8803  0.3579
 4002TIP3    H233642   6.763   1.258   0.077  0.1686 -1.2702  0.7503
 4003TIP3   OH233643   3.755   4.318   7.437 -0.5359 -0.4220 -0.1544
 4003TIP3    H133644   3.838   4.293   7.479 -0.2018 -1.8521 -1.5643
 4003TIP3    H233645   3.697   4.243   7.452 -0.4075 -0.9800 -2.1281
 4004TIP3   OH233646   1.744   4.559   1.628  0.1749  0.3604 -0.0639
 4004TIP3    H133647   1.718   4.649   1.611 -0.0237  0.2844 -0.1615
 4004TIP3    H233648   1.689   4.506   1.570  1.3087  0.2684 -1.0999
 4005TIP3   OH233649   1.160   3.641   0.148 -0.0379 -0.3667 -0.1175
 4005TIP3    H133650   1.167   3.550   0.120 -1.3566 -0.2423 -0.9344
 4005TIP3    H233651   1.099   3.681   0.086 -0.7252  0.6928  1.1824
 4006TIP3   OH233652   3.334   0.564   1.055  0.1885 -0.0386 -0.9738
 4006TIP3    H133653   3.254   0.553   1.003 -0.4997  2.6282 -0.6268
 4006TIP3    H233654   3.389   0.490   1.030 -2.4015 -2.0655 -1.1332
 4007TIP3   OH233655   3.704   0.473   0.194 -0.4664  0.3899 -0.1635
 4007TIP3    H133656   3.646   0.516   0.257  0.0241 -2.2734  2.3345
 4007TIP3    H233657   3.694   0.379   0.212  3.8520 -0.2913 -0.2171
 4008TIP3   OH233658   0.361   5.212   8.079  0.2670  0.3390 -0.3931
 4008TIP3    H133659   0.296   5.275   8.109  0.2181  0.1704 -0.1452
 4008TIP3    H233660   0.341   5.131   8.126 -1.1307 -0.5796 -2.3832
 4009TIP3   OH233661   2.362   2.837   8.367  0.3458 -0.1887 -0.0528
 4009TIP3    H133662   2.443   2.837   8.419  0.2369 -1.9099  0.1785
 4009TIP3    H233663   2.336   2.929   8.365  0.4745  0.0132  2.7810
 4010TIP3   OH233664   2.743   2.528   8.712  0.7663 -0.3498  0.1747
 4010TIP3    H133665   2.834   2.533   8.742  1.4338 -0.9510 -1.5791
 4010TIP3    H233666   2.720   2.618   8.691 -0.2133  0.3256  3.6136
 4011TIP3   OH233667   1.932   4.001   8.922 -0.0204  0.2897  0.0977
 4011TIP3    H133668   1.976   4.027   8.841  1.4122 -0.0991  0.7208
 4011TIP3    H233669   1.853   4.055   8.924  0.5032  1.1487 -0.9831
 4012TIP3   OH233670   5.636   4.484   7.735  0.3801  0.4753  0.2075
 4012TIP3    H133671   5.657   4.391   7.749 -0.1786  0.4722  1.1766
 4012TIP3    H233672   5.548   4.493   7.771 -0.3289  0.9933 -1.5715
 4013TIP3   OH233673   0.120   0.622   1.151  0.0595  0.0767 -0.2808
 4013TIP3    H133674   0.103   0.529   1.135  0.3681  0.1411 -1.0460
 4013TIP3    H233675   0.040   0.666   1.123 -0.7105 -0.0512  1.5377
 4014TIP3   OH233676   1.588   1.188   7.315 -0.3152 -0.5440 -0.2756
 4014TIP3    H133677   1.539   1.252   7.264 -0.8245 -1.6383 -1.2028
 4014TIP3    H233678   1.661   1.238   7.352 -1.1593  0.7339 -0.2848
 4015TIP3   OH233679   5.660   5.571   0.226 -0.1151  0.0068  0.1028
 4015TIP3    H133680   5.676   5.614   0.142  1.7878 -1.9356 -0.6161
 4015TIP3    H233681   5.572   5.534   0.218 -0.2000  0.3816 -0.7764
 4016TIP3   OH233682   3.525   5.677   0.732  0.6685  0.6518 -0.0959
 4016TIP3    H133683   3.446   5.674   0.678  0.3959  0.5732  0.2951
 4016TIP3    H233684   3.533   5.769   0.759  1.0315  0.7676 -0.5947
 4017TIP3   OH233685   1.892   2.257   8.802 -0.6496 -0.0471  0.5261
 4017TIP3    H133686   1.811   2.249   8.751  0.0815  0.7481 -0.8419
 4017TIP3    H233687   1.947   2.186   8.770 -0.6467 -0.3244  1.1417
 4018TIP3   OH233688   4.905   1.397   7.031  0.0088 -0.7830 -0.0342
 4018TIP3    H133689   4.841   1.378   6.962 -1.0777  0.3778  0.6292
 4018TIP3    H233690   4.934   1.311   7.061 -1.3242 -1.3313 -0.2699
 4019TIP3   OH233691   1.454   1.021   1.229 -0.5690 -0.2486 -0.2900
 4019TIP3    H133692   1.487   0.934   1.204  0.4059  0.1497 -0.4457
 4019TIP3    H233693   1.528   1.062   1.273 -1.5203 -0.0629  1.1992
 4020TIP3   OH233694   6.425   0.930   0.611  0.0083  0.0319  0.5590
 4020TIP3    H133695   6.467   0.864   0.666  0.2000  1.1250  1.7795
 4020TIP3    H233696   6.357   0.968   0.667 -1.0978 -0.1462 -0.6266
 4021TIP3   OH233697   3.882   1.822   6.763  0.2429 -0.0131 -1.0617
 4021TIP3    H133698   3.790   1.804   6.744 -0.0780 -1.1849  1.2046
 4021TIP3    H233699   3.930   1.772   6.696 -0.6957  1.7664 -3.1680
 4022TIP3   OH233700   0.477   5.643   2.847  0.2266  0.1016  0.2624
 4022TIP3    H133701   0.459   5.736   2.834 -3.0724 -0.1600  1.9744
 4022TIP3    H233702   0.444   5.601   2.767  0.9359  0.2987 -0.1433
 4023TIP3   OH233703   4.208   3.146   7.074 -0.7324 -0.2579 -0.2504
 4023TIP3    H133704   4.244   3.106   6.995 -0.8160 -0.1297 -0.3539
 4023TIP3    H233705   4.123   3.104   7.086 -1.2035  0.5064 -0.8507
 4024TIP3   OH233706   1.929   4.328   1.323  0.3380 -0.2414 -0.2586
 4024TIP3    H133707   1.873   4.389   1.274  1.1571  0.4685 -0.3413
 4024TIP3    H233708   1.881   4.246   1.323 -1.5723  0.7848  1.2198
 4025TIP3   OH233709   1.386   3.402   6.782 -0.0523  0.4511  0.0456
 4025TIP3    H133710   1.320   3.459   6.822 -0.1951  0.2723  0.0658
 4025TIP3    H233711   1.408   3.445   6.699  2.1045  2.1934  1.4119
 4026TIP3   OH233712   5.759   1.978   0.005 -0.0691 -0.4204  0.3531
 4026TIP3    H133713   5.844   1.998  -0.033 -0.7012 -0.2417 -1.0464
 4026TIP3    H233714   5.725   1.906  -0.047 -0.9015 -0.2927  0.6895
 4027TIP3   OH233715   4.889   6.592   0.688  0.0284 -0.0877 -0.3969
 4027TIP3    H133716   4.951   6.666   0.686  0.3147 -0.3158 -3.3354
 4027TIP3    H233717   4.803   6.633   0.687  0.1848  0.2407 -1.6127
 4028TIP3   OH233718   6.497   5.124   7.021  0.0250 -0.2638  0.8544
 4028TIP3    H133719   6.443   5.120   6.942 -0.2068 -0.8592  1.0374
 4028TIP3    H233720   6.542   5.208   7.015  1.1993 -0.9419 -0.6984
 4029TIP3   OH233721   5.565   2.054   6.752 -0.1316  0.0958 -0.7562
 4029TIP3    H133722   5.523   2.074   6.669 -0.2269 -0.3840 -0.8272
 4029TIP3    H233723   5.658   2.071   6.737 -0.0632 -0.5767 -1.1542
 4030TIP3   OH233724   5.331   0.737   0.250  0.2502  0.4906  0.7642
 4030TIP3    H133725   5.386   0.669   0.211  0.0064  1.2604 -1.0497
 4030TIP3    H233726   5.301   0.700   0.333  4.1585  0.3656  2.3089
 4031TIP3   OH233727   0.549   1.762   1.808 -0.8842 -0.8380 -0.0717
 4031TIP3    H133728   0.497   1.842   1.812 -0.4876 -0.5947  0.1725
 4031TIP3    H233729   0.484   1.691   1.809 -1.2618 -0.5176 -0.8318
 4032TIP3   OH233730   6.049   6.697   1.148  0.1421  1.1813  0.2333
 4032TIP3    H133731   6.013   6.777   1.110 -2.7276 -0.8718 -1.8426
 4032TIP3    H233732   6.086   6.649   1.074 -0.4722 -0.4685  0.9272
 4033TIP3   OH233733   3.145   5.730   0.119 -0.5900  1.1009 -0.6199
 4033TIP3    H133734   3.060   5.725   0.164  1.3904  0.6840  3.5600
 4033TIP3    H233735   3.186   5.645   0.138  1.4419  1.9660 -0.9392
 4034TIP3   OH233736   5.363   1.467   7.517 -0.1717  0.1143 -0.2353
 4034TIP3    H133737   5.333   1.504   7.600 -0.3848 -0.6758  0.0520
 4034TIP3    H233738   5.291   1.411   7.489  0.3372 -0.4606 -0.4150
 4035TIP3   OH233739   2.834   3.239   8.383  0.2765  0.3301 -0.9788
 4035TIP3    H133740   2.910   3.181   8.373 -0.0149 -0.0424 -1.0581
 4035TIP3    H233741   2.808   3.261   8.294 -0.5067 -0.6035 -1.0005
 4036TIP3   OH233742   1.667   3.444   8.256 -0.2273  0.4840  0.0098
 4036TIP3    H133743   1.736   3.380   8.272 -0.7292 -0.6899 -2.1078
 4036TIP3    H233744   1.701   3.501   8.187 -1.1231  0.2566 -0.6423
 4037TIP3   OH233745   5.037   3.567   0.502  0.1744  0.1888  0.0967
 4037TIP3    H133746   5.006   3.525   0.422  2.1593  0.5768 -0.9265
 4037TIP3    H233747   5.067   3.495   0.557 -3.7257 -0.3833  1.8202
 4038TIP3   OH233748   3.329   1.636   7.832  0.3421  0.5838  0.0419
 4038TIP3    H133749   3.380   1.601   7.759  1.1571  0.5048  0.6462
 4038TIP3    H233750   3.303   1.724   7.802  0.2101  0.3523 -0.5501
 4039TIP3   OH233751   5.845   5.428   2.586 -0.3790 -0.0966  0.3350
 4039TIP3    H133752   5.838   5.375   2.665  0.2683 -1.5865 -0.5628
 4039TIP3    H233753   5.940   5.437   2.572 -0.4798  1.2172  0.3943
 4040TIP3   OH233754   4.470   2.805   1.548 -0.3123  0.2520 -0.4267
 4040TIP3    H133755   4.439   2.888   1.512  2.1409  0.7043 -1.6959
 4040TIP3    H233756   4.481   2.748   1.472  0.0248 -0.5475  0.1995
 4041TIP3   OH233757   0.711   0.906   7.786  0.4427 -0.1735  0.5847
 4041TIP3    H133758   0.739   0.923   7.876 -0.5943  1.4873  0.6289
 4041TIP3    H233759   0.776   0.953   7.732  0.7667 -0.7387  0.4768
 4042TIP3   OH233760   2.630   1.929   8.306 -0.0457 -0.2065 -0.9369
 4042TIP3    H133761   2.681   1.881   8.241 -0.0406 -0.4479 -0.7549
 4042TIP3    H233762   2.539   1.901   8.292 -0.0415 -0.2802 -0.8230
 4043TIP3   OH233763   5.390   2.083   6.507  0.5635 -0.3871 -0.5259
 4043TIP3    H133764   5.444   2.047   6.437  0.5353  0.7007 -1.1128
 4043TIP3    H233765   5.357   2.005   6.553  2.8637 -1.1108  0.0666
 4044TIP3   OH233766   2.713   4.941   7.949  0.1793 -0.3062  0.1622
 4044TIP3    H133767   2.623   4.909   7.937 -0.4939  1.4056  0.2647
 4044TIP3    H233768   2.726   4.940   8.044 -0.9018  2.2260  0.4248
 4045TIP3   OH233769   4.755   6.004   1.545  0.5139 -0.2635 -0.0135
 4045TIP3    H133770   4.675   5.982   1.498  0.2487 -0.9477  0.7153
 4045TIP3    H233771   4.725   6.024   1.634  1.2246 -1.5036  0.5323
 4046TIP3   OH233772   5.382   1.101   7.755 -0.1754  0.0336  0.1957
 4046TIP3    H133773   5.404   1.069   7.843 -1.1461 -0.6242  0.2140
 4046TIP3    H233774   5.397   1.195   7.759 -0.7716  0.0925  1.2500
 4047TIP3   OH233775   2.611   0.263   6.590  0.7481 -0.5592 -0.1077
 4047TIP3    H133776   2.565   0.293   6.512 -0.5763 -2.3996 -0.0867
 4047TIP3    H233777   2.553   0.286   6.663  1.9519  1.1071  0.4066
 4048TIP3   OH233778   2.814   0.187   1.511 -0.1839  0.7088 -0.5672
 4048TIP3    H133779   2.824   0.185   1.416  2.1825  3.3061 -0.5210
 4048TIP3    H233780   2.903   0.197   1.545 -1.0799  1.4205  1.8284
 4049TIP3   OH233781   6.661   5.108   1.961  0.1733 -0.0299 -0.1064
 4049TIP3    H133782   6.665   5.030   1.905  0.1715  0.6268 -1.0504
 4049TIP3    H233783   6.574   5.145   1.944 -0.1275 -0.2357  0.9247
 4050TIP3   OH233784   3.692   3.732   6.153 -0.0455  0.0357 -0.3387
 4050TIP3    H133785   3.766   3.771   6.199  0.9142 -1.9948 -0.0435
 4050TIP3    H233786   3.626   3.719   6.221  0.6232 -1.1438  0.1286
 4051TIP3   OH233787   4.908   6.645   7.177 -0.2296 -0.6268  0.3764
 4051TIP3    H133788   4.962   6.588   7.232 -0.2329 -0.2966  0.7247
 4051TIP3    H233789   4.838   6.588   7.145  1.0434 -1.4115 -1.1694
 4052TIP3   OH233790   0.846   2.100   1.829 -0.5256 -0.1140 -0.1610
 4052TIP3    H133791   0.760   2.074   1.860 -0.6483  0.4960  0.0303
 4052TIP3    H233792   0.888   2.140   1.905  0.1078 -0.8365 -0.1258
 4053TIP3   OH233793   0.211   0.939   0.730  0.3813 -0.0735  0.2629
 4053TIP3    H133794   0.247   0.879   0.795 -0.8968 -1.8744 -0.6138
 4053TIP3    H233795   0.146   0.990   0.779 -0.1738 -1.0284  0.5455
 4054TIP3   OH233796   2.047   4.666   1.724 -0.4480  0.2902 -0.0211
 4054TIP3    H133797   2.019   4.722   1.797 -1.3430 -0.5027  0.2635
 4054TIP3    H233798   1.997   4.585   1.735 -0.9392  0.3153 -1.7791
 4055TIP3   OH233799   1.796   6.772   6.017  0.1183  0.0681 -0.1824
 4055TIP3    H133800   1.881   6.814   6.004  0.1351  0.0884 -0.0043
 4055TIP3    H233801   1.732   6.841   5.999  0.1511  0.3128  0.6023
 4056TIP3   OH233802   1.435   5.839   8.510 -0.0969 -0.1287 -0.7597
 4056TIP3    H133803   1.472   5.922   8.481 -1.3401  0.1026 -1.7343
 4056TIP3    H233804   1.352   5.862   8.552  0.4549 -0.7158  0.7650
 4057TIP3   OH233805   5.801   2.922   0.359  0.4700 -0.1362 -0.4293
 4057TIP3    H133806   5.821   2.931   0.265 -0.6714 -0.7197 -0.7431
 4057TIP3    H233807   5.829   2.833   0.380  2.0777  0.4692  0.1619
 4058TIP3   OH233808   1.873   6.320   1.517  0.0643  0.3841  0.2089
 4058TIP3    H133809   1.964   6.350   1.511 -0.5313  2.0817 -1.0233
 4058TIP3    H233810   1.880   6.232   1.555  2.2786  0.1588 -0.5480
 4059TIP3   OH233811   0.963   5.986   7.421  0.1070  0.5876  0.7885
 4059TIP3    H133812   0.984   5.972   7.513 -2.7448  0.2442  1.4788
 4059TIP3    H233813   0.972   6.081   7.408  0.6132  0.6252  1.3672
 4060TIP3   OH233814   0.762   1.506   7.194 -0.3768 -0.4860  0.3330
 4060TIP3    H133815   0.729   1.581   7.145 -0.1089 -0.0831  0.7501
 4060TIP3    H233816   0.695   1.438   7.184 -0.7262 -0.1151  0.1327
 4061TIP3   OH233817   5.276   4.240   0.637  0.2487  0.4987  0.1725
 4061TIP3    H133818   5.213   4.264   0.705  0.6707  0.1561  0.6895
 4061TIP3    H233819   5.290   4.146   0.649 -0.6292  0.1729 -1.2009
 4062TIP3   OH233820   3.988   1.657   7.857 -0.2344  0.0279  0.0522
 4062TIP3    H133821   3.895   1.680   7.852 -0.6518 -1.4227  0.6841
 4062TIP3    H233822   3.990   1.563   7.842  1.0247 -0.1583  1.2164
 4063TIP3   OH233823   6.753   0.021   1.507 -0.3867 -0.1210  0.7184
 4063TIP3    H133824   6.780   0.013   1.415 -0.3686 -0.3690  0.7447
 4063TIP3    H233825   6.689  -0.049   1.519  0.3626 -0.7473  1.1653
 4064TIP3   OH233826   5.763   0.285   7.574 -1.1378  0.4525  0.5997
 4064TIP3    H133827   5.676   0.251   7.555 -1.2578  1.7338 -1.5219
 4064TIP3    H233828   5.809   0.213   7.617 -1.2841 -2.6646 -3.7305
 4065TIP3   OH233829   4.632   3.245   0.444  0.0127  0.2958 -0.1093
 4065TIP3    H133830   4.707   3.188   0.424  1.2248  1.7911  0.0390
 4065TIP3    H233831   4.640   3.318   0.384 -0.7318  0.9999  0.6202
 4066TIP3   OH233832   3.591   4.249   6.741 -0.5161  0.0347  0.1474
 4066TIP3    H133833   3.592   4.209   6.654  0.0970  0.0359  0.1534
 4066TIP3    H233834   3.498   4.253   6.764 -0.5765 -1.7398  0.3219
 4067TIP3   OH233835   0.682   0.219   7.155 -0.2631  0.4201 -0.3194
 4067TIP3    H133836   0.775   0.239   7.147 -0.4925  0.9304 -2.1909
 4067TIP3    H233837   0.650   0.218   7.065 -1.9102 -0.5772  0.2316
 4068TIP3   OH233838   0.728   3.223   8.063 -0.0543  0.0649 -0.0750
 4068TIP3    H133839   0.753   3.302   8.015 -1.8611  1.3346  0.9601
 4068TIP3    H233840   0.741   3.245   8.155 -0.1863 -1.0196  0.2269
 4069TIP3   OH233841   1.396   0.986   7.059 -0.2430 -0.2097 -0.3071
 4069TIP3    H133842   1.402   1.050   6.988  1.6794  1.1419  0.9835
 4069TIP3    H233843   1.480   0.941   7.058 -0.0202  0.1221  1.3340
 4070TIP3   OH233844   6.446   6.043   8.249 -0.6032  0.4058  0.3352
 4070TIP3    H133845   6.439   5.986   8.325 -0.2168 -1.5572 -1.0362
 4070TIP3    H233846   6.438   5.985   8.174 -0.8991  2.2630 -1.1588
 4071TIP3   OH233847   3.107   6.548   0.038 -0.0741 -0.2639 -0.1011
 4071TIP3    H133848   3.163   6.510  -0.030 -0.0329 -0.9990  0.3397
 4071TIP3    H233849   3.018   6.538   0.004  0.0546  1.7078 -1.2168
 4072TIP3   OH233850   2.367   4.819   1.013  0.3302  0.5846 -1.0103
 4072TIP3    H133851   2.436   4.885   1.008  1.8500 -0.8209  0.2904
 4072TIP3    H233852   2.296   4.862   1.061  0.9366  1.5544 -0.9629
 4073TIP3   OH233853   3.358   5.995   7.339 -0.1613 -1.0376  0.0912
 4073TIP3    H133854   3.434   5.970   7.391  1.0271  2.6764  0.4549
 4073TIP3    H233855   3.394   6.033   7.259 -1.7529 -1.4500 -0.8793
 4074TIP3   OH233856   5.337   6.313   0.565  0.0836  0.2246  0.4432
 4074TIP3    H133857   5.291   6.325   0.648 -0.7456 -0.7523  0.1435
 4074TIP3    H233858   5.393   6.237   0.579 -3.6341 -3.1734 -1.2587
 4075TIP3   OH233859   5.434   1.880   0.630 -0.2728 -0.2239  0.2743
 4075TIP3    H133860   5.449   1.792   0.595 -1.4760 -0.4148  0.1814
 4075TIP3    H233861   5.445   1.938   0.556 -1.3175 -0.4832 -0.0941
 4076TIP3   OH233862   1.716   3.039   2.541 -0.0734 -0.2481 -0.2815
 4076TIP3    H133863   1.716   3.109   2.475  1.7617  0.0025 -0.0677
 4076TIP3    H233864   1.798   2.993   2.526  1.4220  1.0589  3.0734
 4077TIP3   OH233865   3.956   2.779   8.084 -0.4944 -0.5116  0.1007
 4077TIP3    H133866   3.975   2.722   8.157 -1.5454 -0.6366  0.3017
 4077TIP3    H233867   4.013   2.855   8.096 -0.3753 -0.7145  0.8270
 4078TIP3   OH233868   0.261   2.652   1.811 -0.3066  0.2409 -0.2021
 4078TIP3    H133869   0.171   2.658   1.846 -0.4913  0.0004 -0.6321
 4078TIP3    H233870   0.286   2.743   1.793 -0.5836  0.2828 -0.3816
 4079TIP3   OH233871   0.012   0.711   8.047  0.3037  0.0921  0.2831
 4079TIP3    H133872  -0.071   0.675   8.017  1.4285 -2.2165 -0.2854
 4079TIP3    H233873   0.079   0.651   8.013  2.1620  1.3800  1.4215
 4080TIP3   OH233874   2.578   0.659   2.381  0.6079  0.0078  0.1959
 4080TIP3    H133875   2.638   0.716   2.428  0.1610  0.8762 -0.2787
 4080TIP3    H233876   2.504   0.649   2.441  0.6094  0.0641  0.2071
 4081TIP3   OH233877   2.681   5.248   0.906  0.7074  0.5418 -0.1897
 4081TIP3    H133878   2.743   5.322   0.904  0.6706  0.5626 -1.7717
 4081TIP3    H233879   2.713   5.188   0.839 -0.1335 -0.1725  0.0280
 4082TIP3   OH233880   1.245   2.876   1.727  0.2846 -0.4476  0.5404
 4082TIP3    H133881   1.161   2.845   1.761 -0.0535 -1.2651 -0.9564
 4082TIP3    H233882   1.222   2.927   1.649  1.0413  1.1968  1.3598
 4083TIP3   OH233883   5.694   6.042   0.898  0.2449  0.1262  0.0061
 4083TIP3    H133884   5.772   5.999   0.866  1.6123  1.1928  1.7182
 4083TIP3    H233885   5.646   6.067   0.819  1.2634 -1.1665 -1.0619
 4084TIP3   OH233886   0.083   2.421   0.970  0.0060  0.0266 -0.6035
 4084TIP3    H133887  -0.012   2.433   0.961 -0.0417 -0.5939 -0.9850
 4084TIP3    H233888   0.104   2.462   1.054 -0.4318  1.0417 -0.9671
 4085TIP3   OH233889   0.491   4.577   7.459  0.5339 -0.3172  0.3548
 4085TIP3    H133890   0.411   4.618   7.493  0.5401  0.7283 -0.8024
 4085TIP3    H233891   0.476   4.483   7.468 -0.1694 -0.1096  1.5843
 4086TIP3   OH233892   5.232   6.673   8.910 -0.1072 -0.1486 -0.5176
 4086TIP3    H133893   5.222   6.707   8.999 -0.0980  1.1391 -0.9805
 4086TIP3    H233894   5.322   6.641   8.906 -0.0271  0.0297 -0.1370
 4087TIP3   OH233895   5.511   1.778   0.343 -0.4155  0.3251  0.4052
 4087TIP3    H133896   5.564   1.705   0.312  0.5084  0.6707  1.1368
 4087TIP3    H233897   5.424   1.763   0.305  0.4523  0.3388 -1.7284
 4088TIP3   OH233898   5.395   5.901   0.276  0.4181 -0.9399  0.5629
 4088TIP3    H133899   5.360   5.827   0.227  1.5804 -1.4276  0.4280
 4088TIP3    H233900   5.331   5.917   0.345  0.7267 -2.8787  1.3531
 4089TIP3   OH233901   3.683   4.165   0.682 -0.7942  0.3260 -0.0392
 4089TIP3    H133902   3.719   4.242   0.638 -0.4128  0.6389  0.7924
 4089TIP3    H233903   3.759   4.122   0.722 -1.3520  1.5456  2.5862
 4090TIP3   OH233904   0.109   2.159   0.827  0.2236 -0.0882 -0.0238
 4090TIP3    H133905   0.033   2.195   0.781 -0.6441 -0.3661  1.1328
 4090TIP3    H233906   0.118   2.214   0.904  1.3201  0.0400 -0.2299
 4091TIP3   OH233907   1.026   1.635   8.895 -0.0575  0.0787 -0.3168
 4091TIP3    H133908   1.114   1.657   8.865 -0.2201  0.2539 -0.6686
 4091TIP3    H233909   1.000   1.561   8.840 -0.1665  0.0879 -0.2785
 4092TIP3   OH233910   4.905   5.500   1.046  0.6010 -0.4470  0.0256
 4092TIP3    H133911   4.921   5.449   0.967 -1.7155  0.5988 -1.2242
 4092TIP3    H233912   4.960   5.578   1.037  0.7434 -0.5827 -0.2804
 4093TIP3   OH233913   1.485   5.923   8.006  0.4224  0.0168 -0.2637
 4093TIP3    H133914   1.561   5.865   8.018  0.1917  0.0163  1.4299
 4093TIP3    H233915   1.423   5.870   7.956  0.3380 -1.1216  0.9847
 4094TIP3   OH233916   4.235   1.253   0.186  0.4743  0.3731  0.2335
 4094TIP3    H133917   4.150   1.285   0.156  0.5712 -0.2481 -0.7408
 4094TIP3    H233918   4.243   1.166   0.147  1.0786 -0.0303  1.2214
 4095TIP3   OH233919   5.351   4.709   1.627 -1.1030 -0.4186 -0.0992
 4095TIP3    H133920   5.363   4.791   1.579  2.5239 -1.3980 -1.1638
 4095TIP3    H233921   5.332   4.645   1.559 -0.4776 -1.0373  0.2973
 4096TIP3   OH233922   0.767   5.706   0.996 -0.6849 -0.5339 -0.2419
 4096TIP3    H133923   0.674   5.707   1.020 -0.8276 -1.5235 -0.6747
 4096TIP3    H233924   0.794   5.798   0.998 -1.2029 -0.3965  1.6092
 4097TIP3   OH233925   0.871   5.280   7.037  0.2817  0.5122  0.2775
 4097TIP3    H133926   0.870   5.346   6.968 -1.2267  2.8791  2.3810
 4097TIP3    H233927   0.798   5.221   7.015 -1.1827  2.1323  0.5472
 4098TIP3   OH233928   6.167   0.235   6.996 -0.4691  0.7362 -0.7803
 4098TIP3    H133929   6.074   0.247   6.978 -0.7531  1.2307  0.8524
 4098TIP3    H233930   6.186   0.146   6.966 -1.7413  0.2131 -0.0834
 4099TIP3   OH233931   1.491   4.762   1.317 -0.0397 -0.3509 -0.0505
 4099TIP3    H133932   1.542   4.717   1.249 -1.4635  0.3846 -1.6729
 4099TIP3    H233933   1.401   4.732   1.303 -0.9358  2.4125 -0.7582
 4100TIP3   OH233934   0.615   6.431   7.624 -0.0560  0.4800  0.3042
 4100TIP3    H133935   0.673   6.379   7.680  0.9388  1.5353  0.2896
 4100TIP3    H233936   0.635   6.522   7.647 -0.0315  0.9225 -1.3401
 4101TIP3   OH233937   3.493   2.461   7.778 -0.1956 -0.3260  0.5552
 4101TIP3    H133938   3.457   2.524   7.840 -2.5432  0.1143 -1.1277
 4101TIP3    H233939   3.570   2.505   7.742  0.7054 -0.2448  2.4850
 4102TIP3   OH233940   5.239   4.984   7.527  0.1376  0.0747  0.0476
 4102TIP3    H133941   5.275   5.030   7.603  1.0549  0.3656 -0.5338
 4102TIP3    H233942   5.308   4.992   7.460 -1.6039  1.9776 -1.6569
 4103TIP3   OH233943   1.188   1.206   8.707 -0.4230 -0.4664 -0.5933
 4103TIP3    H133944   1.125   1.222   8.636  0.0937  1.1815 -0.7213
 4103TIP3    H233945   1.260   1.266   8.689  0.3305 -0.9775  0.6026
 4104TIP3   OH233946   2.224   1.254   7.705  0.3480  0.1087  0.2347
 4104TIP3    H133947   2.150   1.198   7.686 -0.1459  0.4009  1.2487
 4104TIP3    H233948   2.296   1.194   7.724 -0.2953 -0.2033  1.7711
 4105TIP3   OH233949   4.500   4.652   0.620 -0.1434 -0.3778  0.2418
 4105TIP3    H133950   4.490   4.614   0.707 -1.4244 -0.2141  0.1836
 4105TIP3    H233951   4.581   4.702   0.625  0.4400 -1.3620  0.9604
 4106TIP3   OH233952   2.813   5.369   1.882 -0.2895  0.0234  0.0751
 4106TIP3    H133953   2.863   5.375   1.964 -0.2320 -0.0620  0.0473
 4106TIP3    H233954   2.877   5.387   1.813  0.2442 -2.1915 -0.1100
 4107TIP3   OH233955   4.612   0.098   0.761  0.3289 -0.3642 -0.4257
 4107TIP3    H133956   4.533   0.152   0.750  0.3655 -0.3867 -0.8165
 4107TIP3    H233957   4.638   0.112   0.852  0.5965  0.6322 -0.6421
 4108TIP3   OH233958   5.645   0.900   0.317 -0.1261 -0.5900  0.6199
 4108TIP3    H133959   5.693   0.980   0.294 -0.7419 -0.3683  0.0902
 4108TIP3    H233960   5.673   0.880   0.406 -1.4998  1.3649  1.5372
 4109TIP3   OH233961   5.916   5.665   0.880  0.6719  0.3931 -0.8120
 4109TIP3    H133962   5.893   5.595   0.820  1.4966 -0.4824 -0.1411
 4109TIP3    H233963   5.928   5.742   0.824 -0.4066  0.0551 -1.5378
 4110TIP3   OH233964   4.607   0.806   6.484 -0.4360  0.5669 -0.3136
 4110TIP3    H133965   4.554   0.750   6.540 -0.1910 -0.3322 -0.9589
 4110TIP3    H233966   4.599   0.767   6.397  0.7699  0.7718 -0.5304
 4111TIP3   OH233967   3.179   1.384   8.535  0.0817 -0.0555 -0.0734
 4111TIP3    H133968   3.273   1.392   8.518 -0.2241  1.8454 -1.1263
 4111TIP3    H233969   3.150   1.316   8.475  0.7969 -0.7768  0.3772
 4112TIP3   OH233970   3.365   1.188   6.829 -0.1425 -0.5724  0.1518
 4112TIP3    H133971   3.385   1.166   6.920 -1.6133 -0.7565  0.4409
 4112TIP3    H233972   3.431   1.254   6.806  2.7531 -3.2622  0.0821
 4113TIP3   OH233973   4.941   3.418   7.596  0.1175  0.0202 -0.3005
 4113TIP3    H133974   5.026   3.403   7.637  0.5974  1.3890 -0.7331
 4113TIP3    H233975   4.922   3.336   7.550  1.7994  0.1088 -1.2423
 4114TIP3   OH233976   6.350   6.577   0.116 -0.3032  0.3219  0.3603
 4114TIP3    H133977   6.439   6.542   0.120 -0.1119  0.5556 -1.2586
 4114TIP3    H233978   6.328   6.576   0.023 -2.1586 -0.0952  0.7664
 4115TIP3   OH233979   2.684   1.283   0.742 -0.1470 -0.2546 -0.3196
 4115TIP3    H133980   2.766   1.255   0.785 -0.2864  0.2781  0.3090
 4115TIP3    H233981   2.704   1.280   0.648  0.1869 -1.3811 -0.2265
 4116TIP3   OH233982   2.046   0.195   6.631  0.3604 -0.1217 -0.2541
 4116TIP3    H133983   2.120   0.221   6.576  1.4220  0.5986  1.4495
 4116TIP3    H233984   2.086   0.171   6.715 -1.1623 -1.6579  0.0786
 4117TIP3   OH233985   5.343   5.696   2.388  0.5739  0.1137  0.0366
 4117TIP3    H133986   5.405   5.635   2.428 -0.2548 -0.6210  0.2484
 4117TIP3    H233987   5.335   5.768   2.450 -1.0568 -1.2302  1.5154
 4118TIP3   OH233988   4.935   0.301   7.426  0.0177 -0.4017 -0.8785
 4118TIP3    H133989   4.862   0.353   7.460 -0.5233 -0.8155 -1.3959
 4118TIP3    H233990   5.004   0.311   7.492 -0.0922  0.9165 -0.9435
 4119TIP3   OH233991   5.802   2.269   1.818 -0.1878  0.3881 -0.3373
 4119TIP3    H133992   5.849   2.200   1.773 -1.2760 -1.4230  1.1529
 4119TIP3    H233993   5.823   2.257   1.911 -1.5569  1.1081  0.1070
 4120TIP3   OH233994   2.731   5.143   6.890 -0.2070 -0.9373  0.1001
 4120TIP3    H133995   2.746   5.060   6.846 -1.7284 -0.6526 -1.0401
 4120TIP3    H233996   2.755   5.209   6.826 -1.2226 -0.5112  0.1425
 4121TIP3   OH233997   6.039   6.321   8.352  0.4724  0.4852 -0.3319
 4121TIP3    H133998   5.998   6.324   8.266  0.4604  0.1002 -0.3438
 4121TIP3    H233999   6.042   6.227   8.374 -1.4957  0.6966  1.0376
 4122TIP3   OH234000   2.478   5.762   0.958 -0.2939 -0.3849  0.5907
 4122TIP3    H134001   2.498   5.844   1.003 -2.8473 -0.2064  1.6037
 4122TIP3    H234002   2.503   5.694   1.020 -0.7458 -0.2482  0.9339
 4123TIP3   OH234003   4.912   4.646   0.704  0.0984  0.8657 -0.1326
 4123TIP3    H134004   4.832   4.696   0.686 -0.0233  0.2921 -1.3212
 4123TIP3    H234005   4.929   4.599   0.622 -0.3385 -1.8288  1.2169
 4124TIP3   OH234006   5.906   6.069   1.340 -0.0940  0.2817  0.4483
 4124TIP3    H134007   5.946   6.004   1.282 -0.7651  1.3939 -1.3739
 4124TIP3    H234008   5.850   6.018   1.398  1.5904 -1.0022  1.0228
 4125TIP3   OH234009   2.013   4.663   1.364  0.6488  0.1708  0.7938
 4125TIP3    H134010   2.049   4.606   1.431  1.0983  0.6883  0.9988
 4125TIP3    H234011   2.007   4.749   1.405  3.3922  1.1323 -0.5508
 4126TIP3   OH234012   4.420   6.122   7.552  0.1677  0.4513 -0.4651
 4126TIP3    H134013   4.347   6.175   7.584 -1.4174 -0.9817 -1.5827
 4126TIP3    H234014   4.473   6.105   7.631 -0.5159  1.7604  0.3117
 4127TIP3   OH234015   5.255   5.586   6.308  0.1011  0.1496 -0.6551
 4127TIP3    H134016   5.218   5.523   6.245 -1.1663 -0.2344  0.4304
 4127TIP3    H234017   5.180   5.615   6.360  1.3681 -1.1530  2.1134
 4128TIP3   OH234018   2.917   4.121   1.111  0.4738  0.3739 -0.2521
 4128TIP3    H134019   2.854   4.130   1.183  0.2165 -2.2917 -0.0342
 4128TIP3    H234020   2.870   4.072   1.044  1.5875  0.3605 -1.0527
 4129TIP3   OH234021   0.837   2.464   0.247 -0.0771 -0.7898 -0.4146
 4129TIP3    H134022   0.776   2.392   0.257 -1.1793  0.1437 -0.1549
 4129TIP3    H234023   0.790   2.529   0.194  0.7322 -0.1007 -0.3261
 4130TIP3   OH234024   5.487   0.607   0.525 -0.5009 -0.5713 -0.2666
 4130TIP3    H134025   5.486   0.584   0.432  0.8073 -1.3728 -0.1139
 4130TIP3    H234026   5.397   0.591   0.555 -0.8162 -0.7743 -1.2852
 4131TIP3   OH234027   0.944   6.777   7.820  0.4826  0.6021 -0.4328
 4131TIP3    H134028   0.995   6.853   7.847  2.9256 -0.7600 -0.8853
 4131TIP3    H234029   0.986   6.748   7.739 -1.2439 -0.4498 -1.0037
 4132TIP3   OH234030   6.070   2.538   8.749  0.1512  0.3611 -0.4245
 4132TIP3    H134031   6.005   2.566   8.814  0.8035 -0.2306  0.5032
 4132TIP3    H234032   6.053   2.593   8.673 -1.4867  0.1657 -0.2312
 4133TIP3   OH234033   3.635   3.085   7.177 -0.4109 -0.2198  0.2431
 4133TIP3    H134034   3.729   3.073   7.190 -0.3761  1.2289  1.6736
 4133TIP3    H234035   3.627   3.114   7.086  0.4884 -0.6396  0.0190
 4134TIP3   OH234036   4.887   5.697   1.302 -0.3310  0.0533  0.1710
 4134TIP3    H134037   4.812   5.757   1.299 -0.3212  0.0291 -0.9372
 4134TIP3    H234038   4.960   5.752   1.330 -0.3786  0.5147 -0.5775
 4135TIP3   OH234039   2.450   4.341   8.563  0.3851 -0.3073 -0.0461
 4135TIP3    H134040   2.361   4.366   8.588  0.7689 -0.6356  1.8066
 4135TIP3    H234041   2.447   4.246   8.554  0.7311 -0.4106  0.8721
 4136TIP3   OH234042   1.100   0.812   0.138 -0.3779  0.4607  0.5361
 4136TIP3    H134043   1.085   0.717   0.137 -0.0450  0.4096 -0.2143
 4136TIP3    H234044   1.118   0.835   0.047  0.2462  1.1362  0.8146
 4137TIP3   OH234045   5.380   4.043   1.812 -0.2446 -0.3202 -0.0644
 4137TIP3    H134046   5.294   4.002   1.823 -0.9398  1.1208  0.0714
 4137TIP3    H234047   5.386   4.107   1.883  1.0779 -0.5978  0.1068
 4138TIP3   OH234048   6.408   4.190   2.417  0.5200 -0.5236  0.1022
 4138TIP3    H134049   6.378   4.254   2.481 -1.9836 -1.1741 -0.3209
 4138TIP3    H234050   6.479   4.143   2.461  0.7313  0.8659  1.3181
 4139TIP3   OH234051   3.359   3.531   1.963  0.1561  0.3708 -0.1964
 4139TIP3    H134052   3.273   3.556   1.927 -0.0811 -0.8155 -0.5073
 4139TIP3    H234053   3.412   3.610   1.954 -0.6591  0.8786 -0.7880
 4140TIP3   OH234054   2.596   6.689   0.546 -0.1001  0.0446 -0.0659
 4140TIP3    H134055   2.510   6.673   0.510 -0.1055  1.9628 -1.0697
 4140TIP3    H234056   2.594   6.649   0.633 -2.5975  1.4521  0.6140
 4141TIP3   OH234057   3.688   4.703   0.547  0.0156 -0.3055 -0.2237
 4141TIP3    H134058   3.658   4.702   0.456  0.6676 -2.7437 -0.5013
 4141TIP3    H234059   3.657   4.619   0.583 -1.7534  1.3029  2.3913
 4142TIP3   OH234060   4.597   6.253   6.900 -0.4020  0.6457  0.5375
 4142TIP3    H134061   4.504   6.272   6.906 -0.6778 -0.6714  0.6933
 4142TIP3    H234062   4.622   6.281   6.812 -1.7687 -2.1971 -0.8897
 4143TIP3   OH234063   0.059   0.848   0.349  0.0793  0.1636 -0.1800
 4143TIP3    H134064   0.117   0.914   0.310  0.3885 -1.0412 -1.8500
 4143TIP3    H234065  -0.027   0.868   0.311  0.0493 -0.0168 -0.2052
 4144TIP3   OH234066   3.674   1.306   8.143  0.4840 -0.5035 -0.0474
 4144TIP3    H134067   3.623   1.331   8.066 -0.5661 -0.1578  0.7320
 4144TIP3    H234068   3.634   1.224   8.173  0.3237 -0.1923  0.6154
 4145TIP3   OH234069   1.469   6.394   1.232 -0.2066 -0.3662 -0.5560
 4145TIP3    H134070   1.408   6.460   1.198 -0.0280 -0.1869 -0.5337
 4145TIP3    H234071   1.486   6.336   1.157  1.6579  1.1094 -1.3673
 4146TIP3   OH234072   4.842   4.011   2.119 -0.0394  0.2740  0.6489
 4146TIP3    H134073   4.805   3.953   2.186 -0.5333 -0.9553 -0.6463
 4146TIP3    H234074   4.935   4.017   2.142 -0.2036 -0.0853  1.4653
 4147TIP3   OH234075   6.536   1.474   8.756  0.4701  0.1790  0.3341
 4147TIP3    H134076   6.610   1.518   8.797  1.1277 -0.1995 -0.4235
 4147TIP3    H234077   6.479   1.545   8.726 -0.1891  0.4724  2.1343
 4148TIP3   OH234078   2.298   1.079   0.256 -0.0287 -0.1633  0.1210
 4148TIP3    H134079   2.299   1.001   0.311  2.4131  0.5807  1.2969
 4148TIP3    H234080   2.269   1.149   0.315  0.1037  0.2006 -0.2441
 4149TIP3   OH234081   5.291   0.832   7.701 -0.5187 -0.3174 -0.1728
 4149TIP3    H134082   5.273   0.907   7.757 -0.1496 -0.7877  0.6082
 4149TIP3    H234083   5.286   0.866   7.612 -0.0687  0.6977  0.1719
 4150TIP3   OH234084   3.806   2.742   0.515 -0.5984 -0.3045  0.1090
 4150TIP3    H134085   3.811   2.647   0.509 -3.9662 -0.6716  0.9969
 4150TIP3    H234086   3.818   2.773   0.426  0.5752 -1.5248 -0.1876
 4151TIP3   OH234087   0.634   4.368   1.225  0.8465  0.2832 -0.2237
 4151TIP3    H134088   0.567   4.320   1.177  1.2768 -1.4860  0.8646
 4151TIP3    H234089   0.715   4.348   1.179  1.1525 -0.8072  0.7442
 4152TIP3   OH234090   5.958   6.574   0.218  0.1318  0.5642 -0.2198
 4152TIP3    H134091   5.997   6.525   0.145  2.1092 -1.1689  1.8517
 4152TIP3    H234092   5.872   6.533   0.231  0.3539 -0.0495 -0.6521
 4153TIP3   OH234093   4.133   6.214   7.365  0.1035  0.0932  0.4072
 4153TIP3    H134094   4.178   6.298   7.356 -1.1978  0.7608 -0.2593
 4153TIP3    H234095   4.056   6.222   7.308 -0.0167 -1.5791  0.2842
 4154TIP3   OH234096   1.860   3.157   8.208  0.5122 -0.2285  0.1237
 4154TIP3    H134097   1.825   3.161   8.119  0.6890 -0.6777  0.0327
 4154TIP3    H234098   1.846   3.067   8.236  1.1026 -0.2761  0.2842
 4155TIP3   OH234099   6.353   0.404   0.930 -0.1586 -0.0838 -0.2391
 4155TIP3    H134100   6.266   0.404   0.890 -0.0613  0.3322 -0.4522
 4155TIP3    H234101   6.377   0.496   0.936 -0.8028  0.0077  2.1314
 4156TIP3   OH234102   6.634   2.710   8.529 -0.0321  0.3761  0.3083
 4156TIP3    H134103   6.574   2.728   8.456  0.0448  0.6199  0.3049
 4156TIP3    H234104   6.715   2.755   8.505  0.2556 -0.2136  0.1643
 4157TIP3   OH234105   0.745   1.376   7.647 -0.4866  0.2213  0.2848
 4157TIP3    H134106   0.766   1.348   7.736  1.3174  2.9312  0.8323
 4157TIP3    H234107   0.743   1.472   7.652  1.4347  0.5605 -2.9189
 4158TIP3   OH234108   4.157   1.143   7.141 -0.2767 -0.4443  0.1454
 4158TIP3    H134109   4.076   1.092   7.130 -0.9790  0.7824 -0.5996
 4158TIP3    H234110   4.165   1.192   7.059  0.2810  0.7650  0.9146
 4159TIP3   OH234111   1.682   6.462   1.635 -1.1457  0.0342  0.2780
 4159TIP3    H134112   1.658   6.526   1.567  0.9334  0.5214 -0.0691
 4159TIP3    H234113   1.766   6.426   1.606 -0.5288 -0.2460  2.2413
 4160TIP3   OH234114   1.149   6.309   1.240  0.4107 -0.1248 -0.1792
 4160TIP3    H134115   1.207   6.259   1.299  0.8629 -0.2761 -0.7416
 4160TIP3    H234116   1.074   6.251   1.226 -0.0354  0.2030  0.8107
 4161TIP3   OH234117   3.028   4.715   6.178  0.0973 -0.1320 -0.4239
 4161TIP3    H134118   2.961   4.768   6.222  1.0029 -1.4988  2.9038
 4161TIP3    H234119   3.111   4.754   6.206  0.7437 -2.0354  0.4316
 4162TIP3   OH234120   4.247   4.188   0.347  0.5823 -0.1140 -0.2826
 4162TIP3    H134121   4.309   4.118   0.369  0.4064  0.1037  0.9652
 4162TIP3    H234122   4.215   4.220   0.432  0.3277  1.1791 -0.8361
 4163TIP3   OH234123   6.459   3.573   7.297 -0.1886 -0.0387 -0.4973
 4163TIP3    H134124   6.446   3.591   7.204  0.5765 -4.0710 -1.5940
 4163TIP3    H234125   6.372   3.579   7.336 -0.7493  0.3294 -1.7691
 4164TIP3   OH234126   5.600   4.480   2.049  0.2542  0.1132 -0.3624
 4164TIP3    H134127   5.534   4.508   1.986  1.3993  0.8552 -1.2809
 4164TIP3    H234128   5.585   4.536   2.126 -0.5658 -0.1531 -0.3253
 4165TIP3   OH234129   1.961   1.296   8.592 -0.3479 -0.6139  0.1824
 4165TIP3    H134130   1.894   1.345   8.641 -1.4819  0.4873 -2.2898
 4165TIP3    H234131   1.924   1.208   8.583 -1.2451 -0.1691 -0.6742
 4166TIP3   OH234132   3.855   3.150   7.632  0.3439  0.1205 -0.1559
 4166TIP3    H134133   3.818   3.150   7.720  0.6054  0.1579 -0.0448
 4166TIP3    H234134   3.792   3.101   7.579  0.8936 -1.1768  0.3477
 4167TIP3   OH234135   0.405   6.262   7.220 -0.0903 -0.0769 -0.2812
 4167TIP3    H134136   0.345   6.306   7.279 -0.2964  1.2838 -1.4552
 4167TIP3    H234137   0.374   6.284   7.132  1.4903 -0.2012 -0.9110
 4168TIP3   OH234138   3.176   4.562   1.685 -0.0856 -0.8782  0.1864
 4168TIP3    H134139   3.158   4.492   1.623  1.2909 -0.9224 -0.1979
 4168TIP3    H234140   3.202   4.517   1.766  0.0277 -0.8155  0.1851
 4169TIP3   OH234141   4.772   5.038   8.267  0.1820  0.1438  0.6999
 4169TIP3    H134142   4.752   5.128   8.294  0.2046 -0.1687  1.8095
 4169TIP3    H234143   4.744   4.984   8.341 -0.4773 -0.8369 -0.2369
 4170TIP3   OH234144   4.362   3.167   0.320 -0.4447  0.0460  0.1548
 4170TIP3    H134145   4.304   3.240   0.342 -0.9029  0.7964 -3.0919
 4170TIP3    H234146   4.447   3.192   0.357 -0.7630  1.9379 -0.2682
 4171TIP3   OH234147   1.145   0.927   1.661 -0.2499 -0.3471  0.3996
 4171TIP3    H134148   1.150   0.920   1.756  0.1937  0.5431  0.4512
 4171TIP3    H234149   1.058   0.892   1.639 -1.3790  1.6386  1.3779
 4172TIP3   OH234150   1.108   3.645   8.257 -0.1534  0.0939  0.3615
 4172TIP3    H134151   1.146   3.635   8.344 -0.7684  0.5135  0.6837
 4172TIP3    H234152   1.057   3.726   8.263 -1.3762 -0.6379  0.0379
 4173TIP3   OH234153   4.064   4.548   6.941 -0.2500  0.6100  0.5401
 4173TIP3    H134154   4.022   4.633   6.947  1.4783  1.5571  0.0074
 4173TIP3    H234155   4.155   4.565   6.964  0.2865 -0.9533 -0.3079
 4174TIP3   OH234156   3.387   1.426   8.203 -0.0706 -0.1076  0.6297
 4174TIP3    H134157   3.412   1.406   8.293 -0.9201 -0.9807  0.6934
 4174TIP3    H234158   3.408   1.346   8.154  1.2692  0.6833 -0.1548
 4175TIP3   OH234159   3.550   6.233   1.559 -0.1031  0.2080  0.3512
 4175TIP3    H134160   3.535   6.234   1.465  0.3846 -2.4534  0.1634
 4175TIP3    H234161   3.516   6.149   1.588 -0.5742  1.1079  2.6511
 4176TIP3   OH234162   5.954   1.306   7.565  0.6641  0.3419  0.0708
 4176TIP3    H134163   5.998   1.341   7.487 -2.3166  1.3293 -1.2933
 4176TIP3    H234164   5.985   1.215   7.570  1.5763  0.4910 -1.7807
 4177TIP3   OH234165   5.649   5.797   2.364 -0.3843 -0.1463 -0.3389
 4177TIP3    H134166   5.658   5.766   2.455  0.5291 -0.4196 -0.5092
 4177TIP3    H234167   5.571   5.852   2.365 -0.4978 -0.3068  0.5757
 4178TIP3   OH234168   5.810   1.246   1.705  0.5131  0.3251  0.0806
 4178TIP3    H134169   5.861   1.283   1.776 -0.6274  0.3085  0.9265
 4178TIP3    H234170   5.824   1.152   1.712 -1.8720  0.0180  2.1766
 4179TIP3   OH234171   5.277   4.019   0.266 -0.2318 -0.9064  0.5678
 4179TIP3    H134172   5.233   4.004   0.182 -1.5062 -0.7675  1.1921
 4179TIP3    H234173   5.288   3.932   0.303 -2.3396 -0.8015  1.5566
 4180TIP3   OH234174   6.710   1.936   1.265  0.0911 -0.4630  0.2628
 4180TIP3    H134175   6.746   1.908   1.181  2.2047  1.2004  0.5040
 4180TIP3    H234176   6.747   1.874   1.328 -0.9549 -1.3021  0.0879
 4181TIP3   OH234177   2.202   0.692   7.041 -0.3168 -0.3060  0.1394
 4181TIP3    H134178   2.135   0.696   6.972 -1.1701 -0.2445  0.9549
 4181TIP3    H234179   2.181   0.613   7.090  0.7312 -0.7487 -0.0898
 4182TIP3   OH234180   3.914   0.737   1.494  0.3360  0.0208  1.1909
 4182TIP3    H134181   3.992   0.763   1.543  0.5549 -0.2002  0.9694
 4182TIP3    H234182   3.948   0.714   1.407 -0.1292  1.0871  0.7071
 4183TIP3   OH234183   0.161   6.268   0.128  0.2163  0.6974 -0.3955
 4183TIP3    H134184   0.210   6.324   0.067 -0.1394  0.1359 -1.2125
 4183TIP3    H234185   0.111   6.329   0.182  1.2557  1.2494 -0.0189
 4184TIP3   OH234186   1.950   3.857   6.548 -0.0974  0.2414  0.4033
 4184TIP3    H134187   2.020   3.817   6.600  0.6384 -0.6123 -1.1582
 4184TIP3    H234188   1.979   3.947   6.536 -0.3534  0.4956  1.5648
 4185TIP3   OH234189   3.502   3.090   1.610 -0.3294  0.6790 -0.2357
 4185TIP3    H134190   3.587   3.045   1.613 -1.9081 -2.5142  2.0731
 4185TIP3    H234191   3.463   3.064   1.527 -0.6617 -1.2991  0.4889
 4186TIP3   OH234192   4.415   2.886   0.672 -0.6910  0.0170  0.1476
 4186TIP3    H134193   4.466   2.953   0.717 -2.1652  0.8679  0.6147
 4186TIP3    H234194   4.446   2.888   0.581 -0.7711  1.4030  0.1380
 4187TIP3   OH234195   2.422   1.614   0.045 -0.2360 -0.7245 -0.7102
 4187TIP3    H134196   2.432   1.523   0.016 -1.3105 -0.9456 -0.4315
 4187TIP3    H234197   2.328   1.627   0.050 -0.0953 -0.2183  1.1853
 4188TIP3   OH234198   2.826   0.474   1.254 -0.4605 -0.5054 -0.0228
 4188TIP3    H134199   2.919   0.451   1.244  0.4768  3.4016 -2.6001
 4188TIP3    H234200   2.816   0.493   1.347  1.7890  0.4885  0.0691
 4189TIP3   OH234201   3.859   2.659   8.922  0.3274 -0.5611 -0.2056
 4189TIP3    H134202   3.810   2.742   8.923  0.4919 -0.4417  2.0561
 4189TIP3    H234203   3.904   2.657   9.006  1.0451 -2.5566 -0.5935
 4190TIP3   OH234204   3.466   4.992   0.206  0.4216 -0.0111  0.4398
 4190TIP3    H134205   3.486   4.906   0.244 -0.8406 -0.0562  1.0391
 4190TIP3    H234206   3.425   5.041   0.277 -0.8985  0.3198 -0.5206
 4191TIP3   OH234207   6.438   3.923   7.674  0.7099 -0.3192  0.1825
 4191TIP3    H134208   6.482   3.948   7.593 -0.6997  0.9963 -0.2286
 4191TIP3    H234209   6.378   3.853   7.648  0.2022  0.1556  0.0582
 4192TIP3   OH234210   2.217   3.264   7.598  0.6444  0.3010 -0.1737
 4192TIP3    H134211   2.283   3.203   7.630  0.4564  0.9872  1.6150
 4192TIP3    H234212   2.227   3.342   7.652  0.1993  1.4902 -1.7240
 4193TIP3   OH234213   3.403   4.833   8.936 -0.2884  0.1874  0.2566
 4193TIP3    H134214   3.379   4.859   9.025  0.5888  0.4903  0.4214
 4193TIP3    H234215   3.332   4.776   8.908 -1.4107  1.3915  0.5287
 4194TIP3   OH234216   6.085   6.516   7.862  0.3480  0.1707  0.6850
 4194TIP3    H134217   6.001   6.537   7.821  1.5799  1.6094 -1.2797
 4194TIP3    H234218   6.070   6.433   7.907 -1.1087 -1.7439 -2.9338
 4195TIP3   OH234219   6.480   2.018   7.020 -0.9026  0.0841  0.4824
 4195TIP3    H134220   6.476   1.945   6.958 -0.0462  0.2028  0.2806
 4195TIP3    H234221   6.569   2.053   7.011 -0.8568  0.2917  1.5655
 4196TIP3   OH234222   0.334   4.976   3.200  0.3558  0.1450  0.7748
 4196TIP3    H134223   0.293   4.970   3.114  0.6484  0.1547  0.6338
 4196TIP3    H234224   0.373   4.889   3.214  0.8923  0.3523  0.6004
 4197TIP3   OH234225   2.549   0.413   1.401  0.1768 -0.0231 -0.0474
 4197TIP3    H134226   2.625   0.431   1.456  0.5330  1.5321 -0.9843
 4197TIP3    H234227   2.569   0.454   1.318 -0.6759 -1.6970 -1.1358
 4198TIP3   OH234228   2.968   4.041   7.523 -0.5506 -0.3711  0.3608
 4198TIP3    H134229   2.972   3.946   7.511  0.5713 -0.1743 -1.1343
 4198TIP3    H234230   3.049   4.063   7.568  0.1178  0.0545 -0.9901
 4199TIP3   OH234231   5.929   1.111   7.290  0.1609  0.2950 -0.0848
 4199TIP3    H134232   6.013   1.109   7.336 -0.5735  0.2535  1.3083
 4199TIP3    H234233   5.937   1.184   7.229  0.8485  0.9499  0.7632
 4200TIP3   OH234234   0.851   4.250   8.694 -0.3326  0.5536 -0.2106
 4200TIP3    H134235   0.869   4.308   8.620  0.2853  0.4600 -0.1401
 4200TIP3    H234236   0.898   4.290   8.767 -0.4662  0.3320 -0.0014
 4201TIP3   OH234237   4.945   1.080   8.615  0.1408  0.7977 -0.4431
 4201TIP3    H134238   5.032   1.063   8.580 -0.3939 -0.7259 -1.1084
 4201TIP3    H234239   4.913   0.995   8.643 -0.9769  1.4000  0.1807
 4202TIP3   OH234240   4.227   4.051   7.312 -0.4348  0.4297  0.7583
 4202TIP3    H134241   4.183   3.999   7.245  0.4356  0.6504  0.0059
 4202TIP3    H234242   4.245   4.135   7.270  0.0667  0.5940  1.2866
 4203TIP3   OH234243   1.104   4.544   1.018  0.0529 -0.3652 -0.0120
 4203TIP3    H134244   1.179   4.547   0.958  0.1523 -0.6151  0.0987
 4203TIP3    H234245   1.028   4.539   0.960  0.1919 -1.4830 -0.1179
 4204TIP3   OH234246   2.602   1.888   7.484  0.3752  0.4577  0.8666
 4204TIP3    H134247   2.538   1.849   7.543 -0.0071  0.4844  0.4811
 4204TIP3    H234248   2.679   1.833   7.492 -0.3396 -0.7542 -0.0902
 4205TIP3   OH234249   3.328   2.005   6.136 -0.0594 -0.1368 -0.4979
 4205TIP3    H134250   3.274   1.938   6.094 -2.3977  0.1361  1.7705
 4205TIP3    H234251   3.286   2.088   6.113  0.2642  0.2110  0.1142
 4206TIP3   OH234252   0.896   0.076   1.305  0.0102 -0.2085 -0.1712
 4206TIP3    H134253   0.851   0.143   1.355 -0.0534 -0.7043  0.4461
 4206TIP3    H234254   0.958   0.124   1.250 -0.5319  0.4019 -0.2664
 4207TIP3   OH234255   3.763   1.715   7.288 -0.2074  0.2669  0.5430
 4207TIP3    H134256   3.757   1.777   7.360  1.0463  0.2599  0.6799
 4207TIP3    H234257   3.855   1.687   7.288 -0.6930 -1.4247  0.3540
 4208TIP3   OH234258   1.034   1.220   8.485  0.5663  0.4201 -0.6385
 4208TIP3    H134259   0.962   1.253   8.430 -0.2422 -0.5570 -0.2085
 4208TIP3    H234260   1.003   1.135   8.515  1.1639  0.7400  0.9899
 4209TIP3   OH234261   4.284   5.017   7.333 -0.4465 -0.0389 -0.4445
 4209TIP3    H134262   4.233   4.983   7.259  0.4730  1.7942 -2.0012
 4209TIP3    H234263   4.294   5.110   7.314  2.4279 -0.1036  0.4171
 4210TIP3   OH234264   6.181   3.489   7.711 -0.3140  0.3134  0.0005
 4210TIP3    H134265   6.104   3.432   7.704  0.6630 -1.4524  2.1273
 4210TIP3    H234266   6.209   3.479   7.802  1.8265  1.7203 -0.4352
 4211TIP3   OH234267   6.192   5.197   7.194  0.0353 -0.2262 -0.2025
 4211TIP3    H134268   6.282   5.173   7.213  0.3692  0.6174 -0.6452
 4211TIP3    H234269   6.199   5.266   7.128 -0.8596  0.9875  0.9079
 4212TIP3   OH234270   5.270   4.411   7.317  0.3242  0.3420  0.1370
 4212TIP3    H134271   5.229   4.449   7.239 -0.5002  2.2658  1.4396
 4212TIP3    H234272   5.299   4.324   7.289  1.1491  1.4085 -2.6643
 4213TIP3   OH234273   3.082   0.780   0.258  0.2584  0.0203  0.0424
 4213TIP3    H134274   3.175   0.764   0.239  0.1909 -0.7780  0.3761
 4213TIP3    H234275   3.044   0.800   0.173  0.7459  0.4124 -0.0902
 4214TIP3   OH234276   2.305   0.280   6.264  0.7608 -0.3373 -0.1362
 4214TIP3    H134277   2.254   0.205   6.297  0.2782 -0.6444 -1.5207
 4214TIP3    H234278   2.239   0.347   6.244  0.9614 -0.4113 -1.0927
 4215TIP3   OH234279   4.189   5.175   8.875  0.1022 -0.0222 -0.1794
 4215TIP3    H134280   4.185   5.126   8.957 -0.5225 -0.4055 -0.4343
 4215TIP3    H234281   4.214   5.110   8.809  1.6829  0.4873 -0.1487
 4216TIP3   OH234282   4.796   5.600   7.777  0.4597  0.4957  0.6257
 4216TIP3    H134283   4.821   5.515   7.813  0.4740 -0.0620 -0.6349
 4216TIP3    H234284   4.701   5.605   7.791  0.1638 -0.5011 -0.7630
 4217TIP3   OH234285   5.781   1.289   0.191  0.2949  0.1063  0.0084
 4217TIP3    H134286   5.813   1.331   0.111  0.7943 -0.3916 -0.0557
 4217TIP3    H234287   5.858   1.282   0.248  0.3353 -1.1556 -0.1753
 4218TIP3   OH234288   3.499   6.202   0.351 -0.3116 -0.4208 -0.1113
 4218TIP3    H134289   3.416   6.177   0.391 -0.4278  0.4756  0.2154
 4218TIP3    H234290   3.474   6.252   0.273 -0.1003  0.9257  0.6569
 4219TIP3   OH234291   6.735   5.879   8.046  0.3193  0.0371 -0.3849
 4219TIP3    H134292   6.662   5.824   8.016  0.5582  0.5570 -2.0462
 4219TIP3    H234293   6.696   5.965   8.060  0.2264 -0.1827  0.7971
 4220TIP3   OH234294   5.376   4.964   2.054 -0.4749  0.4452  0.2423
 4220TIP3    H134295   5.464   4.928   2.044  0.2363  2.6735 -3.5337
 4220TIP3    H234296   5.383   5.026   2.126  0.7112 -0.2393  0.7447
 4221TIP3   OH234297   4.444   6.648   8.799 -0.3697  0.0976  0.1517
 4221TIP3    H134298   4.486   6.693   8.872  0.5982  0.2674 -0.4846
 4221TIP3    H234299   4.394   6.716   8.754 -0.0215  0.2480 -0.0109
 4222TIP3   OH234300   0.886   3.033   1.115  0.6114  0.1382  0.1242
 4222TIP3    H134301   0.891   2.955   1.170  1.6936  1.3706  1.8969
 4222TIP3    H234302   0.869   3.000   1.027  0.5220 -2.0381  0.9044
 4223TIP3   OH234303   1.429   1.805   7.954 -0.0221 -0.2989 -0.3123
 4223TIP3    H134304   1.362   1.796   7.885 -0.8967  0.3900  0.4205
 4223TIP3    H234305   1.407   1.887   7.998  2.6352  1.1019 -1.4206
 4224TIP3   OH234306   6.223   4.284   1.864 -0.1687  0.3907 -0.1545
 4224TIP3    H134307   6.222   4.292   1.960 -2.4454  0.1248 -0.0987
 4224TIP3    H234308   6.251   4.194   1.848 -1.6368 -0.2142  0.4018
 4225TIP3   OH234309   3.720   2.908   8.814 -0.9126  0.5491 -0.4076
 4225TIP3    H134310   3.658   2.856   8.763 -1.5620 -0.5999  1.4444
 4225TIP3    H234311   3.668   2.939   8.889  0.1339  1.7240 -0.1358
 4226TIP3   OH234312   5.928   3.448   1.908  0.0385  0.2399 -0.1080
 4226TIP3    H134313   5.931   3.353   1.919 -0.5059 -0.0019 -1.8909
 4226TIP3    H234314   5.893   3.480   1.992  1.3571 -1.0024  0.9746
 4227TIP3   OH234315   6.347   5.808   7.589 -0.6575 -0.6232  0.2264
 4227TIP3    H134316   6.418   5.758   7.548  0.0945  0.2449  0.4302
 4227TIP3    H234317   6.267   5.764   7.560 -0.1778 -0.1552 -2.0754
 4228TIP3   OH234318   4.493   0.182   1.617 -0.1365  0.2894 -0.5083
 4228TIP3    H134319   4.542   0.198   1.537  1.9385  0.2940  0.7019
 4228TIP3    H234320   4.477   0.270   1.653 -0.8653  0.2769 -0.7893
 4229TIP3   OH234321   5.660   3.446   8.749  0.1498 -0.3011 -0.1292
 4229TIP3    H134322   5.585   3.501   8.727  0.6383 -0.0061 -1.1202
 4229TIP3    H234323   5.729   3.508   8.775  0.4893 -0.4812 -0.5900
 4230TIP3   OH234324   1.373   4.124   7.150  0.3835 -0.4548 -0.4275
 4230TIP3    H134325   1.395   4.214   7.123 -1.7223  0.3885  0.4503
 4230TIP3    H234326   1.376   4.126   7.246  2.3578 -1.9390 -0.3930
 4231TIP3   OH234327   4.608   6.278   0.719  0.4516 -0.3297  0.1563
 4231TIP3    H134328   4.562   6.197   0.739  0.2063 -0.2624 -0.1319
 4231TIP3    H234329   4.696   6.264   0.753  2.0223 -2.6857 -4.1250
 4232TIP3   OH234330   2.273   5.552   0.958  0.0555  0.3750 -0.3279
 4232TIP3    H134331   2.314   5.638   0.947 -0.4649  0.5777 -0.6925
 4232TIP3    H234332   2.233   5.533   0.873  3.1985 -1.8499 -1.5137
 4233TIP3   OH234333   4.381   4.719   7.358 -0.3434  0.3591 -0.3593
 4233TIP3    H134334   4.446   4.683   7.418 -1.1194 -0.6823 -0.1142
 4233TIP3    H234335   4.369   4.810   7.387 -1.3221 -0.3540  1.6402
 4234TIP3   OH234336   4.225   5.317   6.317  0.5533 -0.5395 -0.4536
 4234TIP3    H134337   4.165   5.244   6.305 -1.7106  0.5976  2.6050
 4234TIP3    H234338   4.285   5.287   6.386  1.9045 -0.6923 -1.6410
 4235TIP3   OH234339   3.865   2.077   1.097  0.5446 -0.1415 -0.5948
 4235TIP3    H134340   3.787   2.082   1.151  0.2999 -0.3914 -0.9213
 4235TIP3    H234341   3.936   2.109   1.154 -0.1699  2.6796 -1.1222
 4236TIP3   OH234342   1.142   2.771   8.495 -0.0058  0.3409  0.1041
 4236TIP3    H134343   1.073   2.831   8.525 -0.4920 -0.1598  0.0070
 4236TIP3    H234344   1.190   2.748   8.574  0.4836  1.2217  0.0757
 4237TIP3   OH234345   5.642   0.933   0.895 -0.2701  0.5091  0.3207
 4237TIP3    H134346   5.558   0.887   0.885 -1.4128  2.4456  0.4395
 4237TIP3    H234347   5.653   0.943   0.989 -1.8457  3.4375  0.3078
 4238TIP3   OH234348   5.072   5.291   1.932  0.2368 -0.0367  0.1157
 4238TIP3    H134349   5.104   5.238   1.859  1.8560 -0.8331  1.3402
 4238TIP3    H234350   4.980   5.269   1.940  0.7709 -2.4419  0.3329
 4239TIP3   OH234351   5.293   5.989   7.352 -0.3564 -0.0812 -0.2249
 4239TIP3    H134352   5.231   5.919   7.371  0.2556 -1.2137 -2.1724
 4239TIP3    H234353   5.313   5.980   7.259  3.2365 -0.2524  0.3893
 4240TIP3   OH234354   1.247   2.933   2.217 -0.6530 -0.1651 -0.3120
 4240TIP3    H134355   1.262   2.871   2.288  0.1075  0.2240 -0.1291
 4240TIP3    H234356   1.157   2.917   2.190 -0.3896 -1.5244 -0.4369
 4241TIP3   OH234357   5.656   4.771   0.475  0.0214  0.1032 -0.0146
 4241TIP3    H134358   5.640   4.688   0.429  0.4846  0.2164 -0.3891
 4241TIP3    H234359   5.625   4.755   0.564 -1.8342  0.2167 -0.6061
 4242TIP3   OH234360   2.458   5.564   6.868 -0.3634  0.1945 -0.6758
 4242TIP3    H134361   2.399   5.502   6.911  0.7552 -1.6559 -1.6874
 4242TIP3    H234362   2.538   5.514   6.852  0.6122  1.9219 -1.5266
 4243TIP3   OH234363   5.082   5.247   1.238  0.2915  0.6878 -0.6356
 4243TIP3    H134364   4.989   5.263   1.219 -0.3045 -0.8216  0.7663
 4243TIP3    H234365   5.099   5.300   1.316 -1.1562 -3.3373  2.8127
 4244TIP3   OH234366   0.555   1.624   0.157 -0.3879  0.0038 -0.5656
 4244TIP3    H134367   0.539   1.530   0.147 -0.8590  0.0595 -0.3618
 4244TIP3    H234368   0.650   1.632   0.156 -0.2517 -0.7400  1.5874
 4245TIP3   OH234369   4.844   6.714   6.343 -1.1313 -0.4019  0.1242
 4245TIP3    H134370   4.777   6.779   6.322 -1.0003  0.1050  1.2219
 4245TIP3    H234371   4.927   6.760   6.331 -1.0341 -0.4122  0.7311
 4246TIP3   OH234372   1.079   5.847   1.097  0.1478  0.5211 -0.5282
 4246TIP3    H134373   1.144   5.777   1.106 -1.1330 -0.8235 -1.2580
 4246TIP3    H234374   1.088   5.877   1.007 -2.0262 -1.6252 -1.5766
 4247TIP3   OH234375   4.994   3.701   1.665  0.3281 -0.1303  0.3696
 4247TIP3    H134376   4.923   3.674   1.607  1.1462 -1.5101 -0.0297
 4247TIP3    H234377   5.057   3.629   1.661  0.5151 -0.2028  2.8177
 4248TIP3   OH234378   0.521   3.453   0.594  0.2811 -0.1433 -0.6579
 4248TIP3    H134379   0.500   3.364   0.623  0.7171 -0.1756 -0.4316
 4248TIP3    H234380   0.559   3.495   0.671 -0.0464  0.2832 -0.7256
 4249TIP3   OH234381   6.482   4.468   8.191 -0.1471 -0.0145 -0.0207
 4249TIP3    H134382   6.445   4.491   8.106  0.8205 -1.3635 -0.8523
 4249TIP3    H234383   6.489   4.551   8.238 -0.8538  0.7269 -1.1908
 4250TIP3   OH234384   3.155   4.376   1.260  0.1769  0.3863  0.3274
 4250TIP3    H134385   3.165   4.456   1.208  0.8119  1.5124  2.1080
 4250TIP3    H234386   3.239   4.331   1.253 -0.5852 -0.8731 -1.7415
 4251TIP3   OH234387   5.539   3.466   1.862 -0.3816 -0.2940 -0.2631
 4251TIP3    H134388   5.592   3.522   1.805 -0.1988  0.5033  0.6782
 4251TIP3    H234389   5.523   3.519   1.940  1.8291 -2.3784  1.7624
 4252TIP3   OH234390   3.891   1.817   1.140  0.1892 -0.7178 -0.3893
 4252TIP3    H134391   3.879   1.900   1.094  1.1427 -1.0075 -1.1962
 4252TIP3    H234392   3.976   1.785   1.111  1.0251 -0.7405  1.8992
 4253TIP3   OH234393   3.302   5.734   2.056 -0.1955  0.3794  0.3028
 4253TIP3    H134394   3.327   5.728   2.148 -1.7410 -0.0374  0.7165
 4253TIP3    H234395   3.363   5.675   2.011  0.3601  0.3406  1.0926
 4254TIP3   OH234396   5.857   1.407   0.887 -0.4063 -0.2731  0.1164
 4254TIP3    H134397   5.822   1.495   0.873 -0.8617 -0.4526  0.1227
 4254TIP3    H234398   5.874   1.402   0.981  1.7674  0.6035 -0.1714
 4255TIP3   OH234399   0.772   3.503   1.619 -0.3365  0.3313  0.2195
 4255TIP3    H134400   0.838   3.507   1.550  0.9404 -0.3706  1.3536
 4255TIP3    H234401   0.817   3.533   1.698 -1.2982 -0.3961  1.0801
 4256TIP3   OH234402   4.522   0.858   6.955 -0.1301 -0.0917  0.4131
 4256TIP3    H134403   4.557   0.867   6.867  0.8456  0.2310  0.8214
 4256TIP3    H234404   4.462   0.932   6.966  1.6272  1.3100  0.8724
 4257TIP3   OH234405   6.681   4.530   6.780  0.1755 -0.1833  0.0300
 4257TIP3    H134406   6.758   4.483   6.748 -0.2432  0.7811 -2.5477
 4257TIP3    H234407   6.607   4.489   6.735 -0.9803 -1.3368  2.7225
 4258TIP3   OH234408   3.943   5.597   1.897 -0.0065  0.1035 -0.2135
 4258TIP3    H134409   4.027   5.553   1.883  0.4928  0.7487  0.6340
 4258TIP3    H234410   3.877   5.528   1.889  0.4330 -0.1169 -2.6571
 4259TIP3   OH234411   3.310   4.116   0.395 -0.0295  0.8631 -0.2819
 4259TIP3    H134412   3.297   4.190   0.454 -0.3397  1.8866 -1.5903
 4259TIP3    H234413   3.223   4.097   0.361  0.1818  0.4382 -0.5945
 4260TIP3   OH234414   4.946   5.643   0.148  0.1575 -0.3041 -0.1703
 4260TIP3    H134415   5.027   5.591   0.150  1.2275  1.2819 -0.4591
 4260TIP3    H234416   4.912   5.630   0.060 -0.3687 -1.6101  0.1944
 4261TIP3   OH234417   6.649   3.549   8.587 -0.1583 -0.4002 -0.8651
 4261TIP3    H134418   6.701   3.482   8.631 -2.4207  0.2409  3.2304
 4261TIP3    H234419   6.569   3.504   8.561 -0.8345  0.2056  0.0880
 4262TIP3   OH234420   6.322   6.356   2.065  0.2070  0.1075 -0.3464
 4262TIP3    H134421   6.339   6.280   2.119  1.7697  1.1466  0.7063
 4262TIP3    H234422   6.384   6.422   2.096  0.7312  0.9708 -2.9681
 4263TIP3   OH234423   3.800   6.566   0.305  0.0976  0.4108  0.0026
 4263TIP3    H134424   3.807   6.626   0.231 -0.7229  1.0271  0.3997
 4263TIP3    H234425   3.889   6.563   0.342  0.2708  0.9354 -0.3599
 4264TIP3   OH234426   5.189   2.416   0.197 -0.0596  0.8076  0.3243
 4264TIP3    H134427   5.267   2.386   0.151  0.3427 -0.8291  1.9825
 4264TIP3    H234428   5.216   2.429   0.287 -1.3678  1.7019  0.6284
 4265TIP3   OH234429   5.792   0.470   0.900 -0.3477 -0.3352  0.5779
 4265TIP3    H134430   5.808   0.386   0.857  0.0854 -0.0419  0.1564
 4265TIP3    H234431   5.731   0.516   0.842 -1.9369 -1.0108  1.6356
 4266TIP3   OH234432   5.531   6.761   8.207 -0.0056 -0.0230  0.0579
 4266TIP3    H134433   5.560   6.759   8.116 -1.1923 -1.2178 -0.3308
 4266TIP3    H234434   5.450   6.710   8.208  0.2843 -0.5513  1.8923
 4267TIP3   OH234435   6.477   6.321   0.990 -0.2043 -0.3334  0.8460
 4267TIP3    H134436   6.475   6.244   0.934  0.8743 -0.4910  1.0011
 4267TIP3    H234437   6.513   6.290   1.073 -1.1130  0.0457  1.4086
 4268TIP3   OH234438   1.967   5.153   0.646  0.1376 -0.1010  0.6923
 4268TIP3    H134439   1.996   5.114   0.564  1.0607 -0.2760  1.0805
 4268TIP3    H234440   2.040   5.136   0.707  0.1285  1.3508  1.1359
 4269TIP3   OH234441   4.504   4.615   0.887  0.1890  0.4155 -0.2577
 4269TIP3    H134442   4.478   4.707   0.883  3.2991  1.5183  1.5335
 4269TIP3    H234443   4.538   4.603   0.976  2.7862 -1.5684 -1.3812
 4270TIP3   OH234444   1.215   4.598   7.903 -0.0800  0.2405 -0.5280
 4270TIP3    H134445   1.170   4.663   7.849 -1.0164 -0.0088 -0.0648
 4270TIP3    H234446   1.305   4.600   7.871  0.3978  3.0961  0.6416
 4271TIP3   OH234447   4.916   2.350   1.213 -0.0250  0.4268 -0.4366
 4271TIP3    H134448   4.962   2.291   1.272 -1.4874  0.5901  0.9307
 4271TIP3    H234449   4.855   2.294   1.165  1.1548  0.2936 -1.8631
 4272TIP3   OH234450   6.200   4.625   8.172 -0.1669  0.6009  0.2469
 4272TIP3    H134451   6.248   4.696   8.215  2.7200 -0.8181 -0.3581
 4272TIP3    H234452   6.210   4.644   8.078 -0.2105 -0.0878  0.1007
 4273TIP3   OH234453   5.331   3.464   6.955  0.4083 -0.3367  0.4560
 4273TIP3    H134454   5.385   3.388   6.978 -2.2571 -2.6912 -0.4033
 4273TIP3    H234455   5.363   3.492   6.870 -0.2421 -2.3220 -0.5049
 4274TIP3   OH234456   0.695   0.592   0.907 -0.7379 -0.2938 -0.6553
 4274TIP3    H134457   0.709   0.649   0.982 -0.6241  0.5812 -1.3241
 4274TIP3    H234458   0.782   0.579   0.869 -1.0593  1.2763 -2.0465
 4275TIP3   OH234459   0.046   6.420   0.327 -0.2793  0.6457  0.2210
 4275TIP3    H134460   0.119   6.469   0.364  1.4261 -2.2875  1.0404
 4275TIP3    H234461   0.034   6.346   0.386 -3.7525  0.8029 -0.1011
 4276TIP3   OH234462   6.737   5.314   7.065 -0.1318 -0.5722 -0.2039
 4276TIP3    H134463   6.760   5.222   7.080  3.3276  0.1006 -0.6692
 4276TIP3    H234464   6.760   5.359   7.146  1.8339  0.3919 -1.2364
 4277TIP3   OH234465   2.867   5.195   7.988 -0.2646 -0.4488  0.4508
 4277TIP3    H134466   2.791   5.158   7.944 -0.4829  0.7614 -0.2286
 4277TIP3    H234467   2.941   5.141   7.960 -0.4454  0.1096 -1.1966
 4278TIP3   OH234468   4.499   1.650   6.777  0.2172  0.0345 -0.2801
 4278TIP3    H134469   4.580   1.695   6.751  0.6957 -0.4591  0.3194
 4278TIP3    H234470   4.429   1.707   6.745  0.7927  0.2797 -1.1366
 4279TIP3   OH234471   6.443   6.318   7.307  0.4337 -0.6455 -0.1234
 4279TIP3    H134472   6.422   6.409   7.288  0.8954 -0.6059 -0.4746
 4279TIP3    H234473   6.381   6.292   7.375  1.0039  0.2634  0.7656
 4280TIP3   OH234474   6.584   1.205   8.426  0.5902  0.1725 -0.3794
 4280TIP3    H134475   6.626   1.284   8.393  0.8189  0.1317 -0.1890
 4280TIP3    H234476   6.500   1.234   8.461 -1.0696 -0.1767 -3.7066
 4281TIP3   OH234477   5.122   3.632   8.839 -0.0977 -0.3113  0.4514
 4281TIP3    H134478   5.104   3.621   8.932  1.3030 -3.7492  0.4561
 4281TIP3    H234479   5.040   3.666   8.803 -2.2821 -3.0784  2.3606
 4282TIP3   OH234480   4.223   3.733   8.888 -0.2739  0.1543  0.3197
 4282TIP3    H134481   4.270   3.675   8.828  0.6243  0.3760  0.7865
 4282TIP3    H234482   4.291   3.790   8.924 -1.3026  2.5315 -1.2419
 4283TIP3   OH234483   4.945   3.028   0.694  0.1949 -0.0387 -0.3764
 4283TIP3    H134484   4.882   2.993   0.632 -0.3840  0.0609  0.1450
 4283TIP3    H234485   5.029   3.024   0.648  0.0563 -1.5668 -0.5338
 4284TIP3   OH234486   1.606   2.214   1.255 -0.3218  0.0910  0.5691
 4284TIP3    H134487   1.592   2.192   1.346 -1.2392 -0.6000  0.2751
 4284TIP3    H234488   1.520   2.243   1.223 -0.3189 -0.8547 -0.3789
 4285TIP3   OH234489   1.506   5.980   1.178  0.0815 -0.1316 -0.1379
 4285TIP3    H134490   1.498   6.019   1.091  1.6595 -1.1949 -0.8082
 4285TIP3    H234491   1.416   5.960   1.204 -0.4865  1.0395 -1.1266
 4286TIP3   OH234492   0.933   4.017   0.272  0.3773  0.2669 -0.6291
 4286TIP3    H134493   1.015   4.065   0.286  0.0231  0.9618 -0.9185
 4286TIP3    H234494   0.936   3.946   0.336  0.5909  1.0919  0.3008
 4287TIP3   OH234495   2.240   3.009   7.160  0.3033  0.2936  0.8034
 4287TIP3    H134496   2.166   3.052   7.204 -0.9116 -1.0263  0.1326
 4287TIP3    H234497   2.306   3.078   7.151 -1.5149  2.0188 -0.1252
 4288TIP3   OH234498   2.311   3.388   1.076 -0.1707 -0.2165 -0.2089
 4288TIP3    H134499   2.237   3.406   1.018 -1.2379 -2.8995  0.1645
 4288TIP3    H234500   2.372   3.336   1.023 -0.1022 -0.7940  0.4173
 4289TIP3   OH234501   3.068   1.432   0.909  0.5704 -0.0147  0.6083
 4289TIP3    H134502   3.053   1.477   0.826  0.5712  0.2965  0.7726
 4289TIP3    H234503   3.034   1.344   0.896 -0.6594  0.4222  0.7088
 4290TIP3   OH234504   6.544   2.728   1.087 -0.1268  0.5577  0.1174
 4290TIP3    H134505   6.501   2.701   1.168  0.6649  0.3594  0.4847
 4290TIP3    H234506   6.497   2.681   1.018 -0.4341  0.2723  0.5155
 4291TIP3   OH234507   3.564   6.090   2.253  0.1881  0.1137  0.3522
 4291TIP3    H134508   3.513   6.042   2.317 -0.0906 -0.5460 -0.3496
 4291TIP3    H234509   3.523   6.070   2.169  0.0129  1.6377  0.0366
 4292TIP3   OH234510   2.777   5.212   7.669  0.0953 -0.5192  0.1977
 4292TIP3    H134511   2.755   5.258   7.587  1.3006 -0.8118 -0.3189
 4292TIP3    H234512   2.806   5.282   7.728  0.3575 -0.4282 -0.0336
 4293TIP3   OH234513   1.266   5.056   7.262  0.0985 -0.3173 -0.9436
 4293TIP3    H134514   1.278   5.090   7.173 -1.7834  1.5805 -0.5609
 4293TIP3    H234515   1.335   5.099   7.313  1.2582 -1.5003 -1.4487
 4294TIP3   OH234516   3.719   5.440   8.864 -0.3784 -0.8535 -0.4137
 4294TIP3    H134517   3.778   5.492   8.810 -0.7935 -0.2572 -0.3063
 4294TIP3    H234518   3.776   5.376   8.907  0.7064  1.4774  1.9047
 4295TIP3   OH234519   6.252   3.749   6.579 -0.0939  0.3603 -0.2392
 4295TIP3    H134520   6.174   3.745   6.524  1.3842 -0.0238 -2.4179
 4295TIP3    H234521   6.261   3.661   6.615 -0.1482  0.1504 -0.7393
 4296TIP3   OH234522   3.067   2.823   7.299  0.0552 -0.1475  0.1702
 4296TIP3    H134523   3.025   2.790   7.379 -0.6477 -0.2873 -0.2422
 4296TIP3    H234524   3.157   2.842   7.324 -0.3364  0.4514  1.1695
 4297TIP3   OH234525   3.060   5.402   0.965  0.0490 -0.1911 -0.2623
 4297TIP3    H134526   3.138   5.404   1.020 -0.2348  0.0989  0.1446
 4297TIP3    H234527   3.093   5.403   0.876  0.5123 -0.1434 -0.0937
 4298TIP3   OH234528   5.662   4.105   7.499  0.7155 -0.0393 -0.3709
 4298TIP3    H134529   5.646   4.111   7.593 -0.7696  2.8631 -0.7110
 4298TIP3    H234530   5.574   4.107   7.460  1.1706 -3.1369 -1.8439
 4299TIP3   OH234531   3.815   5.352   2.165  0.8321  0.1645  1.1644
 4299TIP3    H134532   3.737   5.395   2.131  0.8314 -0.0656  0.8687
 4299TIP3    H234533   3.835   5.398   2.246  0.8792  0.7738  0.8133
 4300TIP3   OH234534   3.662   0.202   0.234  0.3218  0.0532  0.3596
 4300TIP3    H134535   3.613   0.148   0.297  0.1745  0.1395  0.3209
 4300TIP3    H234536   3.727   0.143   0.197 -0.9667 -0.5995 -0.9795
 4301TIP3   OH234537   2.033   1.330   7.940 -0.2771 -0.7334 -0.2115
 4301TIP3    H134538   2.066   1.264   7.880 -1.3612 -0.0961 -1.5441
 4301TIP3    H234539   1.938   1.317   7.942 -0.3403 -0.2325  0.7398
 4302TIP3   OH234540   3.305   6.537   8.483  0.1580  0.7892  0.1686
 4302TIP3    H134541   3.398   6.547   8.504  0.3384  0.7064 -0.5501
 4302TIP3    H234542   3.301   6.457   8.430 -0.3639  0.6294  0.4515
 4303TIP3   OH234543   6.224   5.368   7.746 -0.2652 -0.0123 -0.6071
 4303TIP3    H134544   6.246   5.313   7.822 -0.6027  0.8914  0.1656
 4303TIP3    H234545   6.272   5.328   7.673  1.8708  0.3442  0.4949
 4304TIP3   OH234546   4.495   5.004   1.578 -0.1700  0.0237  0.1325
 4304TIP3    H134547   4.420   5.053   1.612 -1.2084 -1.3102 -0.1350
 4304TIP3    H234548   4.517   4.942   1.648  1.8765  1.5538  0.9483
 4305TIP3   OH234549   0.605   0.608   1.659  0.1285 -0.3683 -0.0410
 4305TIP3    H134550   0.608   0.702   1.679  0.0746 -0.4481  0.3455
 4305TIP3    H234551   0.610   0.565   1.744  0.7745 -0.7274 -0.2528
 4306TIP3   OH234552   5.705   6.297   8.533  0.1927 -0.0477 -0.4949
 4306TIP3    H134553   5.751   6.380   8.522 -3.2537  2.0036 -1.2749
 4306TIP3    H234554   5.654   6.288   8.452 -0.5588 -2.2235  0.1591
 4307TIP3   OH234555   6.587   3.295   8.911 -0.0225 -0.1566 -0.1194
 4307TIP3    H134556   6.541   3.379   8.900 -0.3280 -0.0946  1.3566
 4307TIP3    H234557   6.677   3.320   8.930 -0.7228  0.1137  3.7422
 4308TIP3   OH234558   3.077   5.117   6.730 -0.7306 -0.3868  0.2080
 4308TIP3    H134559   3.128   5.087   6.806 -1.0170  2.1275  1.5050
 4308TIP3    H234560   2.993   5.073   6.739 -0.5760 -0.5370  1.0500
 4309TIP3   OH234561   6.569   4.032   7.454  0.0073  0.4033 -0.8255
 4309TIP3    H134562   6.640   4.040   7.518  0.6071  1.0828 -1.5648
 4309TIP3    H234563   6.551   3.938   7.451 -0.2399  0.3750  0.5542
 4310TIP3   OH234564   4.730   0.449   7.555 -0.1487  0.6378  0.0613
 4310TIP3    H134565   4.669   0.523   7.560  0.8548  1.8671 -3.2027
 4310TIP3    H234566   4.682   0.381   7.508 -0.3206 -0.0017  1.1253
 4311TIP3   OH234567   6.565   3.766   7.463  0.5129 -0.1495  0.2146
 4311TIP3    H134568   6.658   3.753   7.479  0.8713  0.2492 -1.4158
 4311TIP3    H234569   6.536   3.684   7.423  0.2618 -0.0946  0.2850
 4312TIP3   OH234570   5.444   5.783   8.280 -0.9364  0.4966  0.8059
 4312TIP3    H134571   5.499   5.862   8.280 -1.1895  0.6932 -0.0746
 4312TIP3    H234572   5.506   5.710   8.281 -0.6779  0.7145  0.8485
 4313TIP3   OH234573   5.864   5.888   7.175 -0.8656 -0.2722  0.0720
 4313TIP3    H134574   5.778   5.932   7.177 -1.9198 -2.2325  0.5434
 4313TIP3    H234575   5.885   5.883   7.082 -1.0210  0.6516 -0.0244
 4314TIP3   OH234576   5.825   2.662   0.460 -0.5101  0.0084  0.3204
 4314TIP3    H134577   5.754   2.631   0.516 -1.8704 -1.6795 -2.1142
 4314TIP3    H234578   5.876   2.583   0.440 -1.6665 -0.0781 -2.8494
 4315TIP3   OH234579   4.170   6.265   0.428 -0.3222  0.0246  0.2280
 4315TIP3    H134580   4.096   6.266   0.367  0.1383  0.0249 -0.3423
 4315TIP3    H234581   4.144   6.325   0.498 -0.4711  0.7580 -0.4445
 4316TIP3   OH234582   2.712   6.096   7.014 -0.3387  0.1756 -0.0258
 4316TIP3    H134583   2.638   6.135   7.061  0.5550 -0.5900  2.1690
 4316TIP3    H234584   2.715   6.005   7.046  0.5389 -0.2804 -1.3460
 4317TIP3   OH234585   6.320   1.426   1.306 -0.5411 -0.2599  0.2516
 4317TIP3    H134586   6.258   1.474   1.361 -1.5446 -1.0634 -0.1443
 4317TIP3    H234587   6.268   1.398   1.231  0.5146 -0.2409 -0.5115
 4318TIP3   OH234588   1.945   4.221   2.337 -0.1501 -0.3977  0.1435
 4318TIP3    H134589   2.022   4.259   2.294 -0.7975 -0.8043 -1.4556
 4318TIP3    H234590   1.981   4.165   2.406  0.8531  2.4054  2.0684
 4319TIP3   OH234591   6.312   5.236   0.227 -0.0938  0.0128 -0.1888
 4319TIP3    H134592   6.311   5.310   0.288  1.0974 -0.8513  0.9398
 4319TIP3    H234593   6.220   5.220   0.208 -0.5020  0.4798  1.2204
 4320TIP3   OH234594   4.038   6.366   1.682 -0.2894  0.2592  0.6867
 4320TIP3    H134595   4.051   6.273   1.698 -2.0478 -0.6624 -2.4406
 4320TIP3    H234596   4.123   6.396   1.648 -0.6984 -1.1406 -1.7519
 4321TIP3   OH234597   2.963   1.226   7.330  0.1827 -0.3895 -0.0913
 4321TIP3    H134598   3.006   1.302   7.292  0.0541  0.3401  1.1838
 4321TIP3    H234599   2.870   1.240   7.312  0.1455 -0.1679  0.2638
 4322TIP3   OH234600   0.367   3.547   7.745 -0.3347  0.1307 -0.4861
 4322TIP3    H134601   0.365   3.598   7.827 -0.3668 -0.0257 -0.3897
 4322TIP3    H234602   0.429   3.476   7.762 -0.8505 -0.2984 -0.3576
 4323TIP3   OH234603   4.937   3.739   0.695  0.3189  0.0429 -0.1988
 4323TIP3    H134604   4.985   3.707   0.770  2.0310  1.3387 -0.6757
 4323TIP3    H234605   4.975   3.694   0.620  1.7628  1.9696 -0.7161
 4324TIP3   OH234606   4.786   6.541   7.999 -0.1230  0.4143 -0.1555
 4324TIP3    H134607   4.692   6.555   7.989 -0.1385 -1.1249 -3.2323
 4324TIP3    H234608   4.818   6.523   7.911  2.7596 -0.9412  1.0198
 4325TIP3   OH234609   1.326   0.864   0.929  0.4910  0.1547 -0.1225
 4325TIP3    H134610   1.249   0.810   0.949  0.1142  1.1475  1.2955
 4325TIP3    H234611   1.382   0.854   1.006  1.2654  0.3411 -0.6528
 4326TIP3   OH234612   0.178   1.942   8.502 -0.1226  0.1286 -0.0564
 4326TIP3    H134613   0.162   1.870   8.563  3.9100 -1.4878 -0.5880
 4326TIP3    H234614   0.134   1.915   8.421  1.2014 -1.7728 -0.2108
 4327TIP3   OH234615   0.159   3.428   2.503  0.2838 -0.3981 -0.1409
 4327TIP3    H134616   0.168   3.333   2.494  0.1564 -0.4777  0.4955
 4327TIP3    H234617   0.065   3.444   2.496 -0.1617 -0.7526  3.1800
 4328TIP3   OH234618   0.707   4.701   7.535  0.3359  0.1754 -0.1605
 4328TIP3    H134619   0.622   4.665   7.510 -0.4947  1.8052  0.1841
 4328TIP3    H234620   0.706   4.699   7.631  0.5055  0.5861 -0.1490
 4329TIP3   OH234621   3.772   1.541   0.880  0.3894 -0.2084 -0.6470
 4329TIP3    H134622   3.701   1.502   0.929  1.0913  0.6652  1.1572
 4329TIP3    H234623   3.730   1.609   0.826 -0.2544 -0.4139 -0.4096
 4330TIP3   OH234624   3.836   0.592   8.681  0.3514 -0.3493 -0.0906
 4330TIP3    H134625   3.913   0.626   8.726  1.7259 -3.1426 -0.1184
 4330TIP3    H234626   3.762   0.629   8.730  1.7300  0.6082  1.3739
 4331TIP3   OH234627   4.970   4.905   8.107  0.0131 -0.3073 -0.1879
 4331TIP3    H134628   4.902   4.932   8.168 -0.1230 -2.0126  0.4799
 4331TIP3    H234629   4.925   4.851   8.042  0.4393  0.0448 -0.7840
 4332TIP3   OH234630   3.284   4.080   6.968  0.5859 -0.0126 -0.0478
 4332TIP3    H134631   3.239   4.023   7.031 -0.1642 -0.8429 -1.2958
 4332TIP3    H234632   3.372   4.044   6.963  0.4734 -0.3115  0.0867
 4333TIP3   OH234633   2.650   6.301   0.504 -0.6435  0.1052 -0.0380
 4333TIP3    H134634   2.616   6.343   0.584  1.6666  0.9610  0.5751
 4333TIP3    H234635   2.695   6.372   0.458  0.5742 -1.0181 -0.6193
 4334TIP3   OH234636   6.395   3.735   0.540  0.1445  0.4854 -0.2580
 4334TIP3    H134637   6.463   3.792   0.577  0.1101  0.3385  0.0332
 4334TIP3    H234638   6.443   3.669   0.490  0.1383  1.6009 -1.8189
 4335TIP3   OH234639   1.947   6.252   1.919  0.2350  0.0502 -0.4865
 4335TIP3    H134640   1.895   6.182   1.958 -0.5299 -0.1382 -1.7966
 4335TIP3    H234641   2.012   6.207   1.865  0.3023  0.3335 -0.6436
 4336TIP3   OH234642   2.800   2.368   2.057 -0.2689  0.3427 -0.4621
 4336TIP3    H134643   2.834   2.405   1.975 -1.9805 -0.8502 -1.7767
 4336TIP3    H234644   2.710   2.400   2.063 -0.4152 -0.2088  0.5696
 4337TIP3   OH234645   6.449   0.487   7.444  0.1076 -0.4092 -0.2339
 4337TIP3    H134646   6.490   0.415   7.396 -1.0487 -1.7561  0.6823
 4337TIP3    H234647   6.406   0.540   7.378 -1.2188 -2.0602 -0.7518
 4338TIP3   OH234648   2.651   5.864   7.182  0.1048  0.2641  0.2504
 4338TIP3    H134649   2.589   5.915   7.233  1.3900  0.2651  1.8826
 4338TIP3    H234650   2.596   5.813   7.122 -1.6115 -0.6883  2.4733
 4339TIP3   OH234651   1.005   1.188   0.202  0.2588 -0.3040 -0.4129
 4339TIP3    H134652   1.019   1.252   0.132 -0.3001 -0.3894 -0.6042
 4339TIP3    H234653   0.994   1.241   0.281 -3.4644  0.1050 -1.0125
 4340TIP3   OH234654   0.033   6.257   0.571  0.6023  0.1422 -0.2478
 4340TIP3    H134655  -0.060   6.248   0.590  0.1761  0.6784 -1.9009
 4340TIP3    H234656   0.064   6.167   0.556  0.1645  0.0336 -0.4987
 4341TIP3   OH234657   5.789   5.846   8.908 -0.0088  0.3387  0.1267
 4341TIP3    H134658   5.728   5.773   8.919 -2.0537  1.9017 -0.2981
 4341TIP3    H234659   5.802   5.852   8.814 -0.2596  0.8320  0.1211
 4342TIP3   OH234660   0.389   2.277   0.901 -0.1625 -0.3836  0.3627
 4342TIP3    H134661   0.409   2.212   0.834  1.3261  0.7084 -0.2883
 4342TIP3    H234662   0.340   2.345   0.855 -0.4132 -0.3269  0.7077
 4343TIP3   OH234663   2.387   1.713   7.576 -0.0668 -0.2927 -0.1160
 4343TIP3    H134664   2.329   1.789   7.577  0.1203 -0.1599  0.9609
 4343TIP3    H234665   2.343   1.648   7.630  0.9112 -0.0854  0.9623
 4344TIP3   OH234666   2.034   2.152   7.503 -0.0801 -0.0262  0.7937
 4344TIP3    H134667   2.092   2.222   7.474  0.5177 -1.4749 -1.8403
 4344TIP3    H234668   1.946   2.190   7.499  0.3471  0.9887  0.8329
 4345TIP3   OH234669   2.611   6.311   2.066  0.2365 -0.2138  0.3610
 4345TIP3    H134670   2.539   6.359   2.027  0.8385  0.1767 -0.2831
 4345TIP3    H234671   2.642   6.253   1.997  0.5100 -0.4190  0.6514
 4346TIP3   OH234672   0.175   5.389   6.356 -0.6451  0.5757 -0.3741
 4346TIP3    H134673   0.105   5.336   6.392 -0.3383 -0.3639 -1.1248
 4346TIP3    H234674   0.256   5.348   6.386 -0.3972  1.3364  0.0416
 4347TIP3   OH234675   5.161   2.516   1.522  0.1274 -0.5725 -0.9727
 4347TIP3    H134676   5.100   2.585   1.495  1.6285  2.2843  2.1502
 4347TIP3    H234677   5.237   2.563   1.555  1.2771 -3.7387  1.3878
 4348TIP3   OH234678   2.379   3.929   7.935 -0.3317 -0.5152 -0.4658
 4348TIP3    H134679   2.429   3.942   7.854 -0.2462 -1.3514 -0.5539
 4348TIP3    H234680   2.393   3.837   7.958  0.2953 -0.1139  0.9249
 4349TIP3   OH234681   5.268   0.528   7.084 -0.0992 -0.6606  0.2882
 4349TIP3    H134682   5.257   0.489   7.170  0.7495 -2.4870 -0.3896
 4349TIP3    H234683   5.351   0.574   7.088  0.3872 -1.5107  0.1978
 4350TIP3   OH234684   3.806   5.080   0.360  0.2916  0.1037  0.1757
 4350TIP3    H134685   3.837   5.169   0.376  1.0419  0.0175 -0.7429
 4350TIP3    H234686   3.796   5.074   0.265  2.7139 -1.5522 -0.0599
 4351TIP3   OH234687   5.299   1.379   7.216  0.2832  0.2635 -0.0396
 4351TIP3    H134688   5.330   1.391   7.126 -1.8203  0.5844 -0.7660
 4351TIP3    H234689   5.359   1.314   7.254  0.5793 -0.6424 -1.9786
 4352TIP3   OH234690   1.425   4.419   1.099  0.2292 -0.1398  0.1713
 4352TIP3    H134691   1.470   4.503   1.111 -1.6789  0.6196  3.6040
 4352TIP3    H234692   1.494   4.353   1.107  1.2795  1.0599  1.7135
 4353TIP3   OH234693   1.939   5.253   7.180 -0.1556  0.6520  0.4674
 4353TIP3    H134694   1.960   5.194   7.252 -0.1506 -0.1700 -0.1984
 4353TIP3    H234695   1.858   5.219   7.143  0.6176  0.1728 -0.8461
 4354TIP3   OH234696   0.246   4.834   0.652 -0.5924  0.0040  0.5152
 4354TIP3    H134697   0.330   4.880   0.651 -0.4597 -0.2122  1.3346
 4354TIP3    H234698   0.183   4.899   0.683 -0.6279 -0.0134  0.4803
 4355TIP3   OH234699   0.363   5.969   0.855  0.2467  0.2243 -1.0816
 4355TIP3    H134700   0.425   5.898   0.871 -0.6585 -0.6390 -1.3095
 4355TIP3    H234701   0.278   5.933   0.883 -0.4433  0.7079 -2.4909
 4356TIP3   OH234702   5.026   5.803   6.738 -0.4427 -0.6634  0.1524
 4356TIP3    H134703   5.022   5.813   6.833 -1.0900 -0.8831  0.1545
 4356TIP3    H234704   4.936   5.780   6.713 -0.2158 -0.8763 -0.4780
 4357TIP3   OH234705   2.828   3.015   0.979  0.2882 -0.5068  0.0759
 4357TIP3    H134706   2.813   2.999   0.886  2.1802 -1.3775 -0.1176
 4357TIP3    H234707   2.774   2.948   1.023 -0.5220 -0.1644 -0.3806
 4358TIP3   OH234708   3.195   2.580   8.805 -0.7621 -0.0514  0.3816
 4358TIP3    H134709   3.262   2.582   8.737 -1.8896 -0.0546 -0.7642
 4358TIP3    H234710   3.234   2.528   8.875  0.4407 -0.0278 -0.2408
 4359TIP3   OH234711   6.639   0.932   1.909  0.4003 -0.0573  0.0086
 4359TIP3    H134712   6.565   0.969   1.859  1.8804  1.7750 -0.9600
 4359TIP3    H234713   6.614   0.841   1.923 -1.8764  0.3851 -0.6123
 4360TIP3   OH234714   5.386   3.957   1.562 -0.2974  0.6106  0.1325
 4360TIP3    H134715   5.389   3.995   1.650  1.2108 -0.5484  0.6262
 4360TIP3    H234716   5.459   4.000   1.516 -0.5282  0.5665 -0.2719
 4361TIP3   OH234717   2.264   5.174   0.333  0.1259  0.7379 -0.2402
 4361TIP3    H134718   2.320   5.152   0.408 -1.9510 -2.1586  0.6469
 4361TIP3    H234719   2.209   5.246   0.364  1.0348  1.3222  0.0545
 4362TIP3   OH234720   1.273   2.662   1.199 -0.2456  0.4158  0.4041
 4362TIP3    H134721   1.277   2.568   1.220  0.6884  0.1851 -0.7121
 4362TIP3    H234722   1.184   2.675   1.166 -0.2960 -0.1382  0.3091
 4363TIP3   OH234723   0.071   1.716   7.380 -0.2617  0.4063 -0.5096
 4363TIP3    H134724   0.136   1.758   7.323 -1.0675  1.0511 -0.9877
 4363TIP3    H234725  -0.004   1.776   7.378 -0.4049  0.3079  1.0434
 4364TIP3   OH234726   0.015   0.423   7.447  0.2283  0.1224  0.7529
 4364TIP3    H134727  -0.023   0.475   7.376 -0.3822 -1.7182 -0.3232
 4364TIP3    H234728   0.100   0.394   7.414  0.3352  0.0006  1.1268
 4365TIP3   OH234729   6.758   4.373   8.242  0.3679  0.6751 -0.0096
 4365TIP3    H134730   6.794   4.430   8.174 -0.7735 -0.1154 -1.3199
 4365TIP3    H234731   6.665   4.395   8.246  0.3581  0.4916  1.0912
 4366TIP3   OH234732   0.336   4.666   8.235  0.1098  0.2539  0.1711
 4366TIP3    H134733   0.409   4.664   8.174 -0.0494  1.2427 -0.0718
 4366TIP3    H234734   0.377   4.664   8.322  0.4341  0.7395  0.0352
 4367TIP3   OH234735   2.189   1.553   8.002 -0.4145  0.3067  0.0847
 4367TIP3    H134736   2.141   1.475   7.974 -1.2262  1.3436 -1.5716
 4367TIP3    H234737   2.130   1.596   8.064 -0.6992  0.4588 -0.2875
 4368TIP3   OH234738   1.013   2.151   2.399  0.2207 -0.1837  0.8882
 4368TIP3    H134739   1.098   2.187   2.425  1.2009  1.0592 -3.1677
 4368TIP3    H234740   0.963   2.227   2.371 -1.3283 -1.1515  0.9390
 4369TIP3   OH234741   5.470   0.785   1.521 -0.3270  0.0401 -0.1214
 4369TIP3    H134742   5.410   0.728   1.570  0.2566 -0.8495 -0.4110
 4369TIP3    H234743   5.469   0.868   1.569  1.0111 -1.1068  2.0265
 4370TIP3   OH234744   1.407   5.196   2.609 -0.2665  0.3205 -0.6297
 4370TIP3    H134745   1.441   5.243   2.685 -0.2672 -0.8764  0.1349
 4370TIP3    H234746   1.340   5.255   2.573 -0.3528  0.8554  0.3591
 4371TIP3   OH234747   3.912   3.354   7.197  0.0217 -0.0516  0.5702
 4371TIP3    H134748   3.945   3.267   7.222  0.3078 -0.8960 -2.3147
 4371TIP3    H234749   3.926   3.358   7.102  1.9362  3.9759  0.8014
 4372TIP3   OH234750   3.559   1.664   8.505  0.1444 -0.1503 -0.1213
 4372TIP3    H134751   3.499   1.718   8.453 -0.8356 -1.1584 -0.0798
 4372TIP3    H234752   3.635   1.653   8.448 -0.1231  0.3146 -0.5889
 4373TIP3   OH234753   0.359   5.351   1.017  0.8777  0.7854  0.0208
 4373TIP3    H134754   0.314   5.423   0.973 -0.1031  0.6662  0.8058
 4373TIP3    H234755   0.414   5.313   0.948 -1.2484  0.0805 -1.4015
 4374TIP3   OH234756   3.798   1.513   6.846  0.0634 -0.2145 -0.4736
 4374TIP3    H134757   3.796   1.424   6.810 -1.2754 -0.1849 -0.5404
 4374TIP3    H234758   3.755   1.567   6.780  1.0316  0.5223 -0.5160
 4375TIP3   OH234759   0.900   0.609   8.206  0.3657  0.0344  0.2922
 4375TIP3    H134760   0.869   0.524   8.177 -2.4991  0.9901  0.2587
 4375TIP3    H234761   0.970   0.632   8.145 -2.6813  0.1974 -3.5187
 4376TIP3   OH234762   5.162   1.215   8.180  0.2003 -0.0551 -0.6076
 4376TIP3    H134763   5.114   1.148   8.131  1.0378  0.3911 -2.1096
 4376TIP3    H234764   5.254   1.201   8.157  0.4514  1.1922 -0.4621
 4377TIP3   OH234765   4.451   1.206   6.649 -0.3168  0.6992  0.5251
 4377TIP3    H134766   4.439   1.294   6.612 -1.0186  0.9558  1.3300
 4377TIP3    H234767   4.363   1.169   6.651  0.1289 -0.5964 -1.1154
 4378TIP3   OH234768   6.597   5.497   8.003 -0.4294  0.5526 -0.0438
 4378TIP3    H134769   6.580   5.531   7.915  0.0488 -3.5812 -1.9982
 4378TIP3    H234770   6.580   5.403   7.995  0.7963 -0.1811  4.0161
 4379TIP3   OH234771   1.837   0.680   2.413  0.0114 -0.0165  0.4062
 4379TIP3    H134772   1.929   0.699   2.429  0.1475 -0.0912 -0.2487
 4379TIP3    H234773   1.831   0.585   2.422  0.2598 -0.1569 -0.7623
 4380TIP3   OH234774   0.392   4.710   0.856  0.8040 -0.0745  0.3328
 4380TIP3    H134775   0.322   4.763   0.818  1.0398 -0.7831 -1.1485
 4380TIP3    H234776   0.461   4.772   0.877  1.2525  0.2097 -1.7891
 4381TIP3   OH234777   1.101   5.465   1.250  0.2476 -0.4522 -0.3173
 4381TIP3    H134778   1.054   5.459   1.333  0.8372 -0.1379  0.0488
 4381TIP3    H234779   1.157   5.542   1.259 -0.6523  0.3910 -1.5308
 4382TIP3   OH234780   2.661   1.877   1.121 -0.4514 -0.0528 -0.0238
 4382TIP3    H134781   2.637   1.966   1.094 -0.3356 -0.2841 -0.9380
 4382TIP3    H234782   2.654   1.826   1.040 -2.4248 -1.2791  0.8541
 4383TIP3   OH234783   1.062   6.111   7.870  0.2218 -0.2607 -0.7568
 4383TIP3    H134784   1.002   6.083   7.939 -0.9354  1.4300 -1.0342
 4383TIP3    H234785   1.122   6.171   7.914 -0.0040  0.1773 -1.0419
 4384TIP3   OH234786   1.387   3.805   7.269 -0.0412  0.8491 -0.2161
 4384TIP3    H134787   1.389   3.879   7.329  3.6825  0.7069  0.0939
 4384TIP3    H234788   1.339   3.836   7.193 -1.8231  2.2340  1.3913
 4385TIP3   OH234789   2.861   5.160   1.294  0.2625  0.2176  0.0915
 4385TIP3    H134790   2.791   5.207   1.249  0.9419  1.5812  0.3679
 4385TIP3    H234791   2.854   5.188   1.385 -0.5882 -1.8720  0.7056
 4386TIP3   OH234792   2.326   6.014   1.476  0.1874 -0.0681 -0.7724
 4386TIP3    H134793   2.315   5.995   1.569  0.4441 -0.2015 -0.7673
 4386TIP3    H234794   2.246   6.059   1.450  0.1664  0.0721 -0.4591
 4387TIP3   OH234795   0.771   5.428   0.745  0.1183 -0.4011  0.1691
 4387TIP3    H134796   0.765   5.389   0.832  2.9487  0.5265  0.8973
 4387TIP3    H234797   0.744   5.519   0.757  1.0017 -0.1333  0.2487
 4388TIP3   OH234798   0.664   1.835   2.129  0.3461 -0.1213 -0.2845
 4388TIP3    H134799   0.572   1.862   2.120 -0.3138 -1.7773  1.0096
 4388TIP3    H234800   0.702   1.902   2.186 -0.0621  0.5295 -0.7494
 4389TIP3   OH234801   5.706   6.295   7.609  0.7274 -0.2376  0.2573
 4389TIP3    H134802   5.723   6.251   7.526 -0.8189  0.2039 -0.3341
 4389TIP3    H234803   5.643   6.239   7.654  0.6706  0.1066  0.6180
 4390TIP3   OH234804   5.200   1.523   0.968 -0.1202  0.6059 -0.5065
 4390TIP3    H134805   5.149   1.490   0.894 -0.9637  0.7550 -0.0020
 4390TIP3    H234806   5.134   1.548   1.033  0.6444 -1.1400  1.0075
 4391TIP3   OH234807   3.321   2.544   0.069 -0.0792 -0.2739 -0.0908
 4391TIP3    H134808   3.314   2.458   0.110  1.1231 -0.2043  0.3022
 4391TIP3    H234809   3.270   2.602   0.127  1.9125 -0.1041  1.6049
 4392TIP3   OH234810   1.124   5.063   1.246 -0.1378  0.0371  0.3413
 4392TIP3    H134811   1.184   5.072   1.172 -0.8866 -1.0065 -0.4201
 4392TIP3    H234812   1.181   5.053   1.322  0.6853 -1.5142 -0.4361
 4393TIP3   OH234813   3.684   5.174   8.226  0.0649 -0.1948  0.3825
 4393TIP3    H134814   3.720   5.100   8.177 -0.3028 -0.0837 -0.0753
 4393TIP3    H234815   3.721   5.251   8.184 -1.4425 -0.0397 -0.7557
 4394TIP3   OH234816   4.741   4.500   8.309 -0.4845  0.0583 -0.0737
 4394TIP3    H134817   4.668   4.498   8.370 -1.1311  2.0234 -0.6889
 4394TIP3    H234818   4.737   4.587   8.269  0.4756 -0.7978 -2.2342
 4395TIP3   OH234819   0.168   0.297   0.687  0.0125 -0.1570 -0.5575
 4395TIP3    H134820   0.143   0.366   0.748  0.4077 -0.2383 -0.2938
 4395TIP3    H234821   0.098   0.232   0.694 -0.5956  0.4304 -1.1605
 4396TIP3   OH234822   2.334   1.829   0.739 -0.3411 -0.5055  0.4190
 4396TIP3    H134823   2.314   1.735   0.746 -0.4139 -0.4942  0.3569
 4396TIP3    H234824   2.269   1.871   0.795 -1.0652 -0.3951 -0.4753
 4397TIP3   OH234825   4.746   5.774   8.709  0.3380 -0.2255  0.1744
 4397TIP3    H134826   4.781   5.844   8.764  0.0901 -0.7371  0.9996
 4397TIP3    H234827   4.793   5.695   8.738  2.6026 -0.0416 -2.5265
 4398TIP3   OH234828   0.048   5.916   2.275 -0.3668 -0.1917  0.2975
 4398TIP3    H134829   0.129   5.910   2.325 -0.6476  1.4558  0.9981
 4398TIP3    H234830  -0.018   5.876   2.333 -0.3731  0.0974  0.4911
 4399TIP3   OH234831   6.337   3.214   7.980 -0.4886  0.3331  0.3978
 4399TIP3    H134832   6.315   3.307   7.983 -0.4140  0.3448  0.6108
 4399TIP3    H234833   6.254   3.170   7.962 -0.4189  0.4810 -0.2953
 4400TIP3   OH234834   3.196   4.634   8.903 -0.0224 -0.5858 -0.0362
 4400TIP3    H134835   3.130   4.699   8.926  0.6520  0.3487 -0.6629
 4400TIP3    H234836   3.164   4.552   8.943 -0.5911  0.2325  1.2732
 4401TIP3   OH234837   5.073   2.387   8.127  0.1955 -0.0819  0.5112
 4401TIP3    H134838   5.008   2.317   8.128 -0.5532  0.5994  0.5259
 4401TIP3    H234839   5.081   2.414   8.219  1.7463 -1.2695  0.7649
 4402TIP3   OH234840   3.315   4.978   1.105  0.1978 -0.7684  0.1415
 4402TIP3    H134841   3.298   4.898   1.154  0.4199 -0.9598 -0.0957
 4402TIP3    H234842   3.228   5.010   1.082  0.1368 -1.6451 -0.9021
 4403TIP3   OH234843   0.376   4.219   1.359  0.0915 -0.0693  0.4343
 4403TIP3    H134844   0.377   4.258   1.271  2.7285 -1.7023 -0.3817
 4403TIP3    H234845   0.296   4.166   1.361 -1.1647  1.7129 -0.0878
 4404TIP3   OH234846   4.195   3.895   1.289 -0.3611  0.3035  0.7586
 4404TIP3    H134847   4.201   3.991   1.286 -1.6559  0.4472  1.9866
 4404TIP3    H234848   4.112   3.875   1.245  0.6769 -0.4010 -0.9648
 4405TIP3   OH234849   0.257   1.617   8.042  0.1776  0.0529  0.1061
 4405TIP3    H134850   0.325   1.678   8.015 -0.3335  0.8869  0.6597
 4405TIP3    H234851   0.204   1.604   7.963 -0.7800  1.7778  0.4150
 4406TIP3   OH234852   2.023   0.861   1.925 -0.5112  0.1204 -0.0758
 4406TIP3    H134853   2.017   0.942   1.975 -1.6362 -0.3630  0.6326
 4406TIP3    H234854   2.010   0.792   1.991  0.6499 -0.6435 -0.6243
 4407TIP3   OH234855   4.234   3.504   1.698  0.6731  0.0001 -0.0854
 4407TIP3    H134856   4.229   3.478   1.790 -0.6974 -0.3798 -0.2511
 4407TIP3    H234857   4.282   3.432   1.656  0.5052 -0.2627  0.1715
 4408TIP3   OH234858   2.304   5.985   7.265 -0.6659 -0.3325  0.3408
 4408TIP3    H134859   2.218   6.003   7.302 -0.0234  0.7389  1.3796
 4408TIP3    H234860   2.361   6.050   7.304  0.3220  0.0412 -1.5906
 4409TIP3   OH234861   5.386   5.987   0.933 -0.0915 -0.0727 -0.0867
 4409TIP3    H134862   5.321   6.045   0.973 -0.0888  0.0207 -0.2190
 4409TIP3    H234863   5.375   5.999   0.839 -2.4574 -2.8355 -0.2852
 4410TIP3   OH234864   6.309   4.999   0.486 -0.1853 -1.0269  0.0839
 4410TIP3    H134865   6.387   5.055   0.483  0.3448 -1.7361  0.3382
 4410TIP3    H234866   6.331   4.925   0.428 -1.2704 -0.4905 -1.0563
 4411TIP3   OH234867   5.309   3.763   8.428  0.6550  0.2507  0.0773
 4411TIP3    H134868   5.390   3.713   8.414  1.4846  1.4988  0.2729
 4411TIP3    H234869   5.339   3.849   8.456 -0.6969  1.2518 -1.3889
 4412TIP3   OH234870   1.944   1.116   1.794  0.2576 -0.4209  0.2937
 4412TIP3    H134871   1.928   1.117   1.888  0.5813 -0.7654  0.3587
 4412TIP3    H234872   2.035   1.085   1.786  0.0846 -0.8365 -0.1460
 4413TIP3   OH234873   3.509   0.511   8.512  0.2562  0.3546  0.3381
 4413TIP3    H134874   3.436   0.451   8.526  0.9347 -1.2919 -2.3658
 4413TIP3    H234875   3.474   0.598   8.534 -1.0453 -0.8118  3.4770
 4414TIP3   OH234876   4.114   0.798   7.282 -0.2128  0.1966  0.4094
 4414TIP3    H134877   4.044   0.831   7.339 -1.4756  0.3008 -1.1496
 4414TIP3    H234878   4.069   0.742   7.219  0.9199  1.2332 -1.3929
 4415TIP3   OH234879   5.966   4.988   8.300 -0.1256 -0.1989  0.2268
 4415TIP3    H134880   5.917   4.912   8.330  0.5077 -1.3403 -1.4392
 4415TIP3    H234881   5.907   5.033   8.240  0.1133 -0.4064 -0.1723
 4416TIP3   OH234882   1.405   4.369   8.490 -0.1893 -0.3432 -0.0278
 4416TIP3    H134883   1.435   4.425   8.418 -1.3598  1.0468  0.5367
 4416TIP3    H234884   1.377   4.288   8.446 -1.0240  0.5344 -1.1836
 4417TIP3   OH234885   1.139   0.177   8.650  0.5799  0.5162  0.3920
 4417TIP3    H134886   1.060   0.129   8.676 -0.4069  0.8954 -1.7142
 4417TIP3    H234887   1.190   0.184   8.731  0.4929 -3.4418  0.9831
 4418TIP3   OH234888   3.996   4.735   1.738 -0.5703 -0.1301  0.0489
 4418TIP3    H134889   3.924   4.783   1.780  0.4803  1.2285  0.3766
 4418TIP3    H234890   4.069   4.744   1.799  0.3511 -0.0658 -1.0388
 4419TIP3   OH234891   6.654   0.866   7.033 -0.0666 -0.1394  0.5415
 4419TIP3    H134892   6.672   0.905   7.118 -1.9210 -1.7849  1.7964
 4419TIP3    H234893   6.600   0.930   6.988  1.8877  1.2499  0.0638
 4420TIP3   OH234894   1.786   5.737   0.650  0.1913  0.2643  0.1614
 4420TIP3    H134895   1.735   5.744   0.730  1.0610 -3.5598  1.2633
 4420TIP3    H234896   1.857   5.801   0.661 -0.7987  1.1855  1.4978
 4421TIP3   OH234897   3.404   2.535   8.662  0.3647 -0.0086 -0.0386
 4421TIP3    H134898   3.410   2.543   8.566  1.8157  1.5978  0.1192
 4421TIP3    H234899   3.484   2.578   8.693 -0.4506  0.1535  1.9240
 4422TIP3   OH234900   1.907   4.606   0.725  0.2367  0.2892 -0.0995
 4422TIP3    H134901   1.828   4.574   0.681  0.1689  0.4279 -0.0792
 4422TIP3    H234902   1.976   4.600   0.660  0.0696  0.8011 -0.3218
 4423TIP3   OH234903   3.035   5.202   0.189  0.5707  0.1345  0.2955
 4423TIP3    H134904   3.012   5.176   0.278 -0.4120 -1.9066 -0.4870
 4423TIP3    H234905   3.106   5.144   0.164  1.2253  1.0647 -0.0882
 4424TIP3   OH234906   6.612   1.620   1.038 -0.5266  0.6571  0.3141
 4424TIP3    H134907   6.555   1.614   0.962  0.2422  0.5466 -0.2607
 4424TIP3    H234908   6.646   1.709   1.037  1.1963  0.0304 -0.7482
 4425TIP3   OH234909   4.391   4.857   8.102  0.7395  0.3469 -0.1610
 4425TIP3    H134910   4.373   4.859   8.008 -0.9207 -0.0408  0.1274
 4425TIP3    H234911   4.317   4.902   8.142  2.2273  2.0138  0.8896
 4426TIP3   OH234912   0.944   2.111   8.170  0.1015 -0.0886  0.5393
 4426TIP3    H134913   0.850   2.114   8.183 -0.6070 -2.9715 -2.4868
 4426TIP3    H234914   0.972   2.030   8.214  0.6787 -0.5146 -0.5621
 4427TIP3   OH234915   1.110   0.710   8.058  0.1529  1.0006 -0.0042
 4427TIP3    H134916   1.054   0.705   7.980 -1.9376 -2.5673  1.4756
 4427TIP3    H234917   1.199   0.702   8.024 -0.7110 -0.8779 -2.0567
 4428TIP3   OH234918   4.443   5.250   0.378 -0.2103 -0.0118  0.2026
 4428TIP3    H134919   4.357   5.222   0.410 -0.6605 -1.7152 -2.1937
 4428TIP3    H234920   4.505   5.193   0.423 -0.3901  0.5913  1.2455
 4429TIP3   OH234921   4.163   0.788   1.576  0.0177 -0.6466 -0.1160
 4429TIP3    H134922   4.174   0.719   1.641  1.2413 -0.1400  0.2509
 4429TIP3    H234923   4.240   0.844   1.588 -0.1006 -0.1520 -1.5261
 4430TIP3   OH234924   0.161   3.304   1.325  0.0473 -0.3281 -0.2234
 4430TIP3    H134925   0.114   3.244   1.382 -0.4984 -0.6326 -0.9771
 4430TIP3    H234926   0.178   3.381   1.380  0.5138 -1.0523  0.6655
 4431TIP3   OH234927   2.820   2.906   1.914 -0.2215  0.5947  0.1132
 4431TIP3    H134928   2.828   2.832   1.854  0.0661  1.2354 -0.6595
 4431TIP3    H234929   2.803   2.866   1.999 -0.2114 -0.3509 -0.3137
 4432TIP3   OH234930   0.638   5.288   1.681  0.6287  0.0200 -0.3221
 4432TIP3    H134931   0.697   5.253   1.747  0.6934 -1.3318 -1.0648
 4432TIP3    H234932   0.675   5.373   1.658  2.2948 -0.7812 -0.7540
 4433TIP3   OH234933   4.585   4.335   0.512 -0.4765  0.3498 -0.2813
 4433TIP3    H134934   4.574   4.336   0.607 -1.0702 -0.8469 -0.3193
 4433TIP3    H234935   4.534   4.259   0.483  1.1461 -0.3666 -1.3787
 4434TIP3   OH234936   3.742   1.242   7.033  0.6120 -0.1818 -0.2529
 4434TIP3    H134937   3.753   1.274   6.943 -0.5502 -0.8798 -0.6633
 4434TIP3    H234938   3.648   1.251   7.051  1.0723  1.7319  1.5999
 4435TIP3   OH234939   1.642   3.241   1.925  0.2453  0.0859  0.0656
 4435TIP3    H134940   1.729   3.219   1.958  0.9589  2.3531 -0.1511
 4435TIP3    H234941   1.651   3.238   1.830  0.0062  0.0796  0.0416
 4436TIP3   OH234942   3.695   2.726   8.506 -0.1147 -0.2536  0.3282
 4436TIP3    H134943   3.612   2.770   8.524 -0.0724  0.1499 -0.4162
 4436TIP3    H234944   3.762   2.792   8.520 -0.0912  0.1512 -1.4098
 4437TIP3   OH234945   1.727   4.252   8.486  0.3141  0.7817  0.0450
 4437TIP3    H134946   1.667   4.287   8.420  0.1854  1.2633  0.4068
 4437TIP3    H234947   1.814   4.277   8.455  0.3258  0.1284 -0.4535
 4438TIP3   OH234948   2.231   5.018   0.851 -0.3090 -0.1052  0.1360
 4438TIP3    H134949   2.299   5.064   0.801  0.1573 -0.2605  0.6264
 4438TIP3    H234950   2.215   4.938   0.801 -0.1580 -0.0515 -0.0003
 4439TIP3   OH234951   6.523   3.400   2.010  0.0179 -0.1005  0.0451
 4439TIP3    H134952   6.540   3.385   2.103  1.2553 -0.5104 -0.2254
 4439TIP3    H234953   6.547   3.491   1.996  0.8847 -0.3325 -0.0736
 4440TIP3   OH234954   2.415   4.077   8.518 -0.5334  0.4527  0.1645
 4440TIP3    H134955   2.409   4.008   8.585 -2.3748  1.8902  1.6008
 4440TIP3    H234956   2.386   4.034   8.437 -0.4004 -0.7748  0.7392
 4441TIP3   OH234957   4.351   3.554   8.675 -0.1330 -0.4788 -0.8112
 4441TIP3    H134958   4.392   3.634   8.641 -0.0693 -0.1480  0.0130
 4441TIP3    H234959   4.417   3.487   8.666  0.1688 -0.2134 -0.6068
 4442TIP3   OH234960   1.603   6.679   8.011 -0.0779 -0.1056 -0.0941
 4442TIP3    H134961   1.689   6.668   8.052  1.0256  0.9683 -1.9789
 4442TIP3    H234962   1.622   6.697   7.919 -2.1783  2.9654 -0.0616
 4443TIP3   OH234963   1.766   2.257   8.507 -0.1562 -0.6135 -0.1601
 4443TIP3    H134964   1.674   2.283   8.508  0.0675  0.2283 -0.7130
 4443TIP3    H234965   1.815   2.338   8.519  0.5140 -1.0790  0.3096
 4444TIP3   OH234966   1.258   1.224   8.323 -0.0743 -0.1609  0.1279
 4444TIP3    H134967   1.284   1.315   8.339  0.7198 -0.4350  0.4260
 4444TIP3    H234968   1.172   1.217   8.365 -1.2308  1.0682 -1.8509
 4445TIP3   OH234969   4.928   3.005   7.110  0.5315  0.4305  0.1202
 4445TIP3    H134970   4.913   3.070   7.042 -1.1553  1.8717  1.7825
 4445TIP3    H234971   4.854   2.944   7.102 -1.1296  2.0327  2.1504
 4446TIP3   OH234972   3.874   1.750   6.267 -0.6285  0.6966 -0.0364
 4446TIP3    H134973   3.818   1.806   6.213  0.1356  0.1256 -1.4919
 4446TIP3    H234974   3.813   1.689   6.309 -1.1895  0.7348 -0.7719
 4447TIP3   OH234975   3.281   2.490   6.347  0.1764  0.1909  0.2759
 4447TIP3    H134976   3.187   2.506   6.358  0.2047  0.7378 -0.2095
 4447TIP3    H234977   3.323   2.555   6.404  0.2646 -0.1002  0.5478
 4448TIP3   OH234978   4.840   6.102   8.744 -0.7326  0.2095  0.5288
 4448TIP3    H134979   4.773   6.168   8.762 -1.1918 -0.1724  0.2293
 4448TIP3    H234980   4.922   6.143   8.770 -1.0080  0.9315  0.2678
 4449TIP3   OH234981   4.605   5.621   0.072  0.4766 -0.3594 -0.2413
 4449TIP3    H134982   4.649   5.608   0.156  0.7194  0.1803 -0.2837
 4449TIP3    H234983   4.643   5.554   0.015 -1.6181 -2.5905  0.7746
 4450TIP3   OH234984   0.591   0.513   1.925  0.0386  0.2324 -0.2237
 4450TIP3    H134985   0.623   0.427   1.897 -1.7746 -0.1244 -1.3386
 4450TIP3    H234986   0.566   0.500   2.017 -0.6364 -0.5728 -0.5055
 4451TIP3   OH234987   2.169   5.676   6.579  0.1235  0.0596 -0.2504
 4451TIP3    H134988   2.199   5.629   6.656 -0.4607 -0.1188 -0.1221
 4451TIP3    H234989   2.241   5.668   6.516  0.5249  0.0464  0.2059
 4452TIP3   OH234990   6.049   5.084   0.449  0.3119 -0.0221  0.2284
 4452TIP3    H134991   5.994   5.010   0.472 -0.1905  0.2296 -0.1465
 4452TIP3    H234992   6.139   5.053   0.464  0.0899 -0.5738  0.4361
 4453TIP3   OH234993   3.937   2.551   0.993  0.2392 -0.3118  0.4934
 4453TIP3    H134994   3.940   2.513   0.905  1.7298  0.2363  0.2779
 4453TIP3    H234995   3.984   2.488   1.048 -0.3446 -0.4626  0.8227
 4454TIP3   OH234996   3.950   1.442   6.560  0.4050 -0.4596  0.3471
 4454TIP3    H134997   3.988   1.366   6.605 -0.1125 -0.5100  0.7084
 4454TIP3    H234998   3.882   1.405   6.504  0.1767 -0.2661  0.4956
 4455TIP3   OH234999   5.988   5.823   0.102 -0.2436 -0.4949 -0.1984
 4455TIP3    H135000   6.055   5.765   0.066 -0.0089  0.3047 -1.1013
 4455TIP3    H235001   5.910   5.805   0.049  0.5682  1.9368 -2.4387
 4456TIP3   OH235002   0.766   5.561   1.581  0.2791 -0.1039  0.1712
 4456TIP3    H135003   0.822   5.589   1.654 -0.1256 -0.8149  0.7736
 4456TIP3    H235004   0.705   5.634   1.569  1.6324  0.9071 -0.8395
 4457TIP3   OH235005   5.890   2.173   6.845  0.4781  0.1488  0.2487
 4457TIP3    H135006   5.969   2.204   6.800  0.3147  1.2217  0.6503
 4457TIP3    H235007   5.818   2.211   6.794  0.2876  1.1678  1.2424
 4458TIP3   OH235008   6.655   2.085   7.862  0.2170 -0.3961 -0.2243
 4458TIP3    H135009   6.726   2.023   7.846 -0.1368 -0.9932  0.4897
 4458TIP3    H235010   6.599   2.078   7.785 -0.7048 -2.1974  0.5576
 4459TIP3   OH235011   5.584   6.363   8.264 -0.0735 -0.1376  0.0629
 4459TIP3    H135012   5.554   6.416   8.190  3.8683  1.6174 -0.5383
 4459TIP3    H235013   5.625   6.287   8.223 -0.5384 -0.6945  0.6257
 4460TIP3   OH235014   1.060   5.653   8.784  0.3602 -0.2703 -0.1716
 4460TIP3    H135015   1.080   5.717   8.715 -0.1447 -1.9519 -1.9694
 4460TIP3    H235016   1.140   5.601   8.791  0.2076 -0.4670  0.1205
 4461TIP3   OH235017   4.486   1.196   8.588  0.2676 -0.2400  0.2320
 4461TIP3    H135018   4.426   1.126   8.562  0.5091 -0.2616 -0.2991
 4461TIP3    H235019   4.495   1.186   8.682  0.7780 -1.3285  0.0908
 4462TIP3   OH235020   5.633   2.058   0.258  0.3090  0.4690  0.7062
 4462TIP3    H135021   5.700   2.066   0.190  0.0421  1.9761  0.5808
 4462TIP3    H235022   5.634   1.966   0.282 -1.1462 -0.7232 -2.9687
 4463TIP3   OH235023   2.592   1.084   8.339 -0.4733 -0.5050  0.0835
 4463TIP3    H135024   2.499   1.084   8.362 -0.7146 -1.1752 -0.8519
 4463TIP3    H235025   2.618   1.176   8.345 -1.0711 -0.3780  0.8356
 4464TIP3   OH235026   0.712   0.636   8.463  0.0842 -0.5361  0.4483
 4464TIP3    H135027   0.715   0.559   8.520  0.0977 -0.6227  0.3311
 4464TIP3    H235028   0.771   0.615   8.391 -0.2764 -0.6116  0.1700
 4465TIP3   OH235029   0.445   4.574   1.364 -0.1122 -0.3559  0.6657
 4465TIP3    H135030   0.493   4.556   1.283 -0.2763 -2.2728  0.9552
 4465TIP3    H235031   0.501   4.634   1.413 -0.1030  1.0224 -0.9190
 4466TIP3   OH235032   0.722   2.455   7.981 -0.3913  0.0861  0.9190
 4466TIP3    H135033   0.734   2.473   7.887  1.4222 -2.2879  0.5814
 4466TIP3    H235034   0.647   2.396   7.985  0.7555 -1.4602  0.6548
 4467TIP3   OH235035   0.500   3.870   7.449 -0.5077 -0.4878  0.0591
 4467TIP3    H135036   0.427   3.923   7.480 -1.4387 -1.1389 -0.9720
 4467TIP3    H235037   0.564   3.935   7.419 -0.7081  0.0848  0.8230
 4468TIP3   OH235038   3.261   3.272   1.841  0.2707  0.4832 -0.0366
 4468TIP3    H135039   3.283   3.223   1.920 -0.3513  0.3510  0.0663
 4468TIP3    H235040   3.205   3.343   1.872 -1.1298 -0.3747 -0.5062
 4469TIP3   OH235041   2.787   4.081   0.167  0.0581  0.5833  0.6710
 4469TIP3    H135042   2.746   4.111   0.086 -0.0188 -1.3464 -0.0606
 4469TIP3    H235043   2.840   4.006   0.140 -0.1333 -0.2306  2.4388
 4470TIP3   OH235044   1.077   0.333   8.165  0.4569  0.4777  0.3335
 4470TIP3    H135045   1.108   0.252   8.204  0.2738  0.6168  0.7796
 4470TIP3    H235046   0.983   0.319   8.151 -0.2046  1.5991  3.0584
 4471TIP3   OH235047   0.293   1.624   8.327  0.0817 -0.0086  0.3363
 4471TIP3    H135048   0.302   1.610   8.233  0.5345  0.0650  0.3651
 4471TIP3    H235049   0.325   1.543   8.366 -1.3794 -0.5827  0.4009
 4472TIP3   OH235050   3.321   3.387   0.149  0.6856 -0.3855  0.0208
 4472TIP3    H135051   3.367   3.450   0.204  1.6403 -0.2094 -0.9342
 4472TIP3    H235052   3.229   3.400   0.169  0.9485  0.4313  0.7672
 4473TIP3   OH235053   1.501   5.092   1.538 -0.1198 -0.3149  0.0834
 4473TIP3    H135054   1.577   5.130   1.494 -0.1115 -1.3923 -0.8908
 4473TIP3    H235055   1.465   5.163   1.591  1.2400  0.3636  0.1286
 4474TIP3   OH235056   0.298   5.413   1.714 -0.0008 -0.4080  0.1086
 4474TIP3    H135057   0.289   5.490   1.658 -0.0672  0.4199  1.2360
 4474TIP3    H235058   0.213   5.403   1.757 -0.7925 -2.5448 -1.7651
 4475TIP3   OH235059   2.285   6.081   0.860 -0.7046  0.5071 -0.4101
 4475TIP3    H135060   2.344   6.145   0.901 -0.9070 -0.0321  0.7638
 4475TIP3    H235061   2.310   6.082   0.768  0.7147  0.7672 -0.0549
 4476TIP3   OH235062   4.374   3.152   0.015 -0.1423 -0.0141 -0.3459
 4476TIP3    H135063   4.323   3.076   0.044  0.3487  0.2121  1.2162
 4476TIP3    H235064   4.440   3.164   0.083  0.4976  1.1457 -1.1328
 4477TIP3   OH235065   0.741   4.329   0.059 -0.2226  0.3173 -0.0258
 4477TIP3    H135066   0.823   4.290   0.090 -0.7165 -0.9772 -0.2728
 4477TIP3    H235067   0.732   4.410   0.109  1.5402  0.8477 -0.4847
 4478TIP3   OH235068   4.561   1.186   7.466  0.2161  0.0643  0.7503
 4478TIP3    H135069   4.495   1.226   7.409 -0.8807 -0.7370  1.4099
 4478TIP3    H235070   4.642   1.233   7.447 -0.2838  0.2863 -0.9376
 4479TIP3   OH235071   5.609   0.619   6.583  0.2903  0.3212 -0.1834
 4479TIP3    H135072   5.698   0.592   6.564 -0.0511  0.1038 -1.5817
 4479TIP3    H235073   5.618   0.685   6.652  1.6086  1.0253 -0.9944
 4480TIP3   OH235074   5.079   6.237   8.854  0.3659  0.0504 -0.1867
 4480TIP3    H135075   5.041   6.320   8.884 -0.2231 -0.2038 -0.2090
 4480TIP3    H235076   5.163   6.231   8.900 -0.7037 -0.5601  1.8444
 4481TIP3   OH235077   2.459   0.879   8.004 -0.1641  0.4020 -0.1583
 4481TIP3    H135078   2.408   0.824   8.063 -0.3744 -2.0091 -2.3835
 4481TIP3    H235079   2.497   0.818   7.941  0.9189  2.6802 -1.8750
 4482TIP3   OH235080   5.610   1.167   8.827 -0.0439  0.0773  0.0098
 4482TIP3    H135081   5.595   1.160   8.921 -0.0800  0.5539  0.0424
 4482TIP3    H235082   5.688   1.114   8.811 -0.2878 -0.3525  0.2387
 4483TIP3   OH235083   1.355   0.608   6.218 -0.1788 -0.4032  0.0701
 4483TIP3    H135084   1.399   0.523   6.220 -0.7174 -0.7223 -0.7764
 4483TIP3    H235085   1.402   0.661   6.282  0.3830 -1.2335  0.3662
 4484TIP3   OH235086   5.041   6.611   1.245 -0.9133 -0.2762 -0.8701
 4484TIP3    H135087   5.018   6.544   1.310  0.5095 -0.3240 -0.3929
 4484TIP3    H235088   5.071   6.685   1.297  0.7526 -0.5073 -1.4620
 4485TIP3   OH235089   5.000   1.620   1.156 -0.1900 -0.1473  0.2328
 4485TIP3    H135090   5.053   1.695   1.184 -0.0510 -0.9962  2.5131
 4485TIP3    H235091   4.962   1.587   1.237  1.0624 -3.5324 -0.3972
 4486TIP3   OH235092   4.102   3.830   1.976  0.2494  0.1744  0.3551
 4486TIP3    H135093   4.169   3.805   1.912 -0.3765 -1.6982  0.3745
 4486TIP3    H235094   4.021   3.791   1.942 -0.0708 -1.0262  2.3515
 4487TIP3   OH235095   3.174   6.656   2.096  0.9587  0.3831 -0.4080
 4487TIP3    H135096   3.238   6.588   2.119  0.8256  0.1739 -0.6467
 4487TIP3    H235097   3.157   6.702   2.178  1.3863  0.4140 -0.3350
 4488TIP3   OH235098   1.653   1.079   1.524 -0.4445  0.2164 -0.0042
 4488TIP3    H135099   1.666   0.986   1.542 -0.0402  0.0355 -1.1564
 4488TIP3    H235100   1.560   1.087   1.504 -0.6801  0.2424  1.0039
 4489TIP3   OH235101   5.356   0.185   1.933 -0.8004  0.0709  0.6178
 4489TIP3    H135102   5.309   0.262   1.966 -1.5689 -0.5073  0.8877
 4489TIP3    H235103   5.442   0.220   1.907 -1.6959  1.3289 -0.8070
 4490TIP3   OH235104   4.188   3.570   7.905 -0.0992  0.0219 -0.2594
 4490TIP3    H135105   4.249   3.524   7.848 -0.5508  1.1716 -1.7231
 4490TIP3    H235106   4.244   3.624   7.961  0.3033 -0.2842 -0.3635
 4491TIP3   OH235107   6.195   6.295   0.728 -0.0118  0.1481 -0.3931
 4491TIP3    H135108   6.182   6.222   0.667 -1.5828  1.7686 -2.1254
 4491TIP3    H235109   6.107   6.324   0.751  0.4972  2.4657 -1.0357
 4492TIP3   OH235110   4.846   0.721   7.178  0.0366 -0.0096  0.8527
 4492TIP3    H135111   4.871   0.645   7.124 -0.1274  0.0992  0.6261
 4492TIP3    H235112   4.761   0.697   7.214  0.1019 -0.0404  0.9893
 4493TIP3   OH235113   0.210   6.486   1.446  0.3847  0.0600  0.3936
 4493TIP3    H135114   0.276   6.482   1.515  1.6029  0.8112 -0.6849
 4493TIP3    H235115   0.219   6.573   1.408  0.9573 -0.8813 -1.8311
 4494TIP3   OH235116   3.272   4.400   1.943  0.1601  0.4539  0.0747
 4494TIP3    H135117   3.195   4.382   1.998  0.6578 -0.9718  0.3444
 4494TIP3    H235118   3.336   4.335   1.970  0.5376 -0.0878 -1.9870
 4495TIP3   OH235119   5.754   4.621   7.954 -0.2260  0.0362 -0.2160
 4495TIP3    H135120   5.704   4.591   7.877  2.8429 -0.1543 -2.3001
 4495TIP3    H235121   5.845   4.601   7.932  0.9302  1.4441  2.8575
 4496TIP3   OH235122   3.393   6.057   1.340 -0.3447  0.0231 -0.5964
 4496TIP3    H135123   3.444   5.989   1.384  1.0414  0.8457 -0.8838
 4496TIP3    H235124   3.302   6.032   1.356  0.1282 -1.2015  0.3750
 4497TIP3   OH235125   6.146   3.209   1.569  0.0400 -0.4537  0.3594
 4497TIP3    H135126   6.172   3.301   1.575  1.1277 -0.5428 -1.9116
 4497TIP3    H235127   6.109   3.189   1.654  2.5558  1.2478  1.9808
 4498TIP3   OH235128   1.975   4.041   7.646 -0.1888  0.0340  0.0185
 4498TIP3    H135129   1.908   4.005   7.588 -2.0911  0.3079  1.9038
 4498TIP3    H235130   1.953   4.133   7.655 -1.2884 -0.3796  2.7122
 4499TIP3   OH235131   4.764   1.957   1.137  0.0169  0.5468  0.3064
 4499TIP3    H135132   4.733   1.986   1.223  0.8315  1.9582  0.1556
 4499TIP3    H235133   4.753   2.033   1.080  2.5821  0.7634 -0.0318
 4500TIP3   OH235134   6.554   0.754   0.223 -0.9082  0.2890  0.2365
 4500TIP3    H135135   6.592   0.668   0.209  2.0419  1.6069 -0.8040
 4500TIP3    H235136   6.534   0.787   0.135  2.0470  2.1911  0.1245
 4501TIP3   OH235137   6.452   5.587   1.210 -0.2050  0.3393  0.0758
 4501TIP3    H135138   6.491   5.514   1.161  1.2262  1.1569 -0.0294
 4501TIP3    H235139   6.523   5.621   1.264 -0.8971  1.5684  0.2433
 4502TIP3   OH235140   6.720   4.045   8.921 -0.1906 -0.6987 -0.0764
 4502TIP3    H135141   6.691   4.114   8.861 -0.1901 -0.7816 -0.1716
 4502TIP3    H235142   6.806   4.020   8.888  0.7398  0.7010  1.1728
 4503TIP3   OH235143   1.741   0.255   1.986 -0.3429  0.0678  0.3372
 4503TIP3    H135144   1.746   0.160   1.976  0.5124 -0.0029  1.3521
 4503TIP3    H235145   1.809   0.276   2.050  0.0183  1.4597 -0.4727
 4504TIP3   OH235146   5.278   1.317   0.383  0.2162 -0.6305 -0.3080
 4504TIP3    H135147   5.279   1.410   0.408 -0.4123 -0.9531  0.9861
 4504TIP3    H235148   5.202   1.309   0.325 -0.7096 -0.6210  0.8556
 4505TIP3   OH235149   2.772   6.498   1.532  0.1759 -0.1371 -0.7588
 4505TIP3    H135150   2.769   6.402   1.537  0.4934 -0.1592 -0.9715
 4505TIP3    H235151   2.832   6.524   1.602 -0.5392 -0.0383 -0.1683
 4506TIP3   OH235152   3.459   0.424   6.808  0.4621 -0.6410 -0.5329
 4506TIP3    H135153   3.483   0.505   6.763  1.8311  0.0174  1.2550
 4506TIP3    H235154   3.501   0.355   6.757  0.1211 -0.1458 -1.5100
 4507TIP3   OH235155   4.458   4.118   0.567  0.1306 -0.4488  0.0385
 4507TIP3    H135156   4.372   4.151   0.593  1.1124  1.0011  1.6646
 4507TIP3    H235157   4.475   4.045   0.625 -0.5241 -1.6118 -1.1794
 4508TIP3   OH235158   2.191   2.197   0.798  0.0772 -0.0871 -0.3576
 4508TIP3    H135159   2.181   2.244   0.715 -0.6179  0.1549 -0.1404
 4508TIP3    H235160   2.275   2.152   0.790  1.7439  2.7023  0.1637
 4509TIP3   OH235161   4.380   5.048   0.564 -0.5940 -0.5726  0.2131
 4509TIP3    H135162   4.298   5.054   0.515 -0.0261 -2.0940 -0.9803
 4509TIP3    H235163   4.353   5.024   0.653 -1.4241 -1.5369 -0.2836
 4510TIP3   OH235164   0.365   6.060   7.751  0.1591 -0.1606 -0.5822
 4510TIP3    H135165   0.414   6.085   7.829  0.0818 -0.3163 -0.4848
 4510TIP3    H235166   0.372   6.137   7.693 -2.0795  1.0425  0.6353
 4511TIP3   OH235167   0.668   0.002   8.952 -1.0681 -0.2758  0.8131
 4511TIP3    H135168   0.709  -0.070   8.904 -0.9575 -0.0311  0.5368
 4511TIP3    H235169   0.658  -0.031   9.041  1.5658  0.3451  1.4270
 4512TIP3   OH235170   0.138   0.362   8.919 -0.2959 -0.7574 -0.3014
 4512TIP3    H135171   0.224   0.386   8.886  0.0868 -2.2554 -0.4583
 4512TIP3    H235172   0.150   0.354   9.014 -0.9651  1.7672  0.0641
 4513TIP3   OH235173   2.500   5.748   7.905  0.6231  0.3437 -0.0961
 4513TIP3    H135174   2.414   5.746   7.861  0.7285 -0.1108 -0.2858
 4513TIP3    H235175   2.560   5.711   7.841  0.8149 -0.1457  0.3630
 4514TIP3   OH235176   1.602   0.831   8.254  0.0025 -0.0542  0.4044
 4514TIP3    H135177   1.670   0.828   8.322 -0.5683 -0.5063  0.9701
 4514TIP3    H235178   1.535   0.770   8.285 -0.6177  0.3137 -0.1927
 4515TIP3   OH235179   5.639   5.526   8.711  1.2942 -0.3548  0.0917
 4515TIP3    H135180   5.734   5.522   8.724  1.2770 -2.1983 -0.0965
 4515TIP3    H235181   5.605   5.449   8.756 -0.6614  2.3358  3.7840
 4516TIP3   OH235182   3.359   2.296   8.244  0.2482  0.3557  0.5996
 4516TIP3    H135183   3.443   2.253   8.262 -0.1338 -0.6740  0.0315
 4516TIP3    H235184   3.358   2.307   8.149  0.2246  1.4114  0.7183
 4517TIP3   OH235185   0.688   2.342   7.007 -0.1107 -0.2100 -0.6307
 4517TIP3    H135186   0.648   2.416   6.962 -0.4261 -1.6155 -2.8027
 4517TIP3    H235187   0.775   2.334   6.968  0.0136 -0.8310 -0.2367
 4518TIP3   OH235188   6.693   0.823   7.619 -0.2158 -0.4402 -0.3500
 4518TIP3    H135189   6.734   0.787   7.540  0.4442 -0.6731  0.0865
 4518TIP3    H235190   6.758   0.885   7.653 -0.6553 -0.0596 -0.1939
 4519TIP3   OH235191   4.502   1.311   1.084  0.6762 -0.4781  0.0577
 4519TIP3    H135192   4.556   1.240   1.050  0.0372 -1.0585  0.2377
 4519TIP3    H235193   4.552   1.347   1.157  1.1897 -0.4628 -0.2947
 4520TIP3   OH235194   2.249   2.283   0.503 -0.1239 -0.6540  0.1303
 4520TIP3    H135195   2.293   2.199   0.496 -0.9901 -1.0882 -0.2193
 4520TIP3    H235196   2.263   2.326   0.418 -1.9263 -1.5855 -0.6853
 4521TIP3   OH235197   1.562   1.308   8.900  0.0164 -0.3503  0.7084
 4521TIP3    H135198   1.482   1.355   8.922  1.6719  2.7826  0.5026
 4521TIP3    H235199   1.535   1.244   8.835 -2.4053  0.1527  1.1210
 4522TIP3   OH235200   3.408   3.921   7.846  0.2094 -0.0361  0.0136
 4522TIP3    H135201   3.329   3.925   7.900  0.6342  0.8485  0.5971
 4522TIP3    H235202   3.378   3.934   7.757 -0.2133  1.1857  0.3246
 4523TIP3   OH235203   1.689   4.616   8.120  0.2622 -0.4694 -0.4898
 4523TIP3    H135204   1.721   4.606   8.030  1.4422 -0.2335 -0.1124
 4523TIP3    H235205   1.744   4.686   8.157  1.3772 -2.1198  1.1236
 4524TIP3   OH235206   4.644   3.034   7.234  0.6518 -0.3491 -0.3186
 4524TIP3    H135207   4.684   2.987   7.161  1.3718 -2.9912  1.6408
 4524TIP3    H235208   4.550   3.023   7.222  0.7797 -1.2592 -0.5368
 4525TIP3   OH235209   2.781   2.646   7.933 -0.2591 -0.0291  0.2496
 4525TIP3    H135210   2.826   2.567   7.964 -0.1407 -0.4434 -0.9232
 4525TIP3    H235211   2.692   2.616   7.911 -0.0295  0.0073 -0.7921
 4526TIP3   OH235212   5.955   0.669   7.975 -0.4915  0.3066 -0.4798
 4526TIP3    H135213   5.901   0.722   8.034  1.5404  1.9981 -0.0147
 4526TIP3    H235214   6.045   0.691   7.999  0.4396 -1.6991 -1.8293
 4527TIP3   OH235215   0.381   6.076   0.084 -0.5997 -0.0169 -0.7021
 4527TIP3    H135216   0.384   5.990   0.126 -1.1170 -0.2316 -1.0973
 4527TIP3    H235217   0.295   6.080   0.043 -0.5932  0.7043 -0.6646
 4528TIP3   OH235218   6.165   0.765   0.543 -0.1598  0.3192  0.2360
 4528TIP3    H135219   6.231   0.819   0.587  0.0775  1.8888 -1.8747
 4528TIP3    H235220   6.209   0.682   0.526  1.5796  1.5339 -1.6613
 4529TIP3   OH235221   0.202   1.288   7.456  0.1344 -0.0785 -0.1461
 4529TIP3    H135222   0.150   1.307   7.534  0.0144  0.5367 -0.3694
 4529TIP3    H235223   0.243   1.204   7.474  0.9846  0.5701  1.0478
 4530TIP3   OH235224   2.857   5.424   7.043 -0.2776  0.2404  0.1819
 4530TIP3    H135225   2.894   5.442   6.957 -0.6596  1.4053  0.2432
 4530TIP3    H235226   2.916   5.469   7.104 -1.4798  1.7368  0.3110
 4531TIP3   OH235227   0.066   4.865   8.741  0.2609  0.2325  0.1130
 4531TIP3    H135228   0.034   4.948   8.705 -1.2020  0.2557  1.3419
 4531TIP3    H235229   0.125   4.891   8.812  1.5706  0.1859 -0.9195
 4532TIP3   OH235230   5.578   4.613   1.062 -0.0044  0.1897  0.4048
 4532TIP3    H135231   5.635   4.565   1.123 -2.1417 -2.9964  0.1343
 4532TIP3    H235232   5.619   4.600   0.977  0.1901  0.0655  0.5146
 4533TIP3   OH235233   0.307   1.292   1.518  0.1577 -0.2123 -0.7670
 4533TIP3    H135234   0.249   1.286   1.442 -1.2277 -1.2623  0.3384
 4533TIP3    H235235   0.248   1.298   1.593  1.4906 -0.7417  0.3558
 4534TIP3   OH235236   1.194   3.661   7.578  0.5587 -0.3410  0.2999
 4534TIP3    H135237   1.249   3.737   7.597 -0.0454  0.4513 -0.9543
 4534TIP3    H235238   1.248   3.604   7.524  0.5085 -0.0760 -0.0304
 4535TIP3   OH235239   2.905   5.672   8.019 -0.3152  0.2997  0.5384
 4535TIP3    H135240   2.956   5.604   8.062 -0.3482  0.4855  0.8737
 4535TIP3    H235241   2.848   5.625   7.959  0.5340  0.1175 -0.1431
 4536TIP3   OH235242   3.891   5.349   8.017 -0.0861 -0.2248 -0.3464
 4536TIP3    H135243   3.824   5.390   8.072  0.6027  0.8092 -0.2608
 4536TIP3    H235244   3.856   5.355   7.928 -0.3297 -0.1238 -0.2439
 4537TIP3   OH235245   3.480   1.893   6.994  0.3183 -0.3980  0.4604
 4537TIP3    H135246   3.517   1.927   7.075 -0.1036 -2.6459  1.6837
 4537TIP3    H235247   3.508   1.802   6.991 -1.3117 -0.9070 -0.9012
 4538TIP3   OH235248   2.027   1.306   1.591  0.3243  0.4230  0.2715
 4538TIP3    H135249   2.017   1.229   1.648 -0.5389 -0.1336 -0.6127
 4538TIP3    H235250   1.938   1.337   1.576  0.5768  0.8607 -0.3629
 4539TIP3   OH235251   0.794   1.141   0.502 -0.4081 -0.0899  0.7511
 4539TIP3    H135252   0.733   1.089   0.553 -2.2090  1.1903 -0.0017
 4539TIP3    H235253   0.750   1.225   0.489  1.0358  0.5018 -0.7851
 4540TIP3   OH235254   1.155   6.240   0.741  0.2319  0.6278  0.1092
 4540TIP3    H135255   1.101   6.290   0.802  0.9128  1.2531  0.2112
 4540TIP3    H235256   1.135   6.149   0.761 -0.3806  0.8425  0.5076
 4541TIP3   OH235257   3.013   0.404   8.067 -0.9281 -0.6906 -0.3192
 4541TIP3    H135258   3.022   0.481   8.011  1.0970 -0.7437 -0.1131
 4541TIP3    H235259   2.965   0.436   8.143  0.5023  0.5703  0.0893
 4542TIP3   OH235260   3.629   3.812   1.382 -0.5654  0.2720 -0.4134
 4542TIP3    H135261   3.697   3.801   1.449 -0.2598 -1.4370 -0.9737
 4542TIP3    H235262   3.587   3.727   1.376 -4.1877  1.7153  1.3373
 4543TIP3   OH235263   5.252   1.682   8.555  0.2667 -0.3384 -0.2596
 4543TIP3    H135264   5.197   1.752   8.521  0.2303 -0.1386  0.2093
 4543TIP3    H235265   5.209   1.601   8.526  0.6827 -0.1710 -1.3917
 4544TIP3   OH235266   4.613   0.225   2.087 -0.1437  0.0976 -0.3924
 4544TIP3    H135267   4.657   0.140   2.091  0.7834  0.6077  2.1294
 4544TIP3    H235268   4.660   0.279   2.151 -1.3163  2.2225 -1.2384
 4545TIP3   OH235269   1.075   3.961   7.696 -0.1361  0.0069 -0.2717
 4545TIP3    H135270   1.055   3.970   7.603  0.9443  0.1145 -0.5077
 4545TIP3    H235271   1.113   3.874   7.705  1.8168  0.8014 -0.3475
 4546TIP3   OH235272   2.925   1.950   7.903  0.5807  0.7490 -0.5771
 4546TIP3    H135273   2.835   1.966   7.934  0.1190 -1.5743 -0.5815
 4546TIP3    H235274   2.981   1.981   7.974 -0.2338  1.5444 -0.2629
 4547TIP3   OH235275   3.526   4.439   7.003  0.3125 -0.3013 -0.2509
 4547TIP3    H135276   3.581   4.465   6.929 -0.5475 -2.1491 -1.6253
 4547TIP3    H235277   3.460   4.507   7.009  0.0695 -0.3931 -1.5725
 4548TIP3   OH235278   2.093   3.414   0.892  0.1287 -0.0611  0.4188
 4548TIP3    H135279   2.099   3.508   0.908  1.0636  0.2226 -1.3664
 4548TIP3    H235280   2.090   3.406   0.796  1.8653 -1.9046  0.4484
 4549TIP3   OH235281   5.790   5.101   8.132  0.0362 -0.1755  0.3441
 4549TIP3    H135282   5.701   5.068   8.143 -0.8632  2.0741  0.5073
 4549TIP3    H235283   5.807   5.093   8.038 -1.1878  1.1884 -0.0462
 4550TIP3   OH235284   0.390   3.007   1.375  0.1123 -0.2619 -0.2746
 4550TIP3    H135285   0.394   2.991   1.469 -0.7963  0.2370 -0.1310
 4550TIP3    H235286   0.339   2.933   1.341  0.4540 -0.4502 -0.3799
 4551TIP3   OH235287   0.213   4.036   1.192  0.3752  0.6132 -0.3608
 4551TIP3    H135288   0.221   4.089   1.113  0.7680 -2.0999 -2.2967
 4551TIP3    H235289   0.125   3.999   1.187  1.1574 -1.3417 -0.8287
 4552TIP3   OH235290   4.629   3.886   0.389 -0.5135 -0.3982 -0.2968
 4552TIP3    H135291   4.594   3.923   0.470 -1.5134 -0.3532 -0.7470
 4552TIP3    H235292   4.718   3.857   0.413 -0.2522  0.9427  0.4357
 4553TIP3   OH235293   6.351   6.512   0.648  0.2795 -0.2450 -0.1265
 4553TIP3    H135294   6.318   6.511   0.558  1.0506 -0.1191 -0.4238
 4553TIP3    H235295   6.296   6.449   0.695 -0.2787 -0.1431 -0.6299
 4554TIP3   OH235296   6.084   0.389   8.252 -0.3443  0.4376  0.2010
 4554TIP3    H135297   6.163   0.422   8.295  0.2403  1.3964 -1.4932
 4554TIP3    H235298   6.077   0.298   8.281  0.3910  0.8280  1.7266
 4555TIP3   OH235299   3.998   2.881   7.021 -0.3340  0.6696 -0.4383
 4555TIP3    H135300   4.007   2.861   6.928 -0.0284 -0.6256 -0.1422
 4555TIP3    H235301   4.088   2.881   7.054 -0.5522 -0.9734  0.2598
 4556TIP3   OH235302   1.109   3.454   8.004 -0.3078 -0.2356  0.4316
 4556TIP3    H135303   1.164   3.376   8.004 -0.5216 -0.3874  0.7206
 4556TIP3    H235304   1.094   3.473   8.096 -0.1903  0.1969  0.3661
 4557TIP3   OH235305   2.532   5.278   8.717  0.5082  0.2666 -0.3314
 4557TIP3    H135306   2.546   5.286   8.623 -0.2737 -1.2577 -0.6131
 4557TIP3    H235307   2.573   5.195   8.741 -0.2361  0.1051  0.4561
 4558TIP3   OH235308   1.082   1.536   7.850  0.1150 -0.4159 -0.1438
 4558TIP3    H135309   1.095   1.518   7.757  1.4384 -2.5073  0.3914
 4558TIP3    H235310   0.987   1.532   7.862  0.0009 -1.3417 -1.1825
 4559TIP3   OH235311   4.336   3.821   0.926  0.3768  0.4592  0.4177
 4559TIP3    H135312   4.276   3.771   0.870  0.8479 -0.5578  0.7964
 4559TIP3    H235313   4.338   3.908   0.887 -0.8262  0.3261  0.0058
 4560TIP3   OH235314   2.977   2.853   8.644  0.0524 -0.1960 -0.1627
 4560TIP3    H135315   2.994   2.773   8.595 -0.1179 -0.5865  0.4046
 4560TIP3    H235316   2.985   2.827   8.736 -0.5008  0.3173  0.0378
 4561TIP3   OH235317   6.123   0.048   0.366  0.3098 -0.4387 -0.3326
 4561TIP3    H135318   6.187   0.052   0.295  0.3889  0.4783 -0.2194
 4561TIP3    H235319   6.074  -0.033   0.350  0.9590 -0.7314 -0.8781
 4562TIP3   OH235320   5.376   0.337   0.917 -0.7753  0.4991 -0.3507
 4562TIP3    H135321   5.373   0.272   0.847 -0.4964  0.1339 -0.0324
 4562TIP3    H235322   5.448   0.395   0.894 -1.4339  1.0876 -0.9669
 4563TIP3   OH235323   2.988   6.372   7.759  0.7668 -0.0828  0.2582
 4563TIP3    H135324   3.006   6.401   7.669  2.2517 -0.0903  0.5285
 4563TIP3    H235325   2.984   6.277   7.753 -0.8150 -0.0230 -0.0633
 4564TIP3   OH235326   4.261   2.308   8.900 -0.0861 -0.1681 -0.7491
 4564TIP3    H135327   4.188   2.285   8.844 -0.4808 -0.0713 -0.2821
 4564TIP3    H235328   4.226   2.375   8.959  0.9704  1.5340 -1.9585
 4565TIP3   OH235329   6.196   4.377   0.778  0.1662  0.1159 -0.4936
 4565TIP3    H135330   6.108   4.402   0.751 -0.2836 -0.8589  0.0157
 4565TIP3    H235331   6.251   4.452   0.755 -0.9081  1.0244 -0.1522
 4566TIP3   OH235332   4.511   4.055   2.088  0.0008  0.1845  0.2526
 4566TIP3    H135333   4.553   4.004   2.158 -2.0994 -1.0832  0.6834
 4566TIP3    H235334   4.432   4.090   2.128 -0.1940  1.1898 -0.9426
 4567TIP3   OH235335   0.259   4.797   1.435  0.3243 -0.0852  0.4408
 4567TIP3    H135336   0.291   4.875   1.390  1.1392 -0.9263 -0.4808
 4567TIP3    H235337   0.319   4.786   1.509  1.5147 -0.9924 -0.6181
 4568TIP3   OH235338   5.027   4.047   7.357  0.4093 -0.0699 -0.1933
 4568TIP3    H135339   5.087   3.977   7.380  1.0673 -0.2157 -2.1658
 4568TIP3    H235340   4.943   4.020   7.393  0.2676 -2.7088 -2.2278
 4569TIP3   OH235341   5.627   5.279   7.286  0.1101 -0.0741  0.3763
 4569TIP3    H135342   5.680   5.213   7.240  1.6943 -0.1689  2.1864
 4569TIP3    H235343   5.564   5.227   7.336 -0.5014 -0.0450 -0.3398
 4570TIP3   OH235344   5.344   1.987   8.020 -0.1193  0.3476  0.2724
 4570TIP3    H135345   5.347   1.935   8.100 -2.5473 -0.9147 -0.3551
 4570TIP3    H235346   5.386   1.931   7.954 -0.6052  0.1853  0.0963
 4571TIP3   OH235347   3.918   4.949   1.422 -0.0362  0.0456 -0.6230
 4571TIP3    H135348   3.939   5.041   1.406 -1.0179  0.5810  0.9798
 4571TIP3    H235349   3.822   4.945   1.418 -0.1181 -0.5211  1.1431
 4572TIP3   OH235350   3.640   5.228   1.639 -0.2723 -0.5004  0.3344
 4572TIP3    H135351   3.641   5.257   1.730  1.8091  1.1320 -0.1241
 4572TIP3    H235352   3.630   5.309   1.588  2.6860 -0.7957 -0.9344
 4573TIP3   OH235353   2.973   3.189   7.590  0.1049 -0.1472 -0.1925
 4573TIP3    H135354   2.991   3.267   7.643 -0.0458  0.8127 -1.4905
 4573TIP3    H235355   3.035   3.194   7.517  0.5787 -1.6485  0.0753
 4574TIP3   OH235356   5.032   1.898   6.456 -0.6797 -0.0129  0.0826
 4574TIP3    H135357   4.973   1.834   6.496 -0.8892 -0.5068 -0.9555
 4574TIP3    H235358   4.979   1.977   6.445 -0.5583  0.1952  0.9458
 4575TIP3   OH235359   6.170   4.512   1.419  0.0839  0.5286  0.2724
 4575TIP3    H135360   6.147   4.452   1.489 -1.1552  0.1703 -0.4258
 4575TIP3    H235361   6.087   4.552   1.393  0.2485 -0.5023 -2.0404
 4576TIP3   OH235362   1.839   1.531   2.013  0.1320  0.1216 -0.6614
 4576TIP3    H135363   1.928   1.546   1.980  0.1114  0.8577 -0.3975
 4576TIP3    H235364   1.847   1.537   2.108  0.2325 -2.2184 -0.4478
 4577TIP3   OH235365   0.492   1.369   0.144  0.3291  0.1765 -0.0446
 4577TIP3    H135366   0.461   1.288   0.185 -0.8864 -0.0650 -1.3493
 4577TIP3    H235367   0.550   1.340   0.073 -0.6120  0.3846 -0.9279
 4578TIP3   OH235368   5.772   5.149   1.696 -0.2088 -0.5746  0.3437
 4578TIP3    H135369   5.840   5.193   1.645 -1.1639  0.5356 -0.0503
 4578TIP3    H235370   5.697   5.146   1.636 -0.2950 -2.4774  0.4898
 4579TIP3   OH235371   6.385   4.820   7.711 -0.2818 -0.1214 -0.6819
 4579TIP3    H135372   6.354   4.894   7.659 -0.2340 -0.0305 -0.5812
 4579TIP3    H235373   6.410   4.754   7.647  2.3110  0.9751 -0.8881
 4580TIP3   OH235374   6.477   4.035   8.145 -0.0731  0.2950 -0.2945
 4580TIP3    H135375   6.432   3.955   8.171  0.4753  0.1903  0.3648
 4580TIP3    H235376   6.496   4.080   8.227  0.4826  0.6262 -0.5952
 4581TIP3   OH235377   6.584   4.687   6.566 -0.0632 -0.1001  0.1726
 4581TIP3    H135378   6.611   4.626   6.634 -2.3636 -0.9894  0.3681
 4581TIP3    H235379   6.647   4.674   6.495  1.4083 -0.3125  1.4902
 4582TIP3   OH235380   3.597   1.896   8.983 -0.4990 -0.3908  0.6357
 4582TIP3    H135381   3.680   1.877   9.026 -0.3064 -1.0176  0.0114
 4582TIP3    H235382   3.566   1.976   9.025  1.9311  1.6879 -1.1700
 4583TIP3   OH235383   2.799   4.543   0.957  0.3056 -0.4795 -0.1299
 4583TIP3    H135384   2.788   4.637   0.964  0.9430 -0.3345 -1.0044
 4583TIP3    H235385   2.805   4.513   1.048 -0.1071  0.2844  0.1581
 4584TIP3   OH235386   5.528   1.966   0.899  0.6182  0.1170 -0.4666
 4584TIP3    H135387   5.475   1.963   0.819 -0.5173 -1.0180  0.2752
 4584TIP3    H235388   5.494   1.894   0.952  1.3831  0.8007  1.0128
 4585TIP3   OH235389   5.099   1.345   0.784  0.0116  0.3253 -1.1110
 4585TIP3    H135390   5.045   1.382   0.715 -0.1761  1.4884 -0.3641
 4585TIP3    H235391   5.179   1.318   0.739  0.2329  1.8148 -1.6841
 4586TIP3   OH235392   5.476   2.396   8.739 -0.6891 -0.2283 -0.3566
 4586TIP3    H135393   5.551   2.455   8.733 -0.5948 -0.4471 -1.3988
 4586TIP3    H235394   5.512   2.309   8.726 -0.8719 -0.5149  0.8967
 4587TIP3   OH235395   5.516   0.066   7.711  0.4984 -0.8942 -0.3138
 4587TIP3    H135396   5.534  -0.017   7.753  1.0805 -0.7122 -0.1945
 4587TIP3    H235397   5.508   0.129   7.783  0.3251 -0.7976 -0.4159
 4588TIP3   OH235398   6.502   3.260   1.411 -0.4456 -0.0012  0.1175
 4588TIP3    H135399   6.581   3.206   1.421 -0.2450 -0.2631 -2.2050
 4588TIP3    H235400   6.525   3.323   1.343 -1.6665  1.1021  0.6961
 4589TIP3   OH235401   4.558   0.758   1.521  0.6304  0.0280  0.0136
 4589TIP3    H135402   4.516   0.838   1.554  1.3727  0.5169 -0.1871
 4589TIP3    H235403   4.641   0.754   1.568  0.2859 -1.0312  0.5475
 4590TIP3   OH235404   3.570   2.307   1.895  0.1958  0.0124 -0.2972
 4590TIP3    H135405   3.572   2.213   1.912  0.1504  0.1338  0.4104
 4590TIP3    H235406   3.533   2.345   1.974  0.9992  0.7009 -0.2309
 4591TIP3   OH235407   3.275   5.316   1.389  0.3222  0.0928  0.4139
 4591TIP3    H135408   3.279   5.269   1.306  1.1181 -2.0424  1.5820
 4591TIP3    H235409   3.184   5.308   1.418 -0.0962  1.3314 -0.4648
 4592TIP3   OH235410   0.275   3.464   0.785 -0.2401 -1.1921 -0.0580
 4592TIP3    H135411   0.256   3.372   0.803 -2.4295 -0.7347  0.2659
 4592TIP3    H235412   0.245   3.477   0.694 -0.6134 -0.6553  0.1368
 4593TIP3   OH235413   0.594   3.082   7.338 -0.1022  0.2217 -0.0275
 4593TIP3    H135414   0.644   3.008   7.373 -0.2074  0.2459  0.1776
 4593TIP3    H235415   0.506   3.072   7.375 -1.3434 -1.8402 -3.1833
 4594TIP3   OH235416   2.954   6.710   7.669 -0.3122  0.4870  0.0186
 4594TIP3    H135417   3.039   6.740   7.702  0.6029  2.0022 -3.2796
 4594TIP3    H235418   2.952   6.616   7.688  1.2523  0.7713  1.8145
 4595TIP3   OH235419   3.223   4.230   7.632  0.5794 -0.3943  0.4420
 4595TIP3    H135420   3.290   4.297   7.620 -0.7003  0.4501 -3.3203
 4595TIP3    H235421   3.252   4.157   7.579 -0.5036 -0.7961  0.3825
 4596TIP3   OH235422   6.583   5.927   6.709 -0.1357 -0.2415  0.5375
 4596TIP3    H135423   6.622   5.839   6.709  0.6517  0.0932  0.8567
 4596TIP3    H235424   6.506   5.919   6.764  0.2907 -0.5903  1.0994
 4597TIP3   OH235425   4.100   2.218   7.137  0.3390  0.5225  0.1024
 4597TIP3    H135426   4.110   2.248   7.047  1.3540  0.5177  0.2034
 4597TIP3    H235427   4.047   2.285   7.179 -0.1701  0.5124 -0.4954
 4598TIP3   OH235428   3.374   6.450   2.094  0.1012  0.3349 -0.3423
 4598TIP3    H135429   3.406   6.409   2.174 -1.3393 -0.9314 -0.3720
 4598TIP3    H235430   3.450   6.496   2.058  1.8706 -2.4169 -0.3822
 4599TIP3   OH235431   5.213   5.059   1.378  0.4278 -0.0536 -0.4044
 4599TIP3    H135432   5.164   5.111   1.314 -1.1872  0.2200  0.9916
 4599TIP3    H235433   5.227   5.119   1.451 -0.5151 -1.2486  0.7947
 4600TIP3   OH235434   6.026   4.967   6.769  0.9695  0.3523  0.6843
 4600TIP3    H135435   5.988   4.993   6.685  1.8404  1.7564  0.6825
 4600TIP3    H235436   5.961   4.910   6.809  0.0706  0.5331 -0.4752
 4601TIP3   OH235437   0.085   1.824   8.276 -0.2303  0.5651  0.5868
 4601TIP3    H135438   0.119   1.741   8.309  0.8591  1.1303  0.9635
 4601TIP3    H235439   0.123   1.832   8.188 -1.2521  0.1449  0.0972
 4602TIP3   OH235440   6.481   2.113   7.624  0.5825 -0.4086  0.3273
 4602TIP3    H135441   6.427   2.191   7.634  1.2830  0.6399 -3.0400
 4602TIP3    H235442   6.426   2.052   7.574  0.6081 -1.5097  1.5871
 4603TIP3   OH235443   3.454   0.304   7.068  0.1135  0.1547 -0.2076
 4603TIP3    H135444   3.447   0.366   6.995 -0.1634 -0.4395 -0.6973
 4603TIP3    H235445   3.365   0.295   7.101 -0.0482 -0.7871 -0.8386
 4604TIP3   OH235446   2.996   4.758   8.631  0.2139  1.0583 -0.2089
 4604TIP3    H135447   3.072   4.732   8.579  0.2894 -1.3283  0.9333
 4604TIP3    H235448   3.034   4.803   8.707  0.4354  0.8661 -0.2004
 4605TIP3   OH235449   4.204   0.364   6.094  0.0094  0.0741 -0.3553
 4605TIP3    H135450   4.238   0.362   6.184 -1.1427 -0.7688  0.0945
 4605TIP3    H235451   4.116   0.401   6.103 -0.3570 -0.6012 -1.0480
 4606TIP3   OH235452   0.193   0.460   6.828  0.0941  0.4262 -0.1875
 4606TIP3    H135453   0.187   0.483   6.736  1.9884 -0.6812 -0.6461
 4606TIP3    H235454   0.165   0.368   6.832 -0.6442  0.6686  0.4629
 4607TIP3   OH235455   5.441   4.978   1.225 -0.6399 -0.1316 -0.1100
 4607TIP3    H135456   5.372   4.990   1.290 -0.4303  0.1511  0.0615
 4607TIP3    H235457   5.443   5.061   1.177 -0.4643 -0.1626 -0.1583
 4608TIP3   OH235458   1.331   4.847   0.950 -0.3234  0.0938  0.2102
 4608TIP3    H135459   1.351   4.889   0.867 -1.2448  0.0145 -0.0640
 4608TIP3    H235460   1.384   4.767   0.950 -0.6666 -0.1480 -0.5213
 4609TIP3   OH235461   4.760   4.531   7.745  0.2242  0.3531  0.2795
 4609TIP3    H135462   4.734   4.464   7.681  0.8666  1.4271 -1.1756
 4609TIP3    H235463   4.854   4.518   7.756  0.4685  1.3403 -0.4637
 4610TIP3   OH235464   1.953   1.462   0.536 -0.4640  0.0216  0.4847
 4610TIP3    H135465   1.909   1.482   0.453  0.0400 -0.0411  0.1968
 4610TIP3    H235466   1.961   1.547   0.580  1.5541  0.5115 -0.6735
 4611TIP3   OH235467   0.913   5.835   7.178  0.2697  0.4858  0.4248
 4611TIP3    H135468   0.969   5.862   7.104 -1.8949  1.8515 -0.8265
 4611TIP3    H235469   0.911   5.912   7.235 -0.9425  0.7707  0.0275
 4612TIP3   OH235470   4.665   1.014   8.322 -0.7326  0.4615  0.1372
 4612TIP3    H135471   4.647   1.103   8.351  0.4222  1.1467 -1.1064
 4612TIP3    H235472   4.586   0.986   8.277 -0.8078  1.1853 -0.1861
 4613TIP3   OH235473   5.130   4.905   8.823  0.5214 -0.1611 -0.0450
 4613TIP3    H135474   5.077   4.931   8.747  0.8665  0.1059 -0.1928
 4613TIP3    H235475   5.218   4.935   8.802  0.7340 -0.6113  0.2013
 4614TIP3   OH235476   4.286   1.444   0.991  0.4602  0.0971 -0.3689
 4614TIP3    H135477   4.369   1.404   1.015  0.6293  0.6782  0.0146
 4614TIP3    H235478   4.220   1.389   1.035  0.7364  0.7957  0.9606
 4615TIP3   OH235479   5.944   1.695   8.489  0.4454  0.4668 -0.1581
 4615TIP3    H135480   5.855   1.722   8.467 -0.4076 -1.4003  0.7598
 4615TIP3    H235481   6.000   1.757   8.442 -1.3111  1.1131 -1.5273
 4616TIP3   OH235482   5.809   3.099   2.451  0.9614  0.0453  0.0114
 4616TIP3    H135483   5.889   3.066   2.410  1.4376 -0.4306  1.2890
 4616TIP3    H235484   5.764   3.021   2.482  1.7214  0.4453  2.3689
 4617TIP3   OH235485   3.836   4.271   0.059 -0.5447  0.2331  0.2836
 4617TIP3    H135486   3.836   4.280  -0.036 -0.9741  1.8277  0.4035
 4617TIP3    H235487   3.790   4.189   0.076  1.1369 -1.0236 -0.9241
 4618TIP3   OH235488   1.673   2.005   1.109  0.2156 -0.3165  1.0221
 4618TIP3    H135489   1.631   2.085   1.141  0.6540  0.2753  0.1781
 4618TIP3    H235490   1.618   1.934   1.142 -0.2053  0.3369  1.7540
 4619TIP3   OH235491   4.857   2.897   7.960 -0.6184  0.0162  0.4325
 4619TIP3    H135492   4.806   2.967   7.920  0.3034  1.5169  1.7443
 4619TIP3    H235493   4.839   2.905   8.054  2.0808  0.7255  0.9696
 4620TIP3   OH235494   6.124   1.759   7.628 -0.5009 -0.1140 -0.5290
 4620TIP3    H135495   6.073   1.715   7.560 -0.4781 -1.7308  0.4548
 4620TIP3    H235496   6.178   1.690   7.666 -0.5083  0.7417  1.1337
 4621TIP3   OH235497   1.998   3.788   0.772 -0.0742  0.0176 -0.3315
 4621TIP3    H135498   2.051   3.787   0.692 -0.6080 -2.0658 -0.7194
 4621TIP3    H235499   1.974   3.880   0.783  1.4434  0.6254 -1.5803
 4622TIP3   OH235500   4.653   1.605   7.312 -0.2975 -0.2615  0.2316
 4622TIP3    H135501   4.582   1.665   7.293 -0.6447 -0.8337 -0.3313
 4622TIP3    H235502   4.732   1.653   7.289 -0.6706 -0.7788 -2.4272
 4623TIP3   OH235503   6.608   5.615   7.100 -0.3666 -0.5624 -0.4831
 4623TIP3    H135504   6.634   5.560   7.026  1.0722 -0.5485 -0.0196
 4623TIP3    H235505   6.604   5.704   7.064  0.4676 -0.5367 -0.5167
 4624TIP3   OH235506   1.022   2.144   0.695  0.2279 -0.3920 -0.5819
 4624TIP3    H135507   1.029   2.210   0.626 -2.0029  0.7558  0.1931
 4624TIP3    H235508   0.966   2.076   0.657 -0.4570 -0.0780 -0.1482
 4625TIP3   OH235509   4.441   5.811   6.911 -0.2506  0.3146 -0.5256
 4625TIP3    H135510   4.463   5.750   6.841  0.3678  0.1674 -0.2153
 4625TIP3    H235511   4.488   5.891   6.889  0.7530 -0.0471  0.2179
 4626TIP3   OH235512   3.253   3.767   7.465 -0.1245 -0.4092 -0.0543
 4626TIP3    H135513   3.223   3.677   7.475 -0.8242 -0.1603  0.0893
 4626TIP3    H235514   3.311   3.764   7.388 -1.8073 -0.5864 -1.3795
 4627TIP3   OH235515   0.082   4.382   6.661  0.4548  0.3957  0.2708
 4627TIP3    H135516   0.093   4.395   6.567 -0.4687 -1.3508 -0.1192
 4627TIP3    H235517   0.159   4.330   6.687 -0.2414 -0.7929  0.0577
 4628TIP3   OH235518   3.056   3.222   6.484  0.6530 -0.3434 -0.1248
 4628TIP3    H135519   3.070   3.209   6.578  0.9827  0.1148 -0.1081
 4628TIP3    H235520   3.124   3.284   6.458 -1.4174  2.1551 -0.0003
 4629TIP3   OH235521   6.136   1.221   2.247 -0.1000 -0.0804  0.1804
 4629TIP3    H135522   6.228   1.241   2.231  0.4286  0.1286  2.9968
 4629TIP3    H235523   6.098   1.303   2.277 -0.5661 -0.7263  1.4340
 4630TIP3   OH235524   5.384   0.365   8.628  0.4856  0.2430 -0.5335
 4630TIP3    H135525   5.467   0.364   8.580  0.4950 -0.6380 -0.5128
 4630TIP3    H235526   5.410   0.373   8.720  0.7969 -3.4490 -0.1514
 4631TIP3   OH235527   5.674   2.686   0.897  0.0531 -0.6854 -0.1163
 4631TIP3    H135528   5.637   2.622   0.837 -0.3793 -1.3579  0.8514
 4631TIP3    H235529   5.767   2.689   0.875 -0.4277  0.6237 -2.2069
 4632TIP3   OH235530   0.846   2.496   0.720  0.5778 -0.4761 -0.5181
 4632TIP3    H135531   0.897   2.418   0.703 -2.5287 -3.2609  1.6770
 4632TIP3    H235532   0.827   2.493   0.814 -0.9931  2.0308 -0.6444
 4633TIP3   OH235533   0.105   4.675   7.252  0.3378 -0.5790  0.4241
 4633TIP3    H135534   0.139   4.683   7.341  2.1252  2.5534 -0.3969
 4633TIP3    H235535   0.013   4.702   7.259  1.0877  2.1474  1.0469
 4634TIP3   OH235536   5.527   4.297   2.362  0.0091 -0.0859 -0.1884
 4634TIP3    H135537   5.496   4.365   2.422  0.5925 -0.0097  0.0293
 4634TIP3    H235538   5.608   4.331   2.327 -0.7755  0.2747 -1.7359
 4635TIP3   OH235539   0.426   0.756   0.882  1.0286  0.0136  0.4219
 4635TIP3    H135540   0.405   0.663   0.886 -1.8206  0.5435 -0.1999
 4635TIP3    H235541   0.453   0.771   0.791 -6.0215  0.9019 -2.1710
 4636TIP3   OH235542   2.884   1.945   0.488  0.4638 -0.0386 -0.0563
 4636TIP3    H135543   2.908   1.860   0.525  0.2095  0.3969  1.1910
 4636TIP3    H235544   2.946   2.007   0.527 -0.0823  0.5011 -0.0240
 4637TIP3   OH235545   5.142   0.325   7.603 -0.1717  0.1293 -0.2456
 4637TIP3    H135546   5.144   0.259   7.673 -1.5120  1.8952  1.5961
 4637TIP3    H235547   5.156   0.408   7.649 -0.7361  1.3378 -2.1606
 4638TIP3   OH235548   6.653   0.607   6.963  0.3165 -0.0537  0.4375
 4638TIP3    H135549   6.640   0.698   6.991  2.5257 -0.1532  2.0192
 4638TIP3    H235550   6.705   0.614   6.884  0.4099  0.0681  0.5081
 4639TIP3   OH235551   3.573   2.168   0.403  0.2766 -0.1313  0.1030
 4639TIP3    H135552   3.559   2.208   0.489  0.0525  0.0764 -0.0319
 4639TIP3    H235553   3.521   2.087   0.406  0.4253 -0.2242  0.2330
 4640TIP3   OH235554   2.252   3.086   1.203  0.1472  0.1176  0.0705
 4640TIP3    H135555   2.191   3.140   1.253  0.1549 -0.0459  0.2545
 4640TIP3    H235556   2.307   3.150   1.157  0.8317  0.2893  1.1061
 4641TIP3   OH235557   5.408   6.538   0.212 -0.3085 -0.6034 -0.2339
 4641TIP3    H135558   5.356   6.487   0.273 -2.9918 -1.1374 -2.7521
 4641TIP3    H235559   5.409   6.486   0.132  3.8990 -0.4237 -0.5462
 4642TIP3   OH235560   2.278   0.374   6.569 -0.3862 -0.0574  0.0015
 4642TIP3    H135561   2.324   0.416   6.496 -0.7805  0.0612 -0.1810
 4642TIP3    H235562   2.279   0.439   6.639 -0.5111  0.0494 -0.0943
 4643TIP3   OH235563   6.235   5.988   0.582  0.4103  0.5428  0.2297
 4643TIP3    H135564   6.234   5.913   0.641  1.8441 -1.3677 -2.0054
 4643TIP3    H235565   6.146   5.991   0.546  0.2379  0.1294  0.6118
 4644TIP3   OH235566   4.733   1.248   0.747  0.3712  0.1812 -0.3639
 4644TIP3    H135567   4.704   1.338   0.738 -2.9858 -0.7358  0.2295
 4644TIP3    H235568   4.716   1.225   0.838 -0.2563 -1.4908 -0.8693
 4645TIP3   OH235569   5.305   5.937   7.076  0.0128 -0.6296 -0.4114
 4645TIP3    H135570   5.393   5.935   7.040  0.3704  2.4117  0.0203
 4645TIP3    H235571   5.255   5.992   7.016 -0.8088  0.0181  0.8170
 4646TIP3   OH235572   4.151   2.701   8.807  0.2755 -0.2098  0.3072
 4646TIP3    H135573   4.138   2.652   8.888 -1.3686  0.3999  0.4341
 4646TIP3    H235574   4.183   2.636   8.744  2.2868 -0.5553  1.5812
 4647TIP3   OH235575   0.286   5.155   1.774  0.1865 -0.0395 -0.6384
 4647TIP3    H135576   0.332   5.218   1.720  0.6804  0.0500 -0.1285
 4647TIP3    H235577   0.207   5.200   1.803  1.0042  0.7045  0.5072
 4648TIP3   OH235578   0.907   1.461   8.699 -0.2373  0.5554 -0.4086
 4648TIP3    H135579   0.815   1.443   8.678  0.0223  0.5989 -1.6203
 4648TIP3    H235580   0.924   1.546   8.660  0.3520  0.4962 -0.2823
 4649TIP3   OH235581   5.673   0.611   1.408  0.2471 -0.0465  0.2299
 4649TIP3    H135582   5.668   0.594   1.314  0.9990 -0.9928  0.3360
 4649TIP3    H235583   5.608   0.679   1.424 -1.2876 -1.2412 -0.6556
 4650TIP3   OH235584   0.804   4.015   8.829  0.1285 -0.1108 -0.1021
 4650TIP3    H135585   0.809   4.098   8.782 -0.4436 -1.5294 -2.8666
 4650TIP3    H235586   0.885   4.012   8.881  0.1254  2.1676  0.1220
 4651TIP3   OH235587   1.871   5.928   7.731 -0.8299  0.7399  0.2935
 4651TIP3    H135588   1.805   5.983   7.689 -2.5177 -0.1146  1.6857
 4651TIP3    H235589   1.890   5.972   7.813  1.1534  1.4930 -0.4969
 4652TIP3   OH235590   5.643   4.713   1.389 -0.0981 -0.2994 -0.3750
 4652TIP3    H135591   5.639   4.662   1.470  0.4682 -0.3951 -0.3993
 4652TIP3    H235592   5.629   4.650   1.319  2.0214 -0.7254 -0.4897
 4653TIP3   OH235593   6.424   2.821   0.673  0.0385  0.0989 -0.1266
 4653TIP3    H135594   6.404   2.767   0.749  1.2683 -1.2542 -0.7018
 4653TIP3    H235595   6.376   2.902   0.687 -0.4977 -0.4830  1.6230
 4654TIP3   OH235596   4.245   1.373   2.287  0.5307 -0.0039  0.1005
 4654TIP3    H135597   4.214   1.301   2.233  0.5978  1.7021 -2.3316
 4654TIP3    H235598   4.170   1.431   2.297  1.6243  2.0199 -2.2439
 4655TIP3   OH235599   3.381   3.319   8.564  0.3504  0.5664 -0.5900
 4655TIP3    H135600   3.469   3.353   8.580  0.1413  0.9131 -0.1467
 4655TIP3    H235601   3.323   3.384   8.604 -0.0543 -0.3944  0.4574
 4656TIP3   OH235602   2.881   5.820   1.141 -0.1612  0.2137 -0.6241
 4656TIP3    H135603   2.823   5.858   1.208  1.0319  0.2022  0.4559
 4656TIP3    H235604   2.863   5.870   1.062  0.3462  2.0957  0.4035
 4657TIP3   OH235605   0.186   5.756   6.627  0.3850 -0.5617 -0.7937
 4657TIP3    H135606   0.220   5.704   6.700 -0.7496 -0.0183  0.1534
 4657TIP3    H235607   0.102   5.715   6.607 -0.6935  1.0725  0.1970
 4658TIP3   OH235608   1.764   3.176   8.691  0.0624  0.0884  0.6406
 4658TIP3    H135609   1.779   3.110   8.623 -1.3326  1.0568 -0.6918
 4658TIP3    H235610   1.670   3.170   8.709  0.0523  1.2205  1.0179
 4659TIP3   OH235611   5.509   5.377   8.129 -0.4403 -0.4864  0.5219
 4659TIP3    H135612   5.512   5.431   8.208  1.0251  2.8407 -1.5894
 4659TIP3    H235613   5.579   5.313   8.140 -0.0577  0.1256  1.7546
 4660TIP3   OH235614   2.736   2.429   1.303 -0.1949  0.0648  0.3948
 4660TIP3    H135615   2.788   2.349   1.310  0.4786  0.5997  1.8452
 4660TIP3    H235616   2.779   2.491   1.361 -1.2493  1.1944  0.0109
 4661TIP3   OH235617   5.635   5.409   6.899 -0.2291  0.5198  0.3435
 4661TIP3    H135618   5.673   5.495   6.918  1.2764  0.3231 -1.4003
 4661TIP3    H235619   5.570   5.427   6.831  0.5708  0.2424 -0.5213
 4662TIP3   OH235620   3.525   4.552   0.775 -0.1121  0.4014 -0.0181
 4662TIP3    H135621   3.582   4.504   0.834 -0.6039 -1.4755 -0.9903
 4662TIP3    H235622   3.510   4.636   0.819  3.1881  0.9166  0.3625
 4663TIP3   OH235623   5.398   2.385   7.816  0.2015  0.6174  0.0043
 4663TIP3    H135624   5.348   2.334   7.753 -0.1784 -1.1697  1.6501
 4663TIP3    H235625   5.335   2.408   7.885  0.9001  1.2882  0.4483
 4664TIP3   OH235626   2.028   5.377   0.088 -0.1632  0.0708 -0.0084
 4664TIP3    H135627   2.020   5.284   0.109 -0.4526 -0.2131 -1.2427
 4664TIP3    H235628   2.117   5.400   0.112  0.0665 -0.6584 -0.1230
 4665TIP3   OH235629   4.919   2.108   1.353  0.1498 -0.2617  0.0538
 4665TIP3    H135630   5.002   2.147   1.380  0.4755  0.9718 -2.4467
 4665TIP3    H235631   4.942   2.017   1.330  0.7996  0.0084 -0.4106
 4666TIP3   OH235632   1.282   1.755   8.789 -0.1456 -0.4222 -0.4736
 4666TIP3    H135633   1.227   1.833   8.776  2.7091  1.5282 -1.8958
 4666TIP3    H235634   1.328   1.745   8.706  2.2444 -1.4190  0.8905
 4667TIP3   OH235635   1.070   5.629   8.314 -0.2197 -0.0514 -0.2573
 4667TIP3    H135636   1.017   5.562   8.356 -0.5952 -0.3225 -1.1467
 4667TIP3    H235637   1.153   5.628   8.363 -0.9308  0.2280  1.0026
 4668TIP3   OH235638   5.523   2.639   0.340  0.0272  0.1999  0.2453
 4668TIP3    H135639   5.491   2.713   0.391 -0.8333  0.1791 -0.2555
 4668TIP3    H235640   5.477   2.563   0.376 -1.7703  0.3715 -1.5178
 4669TIP3   OH235641   1.674   5.035   6.715  0.4223  0.3907  0.0559
 4669TIP3    H135642   1.724   5.000   6.641  1.0586 -0.1790  0.7344
 4669TIP3    H235643   1.614   5.098   6.676  2.1391  1.6353 -0.7222
 4670TIP3   OH235644   1.701   3.675   0.262 -0.2164  0.1467 -0.4107
 4670TIP3    H135645   1.658   3.747   0.308 -0.1676  0.1635 -0.3907
 4670TIP3    H235646   1.676   3.686   0.171  0.5954  0.7797 -0.5705
 4671TIP3   OH235647   6.304   2.171   1.225 -0.6814  0.2655  0.2762
 4671TIP3    H135648   6.251   2.215   1.158 -1.7249 -0.8692  0.3078
 4671TIP3    H235649   6.302   2.230   1.300 -1.3436  0.5721  0.0275
 4672TIP3   OH235650   1.597   0.863   8.875 -0.1990  0.8289  0.0064
 4672TIP3    H135651   1.683   0.877   8.914  1.1752 -2.0879 -1.5964
 4672TIP3    H235652   1.541   0.838   8.948  0.5572  1.7990  0.9426
 4673TIP3   OH235653   5.066   1.544   7.244 -0.4847 -0.2103 -0.2242
 4673TIP3    H135654   4.994   1.489   7.214 -0.0694 -2.1676  2.0522
 4673TIP3    H235655   5.144   1.491   7.229  0.2799  1.0265 -0.7498
 4674TIP3   OH235656   3.493   5.164   0.992  0.1863  0.4475 -0.1838
 4674TIP3    H135657   3.444   5.084   1.009 -1.0596  1.0573 -0.7788
 4674TIP3    H235658   3.495   5.171   0.896  0.2876  1.1322 -0.1358
 4675TIP3   OH235659   3.520   2.661   0.639  0.0704  0.3386 -0.0365
 4675TIP3    H135660   3.503   2.636   0.729  0.5380  1.8090  0.4907
 4675TIP3    H235661   3.615   2.673   0.635 -0.0381  1.1649 -0.4615
 4676TIP3   OH235662   5.173   2.642   0.739  0.0397  0.0869 -0.1748
 4676TIP3    H135663   5.150   2.726   0.699  1.1596  0.1677 -0.6952
 4676TIP3    H235664   5.169   2.658   0.834 -1.6117  0.1835 -0.2438
 4677TIP3   OH235665   3.446   5.282   6.963  0.0830 -0.0642 -0.8193
 4677TIP3    H135666   3.352   5.304   6.963  0.2845  0.9275 -2.1024
 4677TIP3    H235667   3.472   5.290   7.054 -0.6484  1.7716 -0.7134
 4678TIP3   OH235668   0.788   2.955   6.626 -0.4679  0.1737 -0.3273
 4678TIP3    H135669   0.714   2.998   6.670 -0.7813 -0.0358 -0.6494
 4678TIP3    H235670   0.794   2.869   6.668 -0.6501  0.0451 -0.5586
 4679TIP3   OH235671   5.964   6.511   1.326 -0.5047  0.7099 -0.0967
 4679TIP3    H135672   6.057   6.497   1.340 -0.7675  0.6925  2.0429
 4679TIP3    H235673   5.959   6.568   1.249  1.0792 -1.8181 -2.2293
 4680TIP3   OH235674   1.449   3.524   2.470  0.7369 -0.5397  0.3945
 4680TIP3    H135675   1.510   3.468   2.422  0.7842  1.5282 -2.1433
 4680TIP3    H235676   1.505   3.585   2.519  0.9180  1.7981 -2.4581
 4681TIP3   OH235677   6.741   4.453   7.038  0.2281  0.0077  0.5258
 4681TIP3    H135678   6.662   4.402   7.055  1.0885 -0.9098  1.9668
 4681TIP3    H235679   6.738   4.472   6.944 -0.5775 -1.9485  0.1070
 4682TIP3   OH235680   5.457   2.405   7.242 -0.5072  0.3205  0.2718
 4682TIP3    H135681   5.545   2.369   7.245 -0.7296 -0.1923  0.8238
 4682TIP3    H235682   5.433   2.404   7.150 -0.0585  0.1648  0.1583
 4683TIP3   OH235683   2.348   4.702   2.302 -0.0583  0.6477  0.3762
 4683TIP3    H135684   2.276   4.679   2.361  0.9827 -0.2258  1.3506
 4683TIP3    H235685   2.315   4.679   2.214 -0.0877 -2.1913  1.0264
 4684TIP3   OH235686   1.211   2.288   6.851  0.4401  0.0467  0.7794
 4684TIP3    H135687   1.227   2.372   6.808  0.9758 -0.8172 -0.7795
 4684TIP3    H235688   1.208   2.224   6.780  0.6430 -1.3548  1.9729
 4685TIP3   OH235689   6.548   4.936   8.640  0.3826  0.4170 -0.9210
 4685TIP3    H135690   6.575   4.922   8.730 -0.5196 -1.0905 -0.8609
 4685TIP3    H235691   6.472   4.880   8.628 -1.0300  2.4190 -1.9258
 4686TIP3   OH235692   5.157   6.238   8.567  0.0674  0.0553 -0.1097
 4686TIP3    H135693   5.095   6.248   8.640  1.0448  1.1931  0.6073
 4686TIP3    H235694   5.242   6.260   8.605  0.7433 -0.2765 -1.3765
 4687TIP3   OH235695   6.007   5.782   0.399 -0.5159  0.5487 -0.4676
 4687TIP3    H135696   5.934   5.812   0.454 -0.7147 -1.1672  0.2560
 4687TIP3    H235697   5.968   5.772   0.312 -0.6373  1.5365 -0.5429
 4688TIP3   OH235698   4.546   3.421   0.716  0.6031  0.3523 -0.2430
 4688TIP3    H135699   4.619   3.360   0.709 -0.7017 -1.7684  2.6874
 4688TIP3    H235700   4.569   3.478   0.790  0.8303  2.1068 -1.5895
 4689TIP3   OH235701   2.745   1.554   0.422 -0.3573 -0.3439  0.3303
 4689TIP3    H135702   2.770   1.467   0.451 -0.5723 -0.9289 -1.1704
 4689TIP3    H235703   2.824   1.590   0.382  0.4811  1.1648  3.0702
 4690TIP3   OH235704   4.193   4.862   7.589  0.8568 -0.6608 -0.0176
 4690TIP3    H135705   4.231   4.908   7.514 -0.0338  0.3840  0.1529
 4690TIP3    H235706   4.121   4.918   7.618  0.8312 -1.3206  1.2759
 4691TIP3   OH235707   5.317   1.107   1.048 -0.1439  0.4388 -0.5972
 4691TIP3    H135708   5.282   1.018   1.050 -1.8497  1.0577 -1.4198
 4691TIP3    H235709   5.244   1.163   1.074  0.6898  1.6724 -0.7995
 4692TIP3   OH235710   4.213   6.001   6.669 -0.1482 -0.0878  0.3149
 4692TIP3    H135711   4.184   5.985   6.759  0.2466  2.0514  0.8885
 4692TIP3    H235712   4.308   5.995   6.674 -0.1342 -0.0917  0.0145
 4693TIP3   OH235713   4.053   6.535   0.359 -0.8375  0.3870  0.6961
 4693TIP3    H135714   4.141   6.496   0.354 -1.5916 -1.2722 -0.5399
 4693TIP3    H235715   4.068   6.621   0.399  1.4525  0.4873 -0.1916
 4694TIP3   OH235716   5.215   1.563   0.529  0.1166 -0.1262 -0.8754
 4694TIP3    H135717   5.159   1.580   0.453 -1.8056 -0.4125  0.3984
 4694TIP3    H235718   5.159   1.580   0.604  1.8742 -0.1416  0.4988
 4695TIP3   OH235719   0.338   0.418   0.976 -0.0491  0.6883 -0.3241
 4695TIP3    H135720   0.388   0.340   0.951  1.8189  2.3221 -2.0264
 4695TIP3    H235721   0.367   0.437   1.065 -1.0926 -0.9310  0.4086
 4696TIP3   OH235722   5.607   4.503   0.385  0.0662  0.1250  0.2451
 4696TIP3    H135723   5.523   4.459   0.399 -0.5348  1.3339  0.5334
 4696TIP3    H235724   5.664   4.471   0.455 -0.3570 -0.2003  0.4420
 4697TIP3   OH235725   2.082   4.434   0.984  0.1926 -0.2860 -0.3637
 4697TIP3    H135726   2.003   4.469   0.943 -0.2706 -1.7122 -0.7587
 4697TIP3    H235727   2.154   4.480   0.940 -0.3795 -0.0466 -1.0781
 4698TIP3   OH235728   0.371   6.563   1.682 -0.4069  0.5518  0.0598
 4698TIP3    H135729   0.340   6.645   1.642 -2.5684 -0.2363 -0.0170
 4698TIP3    H235730   0.354   6.574   1.775 -2.3706 -0.4255 -0.1368
 4699TIP3   OH235731   2.178   0.890   0.413 -0.1398  0.2545  0.4492
 4699TIP3    H135732   2.224   0.907   0.495 -0.7519  1.5364  0.5593
 4699TIP3    H235733   2.166   0.795   0.411 -1.6032  0.3113  2.7039
 4700TIP3   OH235734   4.533   3.340   8.230  0.2335  1.0974  0.3459
 4700TIP3    H135735   4.544   3.293   8.147 -0.6236 -2.1365  1.8825
 4700TIP3    H235736   4.438   3.347   8.241  0.3065  0.6269  1.4410
 4701TIP3   OH235737   5.934   2.704   0.841  0.0241 -0.0906 -0.5477
 4701TIP3    H135738   5.980   2.676   0.920  1.5749 -0.6911 -1.6096
 4701TIP3    H235739   5.967   2.646   0.773 -1.6014  0.1395 -1.5663
 4702TIP3   OH235740   3.755   3.489   1.391  0.0612  0.3140  0.0392
 4702TIP3    H135741   3.731   3.536   1.470 -1.4407  3.9877 -2.3113
 4702TIP3    H235742   3.692   3.417   1.385  0.8077 -0.6438  2.5215
 4703TIP3   OH235743   0.180   6.668   8.264  0.5482 -1.1726 -0.2401
 4703TIP3    H135744   0.200   6.657   8.357 -0.5666  0.2079  0.2035
 4703TIP3    H235745   0.134   6.588   8.240 -0.3125 -1.0005  0.7580
 4704TIP3   OH235746   1.370   2.577   1.678 -0.2224 -0.1019 -0.0851
 4704TIP3    H135747   1.418   2.496   1.659 -0.5026 -0.5440  1.0368
 4704TIP3    H235748   1.438   2.644   1.686  0.1180 -0.4854  0.2780
 4705TIP3   OH235749   5.862   4.063   0.201  0.0632  0.0098 -0.2183
 4705TIP3    H135750   5.793   4.027   0.146  0.2124  0.9364 -1.0417
 4705TIP3    H235751   5.832   4.049   0.291 -0.3500 -1.2021 -0.5268
 4706TIP3   OH235752   6.693   5.601   8.676  0.5191 -0.2854  0.0814
 4706TIP3    H135753   6.623   5.551   8.717 -0.1096  1.1499  0.8572
 4706TIP3    H235754   6.677   5.591   8.582  0.3518 -1.4254  0.2232
 4707TIP3   OH235755   4.765   2.180   1.589  0.0130 -0.0439  0.1877
 4707TIP3    H135756   4.798   2.091   1.599 -0.2118 -0.2328 -0.6226
 4707TIP3    H235757   4.753   2.190   1.494 -0.8738  0.5186  0.3489
 4708TIP3   OH235758   6.383   4.825   7.127  0.6021 -0.2146  0.1348
 4708TIP3    H135759   6.323   4.750   7.126 -0.1260  0.3393  0.6849
 4708TIP3    H235760   6.337   4.893   7.079  1.0762  0.0234  0.0134
 4709TIP3   OH235761   1.868   6.772   0.227  1.1652  0.0131 -0.7074
 4709TIP3    H135762   1.843   6.702   0.287  1.9406 -0.7696 -1.2950
 4709TIP3    H235763   1.826   6.749   0.144  1.1458  0.4308 -0.8160
 4710TIP3   OH235764   1.809   5.066   1.633 -0.6554 -0.0445 -0.0111
 4710TIP3    H135765   1.791   5.047   1.725  1.3914 -0.9966  0.2471
 4710TIP3    H235766   1.759   5.145   1.615 -1.5758 -0.1769  1.7495
 4711TIP3   OH235767   6.099   3.630   0.309  0.3963 -0.1929 -0.3719
 4711TIP3    H135768   6.171   3.630   0.246  0.9371 -2.9239  0.1111
 4711TIP3    H235769   6.137   3.594   0.389 -0.8692  0.9059  0.7826
 4712TIP3   OH235770   1.416   3.802   1.860  0.1155 -0.2249 -0.1699
 4712TIP3    H135771   1.356   3.866   1.897  0.5223  0.9255 -1.4178
 4712TIP3    H235772   1.360   3.739   1.815 -0.2824 -0.7322  1.0037
 4713TIP3   OH235773   2.766   2.269   0.669  0.0357 -0.0337  0.4691
 4713TIP3    H135774   2.677   2.302   0.675  0.6457  1.6985  0.5053
 4713TIP3    H235775   2.763   2.183   0.712 -2.0259 -0.9675 -1.3694
 4714TIP3   OH235776   2.912   3.386   0.256  0.2716  0.0628  0.3326
 4714TIP3    H135777   2.906   3.445   0.182  0.8979  0.7616  0.8252
 4714TIP3    H235778   2.933   3.442   0.331  0.7377 -0.7474  0.8358
 4715TIP3   OH235779   6.200   6.200   1.441 -0.0214  0.6460 -1.0415
 4715TIP3    H135780   6.255   6.272   1.472 -1.4590  1.4455 -0.2993
 4715TIP3    H235781   6.115   6.215   1.481 -0.7981 -0.5866 -2.1517
 4716TIP3   OH235782   3.294   3.782   0.620  0.6321  0.6290  0.3665
 4716TIP3    H135783   3.200   3.789   0.633  0.5064  0.6256 -0.4879
 4716TIP3    H235784   3.324   3.723   0.689 -0.1334 -0.1151  0.0731
 4717TIP3   OH235785   0.995   4.755   8.235 -0.4484 -0.3895  0.1092
 4717TIP3    H135786   1.066   4.720   8.290  1.0978 -0.3202 -1.7170
 4717TIP3    H235787   0.916   4.711   8.266  0.4239 -0.6777  2.0533
 4718TIP3   OH235788   4.242   1.988   7.205 -0.0632  0.3980 -0.4732
 4718TIP3    H135789   4.183   2.058   7.178  0.3051  0.8391 -0.1480
 4718TIP3    H235790   4.314   1.992   7.142 -0.1675  0.1427 -0.6095
 4719TIP3   OH235791   5.964   4.076   1.430 -0.6723  0.6816  0.5467
 4719TIP3    H135792   6.059   4.077   1.443 -0.8111  0.7339  1.6033
 4719TIP3    H235793   5.949   4.003   1.370  0.3877  2.8943 -2.7083
 4720TIP3   OH235794   3.097   1.471   7.327  0.4492  0.0441  0.2962
 4720TIP3    H135795   3.131   1.542   7.273  0.6627  0.6116  1.1546
 4720TIP3    H235796   3.038   1.514   7.389  1.0961 -0.4275  1.2561
 4721TIP3   OH235797   4.245   2.593   8.358  0.0529 -0.0589  0.0005
 4721TIP3    H135798   4.340   2.601   8.349  0.2457 -1.6775  0.2701
 4721TIP3    H235799   4.215   2.562   8.272 -0.1098 -0.4403  0.1924
 4722TIP3   OH235800   6.245   2.934   8.262 -0.1320 -0.1101 -0.0402
 4722TIP3    H135801   6.163   2.952   8.310  1.4989 -1.9142  3.9157
 4722TIP3    H235802   6.286   3.019   8.252 -1.7280  0.6292 -0.5898
 4723TIP3   OH235803   2.854   2.667   1.372  0.0075 -0.2336  0.2034
 4723TIP3    H135804   2.921   2.735   1.365 -0.2665 -0.0407 -0.6097
 4723TIP3    H235805   2.775   2.714   1.399 -0.4582 -0.0254 -1.3868
 4724TIP3   OH235806   4.416   1.276   8.842  0.3390 -0.3606  0.2509
 4724TIP3    H135807   4.376   1.337   8.780 -1.3102 -2.4711 -0.9152
 4724TIP3    H235808   4.402   1.315   8.928 -1.7400  0.3643 -0.3570
 4725TIP3   OH235809   5.738   3.180   8.785 -0.1542  0.2955  0.6068
 4725TIP3    H135810   5.669   3.140   8.837 -1.0544  1.4795  0.3795
 4725TIP3    H235811   5.697   3.258   8.747  0.3923 -0.5551 -1.9829
 4726TIP3   OH235812   4.582   0.420   1.343 -0.3379  0.5616 -0.0656
 4726TIP3    H135813   4.531   0.467   1.409 -0.0960 -1.5011  1.7313
 4726TIP3    H235814   4.672   0.449   1.357 -0.2262 -0.1710  0.8594
 4727TIP3   OH235815   2.525   1.326   8.098  0.5921  0.4361  0.0523
 4727TIP3    H135816   2.482   1.384   8.035 -1.3290 -0.3024  0.5944
 4727TIP3    H235817   2.452   1.283   8.144  1.9255  0.5192  2.3777
 4728TIP3   OH235818   3.202   5.445   6.981 -0.2925 -0.0599 -0.1321
 4728TIP3    H135819   3.191   5.540   6.982  0.4498  0.0414 -0.5753
 4728TIP3    H235820   3.133   5.414   6.923 -1.3188  0.0841  0.9848
 4729TIP3   OH235821   0.748   1.419   0.522  0.6540 -0.6762 -0.0248
 4729TIP3    H135822   0.708   1.462   0.599  0.8892 -0.9447  0.2489
 4729TIP3    H235823   0.781   1.492   0.469  0.7259 -0.4984  0.2601
 4730TIP3   OH235824   4.327   2.774   1.762 -0.3585 -0.4950  0.2306
 4730TIP3    H135825   4.383   2.794   1.687 -1.9017 -0.6238 -0.9970
 4730TIP3    H235826   4.339   2.848   1.822  1.0983 -0.5247  0.0110
 4731TIP3   OH235827   4.625   4.728   8.188  0.6532  0.1824  0.2034
 4731TIP3    H135828   4.679   4.799   8.154  2.9012 -1.4904  0.0178
 4731TIP3    H235829   4.538   4.766   8.197  1.2518  2.3281 -1.9402
 4732TIP3   OH235830   2.516   0.550   0.913 -0.4794  0.4039 -1.1092
 4732TIP3    H135831   2.487   0.460   0.928  1.5472 -0.1810 -0.2467
 4732TIP3    H235832   2.539   0.583   1.000  1.2728  0.7921 -1.6687
 4733TIP3   OH235833   1.605   4.615   1.090  0.1436 -0.4267 -0.3978
 4733TIP3    H135834   1.690   4.571   1.083  0.8359  1.1088 -3.0152
 4733TIP3    H235835   1.567   4.608   1.003 -0.7225  2.0772 -0.3014
 4734TIP3   OH235836   1.389   2.124   7.659 -0.2856  0.1261 -0.5531
 4734TIP3    H135837   1.380   2.060   7.588  0.2620  0.1909 -0.6872
 4734TIP3    H235838   1.469   2.097   7.705 -1.2179 -0.5628  0.7122
 4735TIP3   OH235839   1.955   3.503   0.250  0.0604 -0.3975  0.2885
 4735TIP3    H135840   1.928   3.559   0.178  0.1409 -1.8451 -0.9263
 4735TIP3    H235841   1.893   3.523   0.320  0.7227  1.9075  0.2969
 4736TIP3   OH235842   2.762   1.046   0.416 -0.1654 -0.3925  0.0858
 4736TIP3    H135843   2.693   1.112   0.412 -0.3056 -0.5313  0.2025
 4736TIP3    H235844   2.761   1.015   0.507  1.6051  1.2516  0.7465
 4737TIP3   OH235845   4.791   4.286   8.494 -0.1799  0.0292 -0.4517
 4737TIP3    H135846   4.740   4.266   8.572 -1.8317  0.0273 -1.4897
 4737TIP3    H235847   4.729   4.281   8.422  1.4550 -0.7057 -1.8881
 4738TIP3   OH235848   3.113   4.382   8.965 -0.1227 -0.0586 -0.0969
 4738TIP3    H135849   3.077   4.303   8.924  2.2182 -0.7258 -1.0218
 4738TIP3    H235850   3.063   4.392   9.046 -0.4617 -2.5197  0.0625
 4739TIP3   OH235851   2.703   0.930   6.505  0.1365  0.1120 -0.5678
 4739TIP3    H135852   2.735   0.887   6.425  1.0624 -0.8162  0.2709
 4739TIP3    H235853   2.738   1.019   6.501  0.0095  0.1359 -1.2825
 4740TIP3   OH235854   4.821   3.153   0.214 -0.0266  0.3124  0.2035
 4740TIP3    H135855   4.886   3.200   0.162 -1.1487 -0.3020 -1.8464
 4740TIP3    H235856   4.872   3.106   0.280  1.3541  1.9006  0.3467
 4741TIP3   OH235857   3.200   1.889   8.009  0.2032 -0.0467 -0.2677
 4741TIP3    H135858   3.151   1.896   7.927  0.0934  0.4768 -0.1585
 4741TIP3    H235859   3.291   1.903   7.984  0.0936  0.8257 -0.1998
 4742TIP3   OH235860   0.163   6.106   7.432  0.0838 -0.5072  0.2880
 4742TIP3    H135861   0.203   6.046   7.495 -1.3051 -2.5056 -0.6301
 4742TIP3    H235862   0.200   6.191   7.454  1.7157 -1.5746  2.0290
 4743TIP3   OH235863   6.167   5.882   8.626  0.6076 -0.2013 -0.5509
 4743TIP3    H135864   6.183   5.914   8.714 -0.0600 -0.2881 -0.3936
 4743TIP3    H235865   6.253   5.886   8.583  0.6880  1.1113 -0.3191
 4744TIP3   OH235866   5.764   5.821   7.593 -1.1993 -0.1673 -0.8033
 4744TIP3    H135867   5.669   5.826   7.610 -1.1186 -2.0457  0.5189
 4744TIP3    H235868   5.802   5.804   7.679  0.2539 -0.5456 -1.4966
 4745TIP3   OH235869   6.219   3.406   8.869 -0.5829 -0.4793  0.4193
 4745TIP3    H135870   6.133   3.369   8.891 -1.1069 -0.3176 -1.2299
 4745TIP3    H235871   6.201   3.469   8.799  0.7071  0.6094  1.0164
 4746TIP3   OH235872   3.617   0.015   7.754 -0.2134  0.0373  0.5222
 4746TIP3    H135873   3.564  -0.037   7.694  0.5269 -0.9448  0.6955
 4746TIP3    H235874   3.684  -0.045   7.785  0.8260  1.1587  0.5362
 4747TIP3   OH235875   0.793   2.927   8.874 -0.8613  0.1655 -0.6753
 4747TIP3    H135876   0.821   2.854   8.820  2.9860 -0.4566  1.7691
 4747TIP3    H235877   0.774   2.888   8.959 -1.4215  1.7208 -0.0552
 4748TIP3   OH235878   3.761   6.044   8.100  0.5222 -0.4589  0.1212
 4748TIP3    H135879   3.837   5.991   8.123  0.4336  0.0425  1.6550
 4748TIP3    H235880   3.686   5.994   8.132  0.3207 -0.1913  0.0737
 4749TIP3   OH235881   1.199   2.393   6.487  0.4127  0.0130  0.1801
 4749TIP3    H135882   1.181   2.301   6.501  0.1922 -0.1263 -0.9261
 4749TIP3    H235883   1.119   2.438   6.514  0.7148 -0.0556  1.2398
 4750TIP3   OH235884   0.349   6.437   0.031 -0.3856  0.5252  0.4392
 4750TIP3    H135885   0.406   6.369  -0.004 -0.6741 -0.4496  1.8007
 4750TIP3    H235886   0.357   6.509  -0.032  1.1459 -0.1603 -0.2099
 4751TIP3   OH235887   4.488   0.448   1.080  0.3652  0.3061 -0.1987
 4751TIP3    H135888   4.514   0.462   1.171  0.8020  2.0073 -0.5525
 4751TIP3    H235889   4.518   0.526   1.034 -1.6468  0.4251 -1.4333
 4752TIP3   OH235890   6.085   1.913   7.930  0.0085 -0.0004 -0.1555
 4752TIP3    H135891   6.013   1.911   7.866 -0.5576 -0.3527  0.4836
 4752TIP3    H235892   6.066   1.989   7.984  1.2308  1.1190 -1.2253
 4753TIP3   OH235893   3.650   0.953   1.185  0.5080  0.6743  0.1685
 4753TIP3    H135894   3.563   0.929   1.153  1.0629  1.3612 -2.0254
 4753TIP3    H235895   3.692   0.869   1.206 -0.6991  0.3494  1.3865
 4754TIP3   OH235896   5.819   3.187   7.555  0.0418 -0.4240 -0.8091
 4754TIP3    H135897   5.880   3.225   7.491  0.7847 -2.0151 -1.1050
 4754TIP3    H235898   5.764   3.128   7.503  0.7003 -1.7945 -0.0237
 4755TIP3   OH235899   1.280   1.143   0.060  0.0076  0.0674  0.2175
 4755TIP3    H135900   1.336   1.129  -0.017  0.2576  0.6579  0.2817
 4755TIP3    H235901   1.216   1.208   0.031 -1.0530 -1.0653 -0.0501
 4756TIP3   OH235902   4.121   0.018   6.938 -0.6106 -0.6021 -0.4539
 4756TIP3    H135903   4.070   0.077   6.882 -0.4151  0.2173  0.1956
 4756TIP3    H235904   4.059  -0.049   6.966 -0.8720 -0.6418 -1.1094
 4757TIP3   OH235905   0.643   5.765   0.324 -0.1113 -0.4380 -0.7807
 4757TIP3    H135906   0.690   5.709   0.262  0.8842  0.3873 -0.8115
 4757TIP3    H235907   0.706   5.834   0.345 -0.4242 -0.6894  1.1440
 4758TIP3   OH235908   5.433   4.723   7.959  0.0952 -0.6528  0.4063
 4758TIP3    H135909   5.504   4.727   8.023  0.6558 -0.6277 -0.2115
 4758TIP3    H235910   5.433   4.633   7.927  1.3882 -0.1123 -1.2889
 4759TIP3   OH235911   0.936   1.924   8.431 -0.2010  0.3803  0.4181
 4759TIP3    H135912   0.967   2.009   8.463 -0.6412  0.4990  0.5404
 4759TIP3    H235913   0.843   1.923   8.452  0.2634 -1.2431  2.8687
 4760TIP3   OH235914   0.490   4.422   1.912  0.1677 -0.3905  0.5425
 4760TIP3    H135915   0.406   4.379   1.895  0.1467 -0.1794  0.1050
 4760TIP3    H235916   0.513   4.465   1.830 -0.4476  1.5389  1.3203
 4761TIP3   OH235917   6.473   4.976   8.126 -0.2275  0.0360  0.4631
 4761TIP3    H135918   6.386   4.964   8.163 -1.7295  1.9886 -2.1699
 4761TIP3    H235919   6.511   5.047   8.177 -0.6610  0.0122  0.8259
 4762TIP3   OH235920   4.524   1.456   0.493 -0.1610  0.2497 -0.4244
 4762TIP3    H135921   4.577   1.445   0.415 -2.0278  1.9064 -2.0388
 4762TIP3    H235922   4.476   1.374   0.501 -0.9848  0.5459 -1.9116
 4763TIP3   OH235923   4.007   1.742   0.667 -0.0371 -0.0867 -0.0363
 4763TIP3    H135924   3.960   1.770   0.746  1.4694 -1.6222  1.4925
 4763TIP3    H235925   3.989   1.649   0.660 -0.1287  0.0125 -1.5551
 4764TIP3   OH235926   2.552   5.176   2.390 -0.2008  0.4362 -0.4361
 4764TIP3    H135927   2.500   5.171   2.470 -1.2635  2.5813 -0.9098
 4764TIP3    H235928   2.530   5.096   2.343 -0.1015 -0.5281  1.0810
 4765TIP3   OH235929   5.254   5.347   8.019 -0.1194 -0.5761 -0.7378
 4765TIP3    H135930   5.222   5.257   8.013 -1.2620 -0.3851  1.6185
 4765TIP3    H235931   5.335   5.341   8.069 -0.7298 -0.2189  0.3213
 4766TIP3   OH235932   1.121   2.862   7.896  0.0826 -0.0117 -0.1705
 4766TIP3    H135933   1.084   2.775   7.881  1.4067 -0.7912  0.8887
 4766TIP3    H235934   1.117   2.905   7.810 -1.0559 -0.9026 -0.5972
 4767TIP3   OH235935   0.906   4.797   1.460  0.2997 -0.3720  0.1701
 4767TIP3    H135936   1.000   4.802   1.444  0.0744 -0.1429 -1.2119
 4767TIP3    H235937   0.898   4.742   1.538  1.6947  1.8629  2.0157
 4768TIP3   OH235938   3.500   0.125   8.374 -0.3526  0.1841 -0.0174
 4768TIP3    H135939   3.577   0.100   8.425 -0.2089 -1.4394 -0.9542
 4768TIP3    H235940   3.429   0.130   8.439  0.1987  0.0153  0.6037
 4769TIP3   OH235941   5.282   5.706   0.090 -0.3037  0.2460  0.8961
 4769TIP3    H135942   5.267   5.618   0.054  0.3418  0.7635 -0.7551
 4769TIP3    H235943   5.221   5.762   0.042 -0.3867  0.7756  1.6047
 4770TIP3   OH235944   6.104   2.945   6.801  0.2964 -0.0776 -0.0372
 4770TIP3    H135945   6.009   2.944   6.786  0.2755  2.7113 -0.6362
 4770TIP3    H235946   6.134   2.862   6.764 -1.6296  0.0461 -2.1504
 4771TIP3   OH235947   3.759   3.527   2.035  0.4175  0.8577 -0.3407
 4771TIP3    H135948   3.713   3.588   2.094  1.0276  1.5921 -0.6081
 4771TIP3    H235949   3.790   3.458   2.093  0.2364  1.1113  0.0702
 4772TIP3   OH235950   4.887   6.434   7.533 -0.0229 -0.0924 -0.3655
 4772TIP3    H135951   4.799   6.466   7.515 -0.7658 -2.2179 -0.8325
 4772TIP3    H235952   4.942   6.475   7.467 -0.4377  2.0139  0.5189
 4773TIP3   OH235953   6.634   1.864   8.189 -0.5699  0.3588  0.2135
 4773TIP3    H135954   6.725   1.855   8.215 -0.5488  0.5460  0.2042
 4773TIP3    H235955   6.619   1.958   8.184 -0.0456  0.4005 -2.2361
 4774TIP3   OH235956   1.449   3.297   2.141 -0.0114 -0.3037  0.3688
 4774TIP3    H135957   1.487   3.313   2.055 -0.5394 -1.3387 -0.0641
 4774TIP3    H235958   1.503   3.349   2.200  1.5661 -1.0517 -0.3414
 4775TIP3   OH235959   1.287   5.020   8.936 -0.1475  0.3202 -1.0722
 4775TIP3    H135960   1.201   5.050   8.967  0.3701  0.9496 -0.1966
 4775TIP3    H235961   1.271   4.931   8.903 -0.4968 -1.1421  2.5357
 4776TIP3   OH235962   5.176   4.510   8.781  0.2083  0.5091 -0.1441
 4776TIP3    H135963   5.265   4.511   8.745 -0.0079 -1.7978 -0.9016
 4776TIP3    H235964   5.127   4.571   8.726  1.2834  1.7705  0.2576
 4777TIP3   OH235965   2.668   4.259   6.425  0.0871  0.4976  0.3593
 4777TIP3    H135966   2.704   4.214   6.349  0.5257  0.1921  0.7470
 4777TIP3    H235967   2.613   4.328   6.387  1.0028  0.9256 -0.2477
 4778TIP3   OH235968   4.841   5.529   1.938 -0.1986  0.3479  0.5477
 4778TIP3    H135969   4.752   5.550   1.910 -0.3853  1.0312  1.5879
 4778TIP3    H235970   4.833   5.510   2.031  0.8193  0.9314  0.7712
 4779TIP3   OH235971   3.222   4.472   8.670  0.0579 -0.1839  0.1952
 4779TIP3    H135972   3.212   4.543   8.733  0.2168 -0.2228  0.2641
 4779TIP3    H235973   3.211   4.514   8.585  1.0220  0.0915  0.1887
 4780TIP3   OH235974   4.607   1.712   1.042  0.1774  0.4535 -0.2562
 4780TIP3    H135975   4.564   1.680   1.122  1.1723 -0.8646 -0.2105
 4780TIP3    H235976   4.676   1.770   1.074  0.7672 -0.3053 -0.1190
 4781TIP3   OH235977   4.630   2.254   0.613 -0.0951 -0.4244  0.2807
 4781TIP3    H135978   4.599   2.333   0.569  0.3563 -0.0002  0.7107
 4781TIP3    H235979   4.582   2.252   0.696  0.5851 -0.0852  0.6861
 4782TIP3   OH235980   0.364   4.805   7.247  0.0009 -0.3926 -0.0935
 4782TIP3    H135981   0.398   4.716   7.261  0.5840 -0.1315  0.1689
 4782TIP3    H235982   0.270   4.792   7.232  0.0278 -1.0332  0.2345
 4783TIP3   OH235983   1.451   0.803   0.643 -0.1154 -0.1704  0.3005
 4783TIP3    H135984   1.473   0.772   0.555  1.9871  0.0566  0.6982
 4783TIP3    H235985   1.426   0.894   0.632  3.6613  1.0254  0.2392
 4784TIP3   OH235986   1.848   5.667   1.604 -0.3530 -0.2440  0.1691
 4784TIP3    H135987   1.901   5.704   1.674 -1.1565  1.4800 -0.0874
 4784TIP3    H235988   1.790   5.605   1.648  1.2040 -1.4868  0.5720
 4785TIP3   OH235989   1.061   0.085   6.928 -0.4092 -0.6741 -0.4444
 4785TIP3    H135990   1.117   0.016   6.963  0.2561 -0.3912 -0.9371
 4785TIP3    H235991   1.038   0.056   6.840  1.0228  0.3628 -1.1931
 4786TIP3   OH235992   0.806   5.604   8.740 -0.1584 -0.0373 -0.2183
 4786TIP3    H135993   0.900   5.619   8.755 -0.4203  1.6482 -0.0845
 4786TIP3    H235994   0.765   5.689   8.755 -1.7848 -0.8443  0.1622
 4787TIP3   OH235995   5.181   5.576   1.576  0.5403  0.7412 -0.0163
 4787TIP3    H135996   5.171   5.590   1.670 -0.3978  0.8676 -0.1212
 4787TIP3    H235997   5.239   5.500   1.569  0.7076  0.7997  0.6599
 4788TIP3   OH235998   2.241   0.864   7.662  0.1411  0.0522  0.3623
 4788TIP3    H135999   2.189   0.853   7.742 -1.8026  0.7476 -0.7428
 4788TIP3    H236000   2.250   0.776   7.627  1.5106 -0.3376  1.6079
 4789TIP3   OH236001   6.303   2.605   7.809 -0.2276 -0.2755 -0.0905
 4789TIP3    H136002   6.370   2.667   7.784 -1.2672  0.7574 -0.3936
 4789TIP3    H236003   6.276   2.632   7.896 -1.7876  0.7265 -0.8354
 4790TIP3   OH236004   3.566   0.091   1.779 -0.1648 -0.0469  0.6144
 4790TIP3    H136005   3.541   0.132   1.862  1.6511 -1.5571  1.9927
 4790TIP3    H236006   3.527   0.003   1.783  2.4606 -1.2760  1.3877
 4791TIP3   OH236007   4.903   4.423   8.076  0.7223  0.1034  0.2852
 4791TIP3    H136008   4.839   4.461   8.135  1.2254  1.4935 -0.0323
 4791TIP3    H236009   4.878   4.331   8.069 -2.2303  0.8986 -1.0965
 4792TIP3   OH236010   4.766   6.127   8.471  0.1787 -0.0862 -0.1375
 4792TIP3    H136011   4.781   6.107   8.563  0.7182  1.6810  0.1989
 4792TIP3    H236012   4.814   6.209   8.456 -2.2126  1.2386 -1.2429
 4793TIP3   OH236013   6.351   2.035   8.124 -0.4025 -0.3353 -0.1122
 4793TIP3    H136014   6.351   2.126   8.093 -2.7815 -0.1402  0.2989
 4793TIP3    H236015   6.359   1.983   8.044 -1.3195  0.2277 -0.5878
 4794TIP3   OH236016   3.842   1.859   0.134  0.4075 -0.1652  0.2993
 4794TIP3    H136017   3.894   1.779   0.124  2.4020  1.3240 -3.1716
 4794TIP3    H236018   3.879   1.902   0.211  0.6401 -1.5968  1.0302
 4795TIP3   OH236019   2.765   2.403   8.375  0.4216  0.2470  0.3073
 4795TIP3    H136020   2.850   2.362   8.390  0.9557  1.1473 -0.2532
 4795TIP3    H236021   2.721   2.344   8.313  2.0703  1.6046 -2.3253
 4796TIP3   OH236022   3.851   0.513   1.066 -0.3589 -0.6168 -0.3199
 4796TIP3    H136023   3.870   0.424   1.095 -1.1037 -0.7349 -0.1856
 4796TIP3    H236024   3.936   0.549   1.041  0.0767 -1.0522  0.5035
 4797TIP3   OH236025   3.701   1.698   8.277 -0.0202  0.3801  0.0724
 4797TIP3    H136026   3.693   1.792   8.266  0.5920  0.3295 -0.9786
 4797TIP3    H236027   3.622   1.662   8.235 -0.0243  0.4076  0.0561
 4798TIP3   OH236028   3.561   4.697   0.311  0.7083 -0.7356 -0.6056
 4798TIP3    H136029   3.486   4.638   0.303  1.4686 -1.6225 -1.2638
 4798TIP3    H236030   3.618   4.675   0.238  1.5769 -0.0010 -0.1736
 4799TIP3   OH236031   5.481   5.074   8.454  0.2278 -0.0799 -0.6216
 4799TIP3    H136032   5.571   5.099   8.473  0.0312  0.2552 -0.1061
 4799TIP3    H236033   5.477   5.068   8.359  1.3571 -2.2558 -0.5750
 4800TIP3   OH236034   2.013   0.363   1.758  0.3564  0.2479 -0.3222
 4800TIP3    H136035   1.918   0.372   1.754  0.3803  0.0188 -2.5695
 4800TIP3    H236036   2.046   0.451   1.738  0.7205  1.1837  3.6091
 4801TIP3   OH236037   6.640   2.924   0.062 -0.4136  0.2943  0.6167
 4801TIP3    H136038   6.656   2.890   0.150 -1.7067 -0.5613  0.5362
 4801TIP3    H236039   6.683   3.010   0.062  2.3020 -0.9462  1.0648
 4802TIP3   OH236040   3.674   1.674   1.215  0.5592  0.8962  0.2270
 4802TIP3    H136041   3.612   1.733   1.172  0.9776  1.0345 -0.1957
 4802TIP3    H236042   3.760   1.701   1.182  0.7085 -0.3763 -0.5108
 4803TIP3   OH236043   5.466   1.662   0.904 -1.0486  0.6146 -0.1718
 4803TIP3    H136044   5.515   1.614   0.971 -1.4244  1.3853  0.6707
 4803TIP3    H236045   5.377   1.628   0.910 -1.0635  0.6222 -0.3473
 4804TIP3   OH236046   3.817   4.146   1.038  0.0360  0.0017  1.1209
 4804TIP3    H136047   3.911   4.148   1.058  0.1121 -0.2806  0.8015
 4804TIP3    H236048   3.791   4.056   1.056  0.8213 -1.3112 -3.1577
 4805TIP3   OH236049   2.853   6.357   8.154 -0.5429  0.2532  0.2221
 4805TIP3    H136050   2.816   6.282   8.106 -2.9186  1.3653  0.1888
 4805TIP3    H236051   2.932   6.380   8.104 -0.8393 -1.0097 -0.9043
 4806TIP3   OH236052   5.196   4.436   2.053 -0.2462  0.1324  0.3789
 4806TIP3    H136053   5.257   4.474   2.115  0.7372 -1.4591  0.4585
 4806TIP3    H236054   5.110   4.468   2.080  0.6135  3.9058 -0.8232
 4807TIP3   OH236055   2.579   0.562   1.183  0.3528  0.1510 -0.1238
 4807TIP3    H136056   2.584   0.656   1.196  1.4406  0.1133 -0.1843
 4807TIP3    H236057   2.670   0.532   1.185 -0.0509 -1.1110  1.4193
 4808TIP3   OH236058   2.763   2.327   7.554 -1.2123  0.2619 -0.0038
 4808TIP3    H136059   2.695   2.268   7.521 -0.0112 -0.1467 -1.9259
 4808TIP3    H236060   2.822   2.339   7.479  1.4772 -0.3326  1.8704
 4809TIP3   OH236061   5.620   6.199   0.433  0.2676 -0.3542  0.5850
 4809TIP3    H136062   5.704   6.162   0.406  0.4128 -0.1202  0.7129
 4809TIP3    H236063   5.637   6.235   0.519  0.0221 -0.3455  0.6293
 4810TIP3   OH236064   5.900   0.249   0.780  0.0136  0.8574 -0.2240
 4810TIP3    H136065   5.862   0.162   0.773 -1.6725  1.5575 -0.2268
 4810TIP3    H236066   5.961   0.254   0.707  0.8471 -0.6397  0.3418
 4811TIP3   OH236067   2.159   2.684   0.692  0.0422  0.3014  0.1196
 4811TIP3    H136068   2.157   2.672   0.597 -2.2180 -1.2743  0.2802
 4811TIP3    H236069   2.235   2.633   0.721  0.1835 -0.0085 -0.7721
 4812TIP3   OH236070   2.661   1.180   1.130  0.4572  0.0198  0.1245
 4812TIP3    H136071   2.633   1.093   1.158  1.4403 -0.2994  0.1509
 4812TIP3    H236072   2.699   1.219   1.209  0.8801  0.1078 -0.1222
 4813TIP3   OH236073   4.673   4.935   2.156  0.0552 -0.1749 -0.2298
 4813TIP3    H136074   4.753   4.884   2.140  1.1319  0.7932  1.7527
 4813TIP3    H236075   4.705   5.023   2.174 -1.4167  0.1016  1.1905
 4814TIP3   OH236076   3.627   4.546   7.460 -0.5709 -0.6228  0.6216
 4814TIP3    H136077   3.692   4.612   7.483  0.3507 -0.8866 -1.0430
 4814TIP3    H236078   3.680   4.468   7.438 -1.4447 -0.8955 -0.5969
 4815TIP3   OH236079   5.900   1.801   1.005 -0.8281  0.0960  0.3146
 4815TIP3    H136080   5.854   1.737   0.950 -0.2122  1.8081 -2.3805
 4815TIP3    H236081   5.985   1.761   1.022 -1.1651 -0.6278  0.3455
 4816TIP3   OH236082   6.070   1.766   0.478 -0.1277 -0.1380  0.2317
 4816TIP3    H136083   6.112   1.788   0.561 -0.7360 -0.0274  0.5154
 4816TIP3    H236084   6.137   1.781   0.412  0.0481  0.7866  0.6004
 4817TIP3   OH236085   6.687   6.509   7.508  0.4498  0.0508  0.3444
 4817TIP3    H136086   6.616   6.504   7.572 -0.6952 -0.6187 -0.9226
 4817TIP3    H236087   6.647   6.551   7.432  1.5042 -0.0703 -0.2883
 4818TIP3   OH236088   0.333   0.192   7.098  0.6767  0.3373  0.8077
 4818TIP3    H136089   0.339   0.187   7.003 -2.8741 -0.6421  0.4945
 4818TIP3    H236090   0.408   0.141   7.130  2.1572  0.9977 -1.3782
 4819TIP3   OH236091   2.188   5.751   1.588  0.7488  0.1164  0.3760
 4819TIP3    H136092   2.220   5.812   1.655 -1.1461  1.9089 -0.2397
 4819TIP3    H236093   2.206   5.795   1.505  1.9688 -1.5388 -0.2946
 4820TIP3   OH236094   6.020   1.163   0.397  0.3568  0.0322  0.2028
 4820TIP3    H136095   6.078   1.198   0.330  3.0298 -0.7071  1.9502
 4820TIP3    H236096   6.002   1.237   0.455 -1.3119  0.4831 -0.8231
 4821TIP3   OH236097   6.594   3.891   7.898 -0.5196 -0.1435  0.5671
 4821TIP3    H136098   6.539   3.907   7.821 -0.8269 -0.6751  0.6678
 4821TIP3    H236099   6.599   3.976   7.942 -1.0731 -0.0340  0.4301
 4822TIP3   OH236100   1.287   0.393   0.447 -0.2682 -0.3530 -0.2682
 4822TIP3    H136101   1.213   0.406   0.506  0.2706  0.3734  0.2534
 4822TIP3    H236102   1.288   0.471   0.392  0.0293 -0.4241 -0.3680
 4823TIP3   OH236103   4.410   0.335   6.648 -0.8698  0.2875 -0.2274
 4823TIP3    H136104   4.454   0.372   6.724 -2.2977  2.1695 -0.2353
 4823TIP3    H236105   4.317   0.348   6.666 -1.2396  1.0119 -2.3909
 4824TIP3   OH236106   3.082   0.132   7.162 -0.2355 -0.3698 -0.3640
 4824TIP3    H136107   2.996   0.158   7.194 -0.2260 -1.3515  0.5072
 4824TIP3    H236108   3.086   0.166   7.073 -1.0010  0.8126  0.0330
 4825TIP3   OH236109   6.153   5.213   8.222  0.4498 -0.2010 -0.6210
 4825TIP3    H136110   6.123   5.132   8.263  2.5440 -0.7080  0.0594
 4825TIP3    H236111   6.092   5.279   8.253  0.7615 -0.9222  1.7758
 4826TIP3   OH236112   0.990   5.711   0.476 -0.6274 -0.2143  0.0321
 4826TIP3    H136113   0.958   5.795   0.441  3.7753  1.7691  0.1564
 4826TIP3    H236114   0.977   5.649   0.405 -2.5368  0.9131 -0.6778
 4827TIP3   OH236115   1.252   4.722   0.615  0.5506  0.0566  0.0569
 4827TIP3    H136116   1.289   4.765   0.692  0.5393 -2.1672  1.3882
 4827TIP3    H236117   1.309   4.646   0.600 -0.7650 -0.8274 -0.6885
 4828TIP3   OH236118   6.199   4.117   7.374 -0.2405 -0.4027  0.2681
 4828TIP3    H136119   6.110   4.139   7.345 -1.2246 -3.1916  0.8180
 4828TIP3    H236120   6.188   4.035   7.422  2.0740  1.0783  3.7599
 4829TIP3   OH236121   6.179   3.442   7.308 -0.0059  0.0915  0.0953
 4829TIP3    H136122   6.134   3.525   7.295 -0.6722 -0.2765 -0.0122
 4829TIP3    H236123   6.108   3.378   7.317  0.4951 -0.5611 -0.4674
 4830TIP3   OH236124   6.612   4.764   7.248 -0.0354  0.3327  0.1400
 4830TIP3    H136125   6.531   4.798   7.209 -0.2135 -0.1314  0.1004
 4830TIP3    H236126   6.600   4.774   7.342  0.2124  1.0469  0.0998
 4831TIP3   OH236127   3.621   1.217   8.657  1.1686  0.4622 -0.1920
 4831TIP3    H136128   3.669   1.285   8.704  3.1445  1.4025 -3.2747
 4831TIP3    H236129   3.624   1.141   8.715  1.6514  2.0569  2.0147
 4832TIP3   OH236130   1.252   6.538   7.153  0.0514 -0.3321  0.5523
 4832TIP3    H136131   1.313   6.538   7.227 -0.2836  1.1509  0.8516
 4832TIP3    H236132   1.274   6.616   7.103 -1.8897  0.5054  0.9247
 4833TIP3   OH236133   3.118   1.505   7.640  0.0516 -1.0335  0.0462
 4833TIP3    H136134   3.108   1.562   7.564  1.6430 -0.4590  0.2420
 4833TIP3    H236135   3.028   1.477   7.660 -0.6971  0.7681 -0.5466
 4834TIP3   OH236136   6.140   6.700   8.189  0.7269  0.2528 -0.5688
 4834TIP3    H136137   6.117   6.772   8.130 -3.0530 -0.1591  0.1283
 4834TIP3    H236138   6.163   6.742   8.271  0.8391  0.7183 -0.8333
 4835TIP3   OH236139   3.906   2.661   8.349 -0.8981 -0.2652  0.2051
 4835TIP3    H136140   3.981   2.681   8.405 -0.4366  0.8235 -0.7434
 4835TIP3    H236141   3.833   2.653   8.409 -0.5481  1.5690  0.9658
 4836TIP3   OH236142   2.650   0.803   7.108 -0.3636 -0.3917 -0.4779
 4836TIP3    H136143   2.683   0.755   7.184  0.7021  1.7076  0.4768
 4836TIP3    H236144   2.654   0.740   7.036  0.4343 -1.8714  0.7990
 4837TIP3   OH236145   5.663   0.096   0.930  0.2883 -0.2630 -0.0294
 4837TIP3    H136146   5.721   0.048   0.870 -1.0791 -0.0025 -1.6502
 4837TIP3    H236147   5.601   0.030   0.960 -2.5019  0.5091 -3.3845
 4838TIP3   OH236148   1.064   1.987   2.165 -0.1494  0.1051 -0.5371
 4838TIP3    H136149   1.066   1.974   2.260  0.5980 -0.9160 -0.6781
 4838TIP3    H236150   1.015   2.069   2.154 -0.8131 -0.0898  0.6864
 4839TIP3   OH236151   4.364   5.591   0.289  0.9428 -0.0172 -0.1723
 4839TIP3    H136152   4.322   5.590   0.203 -0.9399 -2.9905  0.6274
 4839TIP3    H236153   4.458   5.595   0.270  0.5477  0.1085 -2.3035
 4840TIP3   OH236154   4.943   5.563   7.535  0.5263  0.3762  0.2704
 4840TIP3    H136155   4.943   5.470   7.513  1.8029  0.3615  0.2239
 4840TIP3    H236156   4.929   5.565   7.629 -0.0695  0.1754  0.1916
 4841TIP3   OH236157   3.445   2.897   7.104 -0.1611 -0.2059  0.3674
 4841TIP3    H136158   3.371   2.930   7.052  1.3457 -1.1597 -2.6090
 4841TIP3    H236159   3.492   2.976   7.130  0.3124  0.3230 -1.8464
 4842TIP3   OH236160   3.581   5.923   1.683  0.0307  0.4035 -0.1344
 4842TIP3    H136161   3.596   5.857   1.751  2.4280  0.3849 -0.5840
 4842TIP3    H236162   3.486   5.930   1.677 -0.3041 -2.1325  0.7714
 4843TIP3   OH236163   3.923   2.881   7.504 -0.0735  0.9058 -0.8266
 4843TIP3    H136164   3.926   2.919   7.592  1.5556  0.6907 -0.7626
 4843TIP3    H236165   3.856   2.813   7.510  0.2561  0.6566  0.3614
 4844TIP3   OH236166   5.401   6.403   8.017 -0.3318 -0.3785 -0.6429
 4844TIP3    H136167   5.350   6.439   7.945 -0.5612 -0.9309 -0.7594
 4844TIP3    H236168   5.350   6.329   8.049 -0.2040 -0.1844  0.0520
 4845TIP3   OH236169   1.097   2.074   8.975 -0.0381  0.1351 -0.1552
 4845TIP3    H136170   1.040   2.140   8.935  1.1551  1.0384 -0.4199
 4845TIP3    H236171   1.185   2.095   8.943  0.6016 -0.6039  1.0296
 4846TIP3   OH236172   1.286   0.962   0.276  0.7446 -0.2761 -0.4954
 4846TIP3    H136173   1.270   1.029   0.209 -0.8757 -0.6570 -0.5409
 4846TIP3    H236174   1.216   0.898   0.262  0.0430 -0.1258  1.8743
 4847TIP3   OH236175   6.615   3.832   0.917 -0.3174  0.0371 -0.2494
 4847TIP3    H136176   6.559   3.762   0.949 -0.9210  0.8520  0.5450
 4847TIP3    H236177   6.661   3.795   0.842 -2.6917 -0.3623 -1.5926
 4848TIP3   OH236178   1.598   0.154   0.241  0.3205  0.3380  0.4913
 4848TIP3    H136179   1.660   0.089   0.272 -0.8683 -0.3902  1.4241
 4848TIP3    H236180   1.513   0.121   0.268 -0.8119 -0.0456 -3.0187
 4849TIP3   OH236181   6.444   6.341   2.343 -0.2095  0.4935 -0.0154
 4849TIP3    H136182   6.463   6.418   2.289  0.2625 -0.2939 -1.0044
 4849TIP3    H236183   6.524   6.289   2.338 -1.1740 -0.9770 -0.9595
 4850TIP3   OH236184   5.484   0.499   0.227  0.2670 -0.0367  0.4086
 4850TIP3    H136185   5.501   0.405   0.229 -0.3924 -0.2603 -1.7788
 4850TIP3    H236186   5.568   0.538   0.202 -0.5699 -0.6388 -4.3655
 4851TIP3   OH236187   6.291   0.720   1.031  0.4909 -0.4394 -0.4498
 4851TIP3    H136188   6.231   0.761   1.094 -1.5739  0.9831 -3.1267
 4851TIP3    H236189   6.238   0.654   0.987  0.3622  1.5413 -3.6143
 4852TIP3   OH236190   6.212   1.194   7.402  0.1780  0.1382 -0.0752
 4852TIP3    H136191   6.259   1.200   7.485 -1.4124  0.2735  0.8616
 4852TIP3    H236192   6.230   1.278   7.358 -0.5865  0.9221  1.0536
 4853TIP3   OH236193   5.950   0.927   7.834  0.4177 -0.1746 -0.1770
 4853TIP3    H136194   5.862   0.956   7.854  1.0022  0.4610  1.6193
 4853TIP3    H236195   5.943   0.831   7.830 -0.5321 -0.0906 -1.1822
 4854TIP3   OH236196   1.790   2.797   7.709  0.1088  0.0326  0.1063
 4854TIP3    H136197   1.816   2.888   7.700  0.0259  0.3661  2.5667
 4854TIP3    H236198   1.870   2.747   7.693  0.4907  0.6291  0.1424
 4855TIP3   OH236199   5.855   2.417   8.496 -0.2845 -0.3682  0.2036
 4855TIP3    H136200   5.837   2.509   8.515 -2.2635 -0.4362 -1.0652
 4855TIP3    H236201   5.950   2.410   8.500 -0.0667  1.7936  0.0081
 4856TIP3   OH236202   1.970   2.818   0.103 -0.1461 -0.0830 -0.2395
 4856TIP3    H136203   1.884   2.860   0.113  0.1336  0.3449  0.4299
 4856TIP3    H236204   2.022   2.854   0.175  0.0264 -1.7624  0.5147
 4857TIP3   OH236205   2.929   3.530   8.153 -0.0727 -0.0611  0.1081
 4857TIP3    H136206   2.942   3.550   8.245 -2.5708  2.3852  0.0719
 4857TIP3    H236207   3.001   3.575   8.108  0.2477  0.0937  0.7711
 4858TIP3   OH236208   0.810   1.156   1.535  0.0635 -0.6682  0.1636
 4858TIP3    H136209   0.846   1.178   1.621  0.4020 -1.7046  0.2987
 4858TIP3    H236210   0.720   1.188   1.539  0.2357 -0.2247  0.7049
 4859TIP3   OH236211   6.513   1.623   7.278  0.5671  0.3179  0.4830
 4859TIP3    H136212   6.577   1.553   7.274  2.6915  2.2093 -1.9661
 4859TIP3    H236213   6.524   1.670   7.195 -3.9975  0.8239 -0.0939
 4860TIP3   OH236214   5.030   6.123   1.722  0.0348  0.0667  0.4118
 4860TIP3    H136215   5.023   6.200   1.778 -2.7651  0.0804  0.1668
 4860TIP3    H236216   4.967   6.061   1.758 -0.3906 -0.6983 -1.5365
 4861TIP3   OH236217   6.444   0.879   7.902 -0.5660  0.4050 -0.5973
 4861TIP3    H136218   6.506   0.943   7.937  1.9476 -1.5448 -1.2535
 4861TIP3    H236219   6.448   0.891   7.808 -0.3879 -0.4188 -0.7011
 4862TIP3   OH236220   0.653   6.662   7.803  0.0975 -0.1344 -0.5622
 4862TIP3    H136221   0.740   6.696   7.826  0.8352 -0.3850 -2.7043
 4862TIP3    H236222   0.603   6.739   7.777  0.5019 -0.2100 -1.6418
 4863TIP3   OH236223   1.037   6.331   8.271  0.4319 -0.0157 -0.6685
 4863TIP3    H136224   0.949   6.294   8.280 -0.6137  2.2365 -0.8560
 4863TIP3    H236225   1.082   6.271   8.211 -1.4756 -0.4485 -1.7714
 4864TIP3   OH236226   1.168   4.777   2.135  0.0439 -0.0569  0.4739
 4864TIP3    H136227   1.184   4.711   2.068  2.9452  2.3566 -1.4734
 4864TIP3    H236228   1.104   4.836   2.095 -1.2885 -0.6982  1.5514
 4865TIP3   OH236229   1.326   6.163   0.407  0.7082  0.1763  0.4276
 4865TIP3    H136230   1.344   6.247   0.449 -0.1781  1.1840 -1.1027
 4865TIP3    H236231   1.249   6.180   0.353  0.2017 -1.7765  0.4737
 4866TIP3   OH236232   6.751   3.293   7.618 -0.5501  0.0570  0.1371
 4866TIP3    H136233   6.709   3.345   7.686 -1.3383  1.6093 -1.4507
 4866TIP3    H236234   6.845   3.305   7.633 -0.7164  1.6856  0.0215
 4867TIP3   OH236235   6.747   1.069   0.634 -0.6497  0.6391  0.3152
 4867TIP3    H136236   6.664   1.071   0.586 -0.4821  1.6621  0.0316
 4867TIP3    H236237   6.785   0.984   0.614 -0.3098  1.2360 -1.8819
 4868TIP3   OH236238   3.163   2.096   0.864 -0.2803 -0.7446 -0.2805
 4868TIP3    H136239   3.237   2.064   0.915  0.1835  0.9973  0.2229
 4868TIP3    H236240   3.191   2.183   0.834 -1.4699 -0.7519 -1.5167
 4869TIP3   OH236241   6.623   4.402   1.159  0.7089  1.2683  0.4457
 4869TIP3    H136242   6.540   4.431   1.197  0.3591  2.2453 -0.9921
 4869TIP3    H236243   6.608   4.404   1.065  1.6918 -0.6279  0.1862
 4870TIP3   OH236244   3.923   6.166   0.050 -0.0212 -0.1877  0.1134
 4870TIP3    H136245   3.950   6.195   0.138  2.7733 -0.4330 -0.5507
 4870TIP3    H236246   3.908   6.072   0.059 -3.0801  0.2817  0.9618
 4871TIP3   OH236247   6.501   1.317   7.759 -0.4853 -0.0530  0.4899
 4871TIP3    H136248   6.545   1.402   7.773 -1.1339  0.5037 -0.7341
 4871TIP3    H236249   6.565   1.265   7.710  0.4717 -0.8154  2.4426
 4872TIP3   OH236250   3.472   4.901   6.994  1.0446  0.3629  0.0787
 4872TIP3    H136251   3.555   4.926   7.035  0.6007 -0.1037  1.2881
 4872TIP3    H236252   3.493   4.820   6.948  1.2525  0.2320  0.3997
 4873TIP3   OH236253   0.104   4.805   2.674 -0.2514 -0.2172 -0.4014
 4873TIP3    H136254   0.134   4.895   2.675 -0.2159 -0.2136 -1.4382
 4873TIP3    H236255   0.020   4.807   2.720  1.7687 -0.4382  3.8118
 4874TIP3   OH236256   3.701   0.703   8.378 -0.1842  0.0634 -0.0331
 4874TIP3    H136257   3.761   0.635   8.350  0.3741  0.8657 -0.8240
 4874TIP3    H236258   3.707   0.702   8.474  1.0013  0.0510 -0.0948
 4875TIP3   OH236259   5.817   5.482   8.027 -0.0364 -0.5913  0.3733
 4875TIP3    H136260   5.788   5.525   7.946 -0.6336  0.0602  0.9206
 4875TIP3    H236261   5.883   5.419   7.998  0.9165  0.7291 -0.4665
 4876TIP3   OH236262   6.400   2.815   7.169 -0.7475  0.2061 -0.0814
 4876TIP3    H136263   6.411   2.910   7.164 -1.9339  0.3813  0.2700
 4876TIP3    H236264   6.397   2.786   7.078  0.8103  0.3212 -0.2118
 4877TIP3   OH236265   2.381   0.947   1.391 -0.3481 -0.0603  0.8381
 4877TIP3    H136266   2.351   0.857   1.406  0.2487 -0.3224  0.5167
 4877TIP3    H236267   2.301   0.997   1.377 -0.6430 -1.1697 -2.4339
 4878TIP3   OH236268   1.980   3.916   6.843 -0.0542  0.4526 -0.0726
 4878TIP3    H136269   2.055   3.888   6.896  0.7676 -0.5626 -1.6745
 4878TIP3    H236270   2.006   4.001   6.808 -0.6920  1.2298  1.2767
 4879TIP3   OH236271   6.398   3.942   1.069  0.3268  0.2595  0.0473
 4879TIP3    H136272   6.323   3.976   1.021  0.9054  0.0854 -1.0120
 4879TIP3    H236273   6.465   3.928   1.002  1.0935 -0.1755  0.8823
 4880TIP3   OH236274   5.799   2.911   8.682 -0.1231  0.2647  0.8179
 4880TIP3    H136275   5.805   3.004   8.659  1.2226  0.7063  2.7243
 4880TIP3    H236276   5.792   2.866   8.597 -0.2193  2.0535 -0.1674
 4881TIP3   OH236277   1.302   4.702   0.167 -0.0450  0.2163 -0.4644
 4881TIP3    H136278   1.274   4.724   0.079 -1.2711 -0.3952 -0.2530
 4881TIP3    H236279   1.368   4.768   0.189  0.3787  0.2866 -1.8782
 4882TIP3   OH236280   5.642   3.809   7.497  0.0198 -0.5583 -0.5957
 4882TIP3    H136281   5.559   3.828   7.453  0.0920 -0.2079 -0.5846
 4882TIP3    H236282   5.672   3.894   7.529  1.0956 -0.4277 -1.8535
 4883TIP3   OH236283   4.239   5.196   7.745  0.6490  0.1133 -0.5576
 4883TIP3    H136284   4.185   5.271   7.722 -0.8932 -0.7683  0.0132
 4883TIP3    H236285   4.294   5.226   7.817 -2.1374 -0.0722  1.8060
 4884TIP3   OH236286   0.254   3.871   0.487 -0.7171 -0.3018 -0.9162
 4884TIP3    H136287   0.229   3.907   0.402  3.7086  2.0698 -1.5250
 4884TIP3    H236288   0.278   3.780   0.469 -0.8623 -0.1355 -1.9790
 4885TIP3   OH236289   0.609   1.261   1.406 -0.8869  0.3924  0.4760
 4885TIP3    H136290   0.673   1.322   1.370 -1.6001  0.6087 -0.4706
 4885TIP3    H236291   0.531   1.314   1.420 -1.4085 -0.2177 -0.0316
 4886TIP3   OH236292   4.282   4.810   0.823 -0.5784  0.0703 -0.0627
 4886TIP3    H136293   4.335   4.820   0.744 -0.9823  0.9536 -0.2397
 4886TIP3    H236294   4.269   4.716   0.832 -0.6824 -0.0346 -1.1681
 4887TIP3   OH236295   6.394   5.191   8.747  0.3369 -0.2777  0.2915
 4887TIP3    H136296   6.348   5.128   8.801 -0.8304  0.6466  0.3977
 4887TIP3    H236297   6.484   5.158   8.744  0.1406 -1.0133  1.7432
 4888TIP3   OH236298   6.207   6.191   7.856  0.2054 -0.7588  0.5536
 4888TIP3    H136299   6.241   6.272   7.892 -2.5706  0.4202  0.7729
 4888TIP3    H236300   6.121   6.181   7.896 -0.5215 -2.5549 -1.2655
 4889TIP3   OH236301   3.536   0.357   0.992 -0.0966 -0.2703 -0.6440
 4889TIP3    H136302   3.601   0.339   1.060  1.5254 -2.6573 -2.6439
 4889TIP3    H236303   3.465   0.295   1.010  0.3709 -0.9618 -1.0991
 4890TIP3   OH236304   4.088   0.673   1.283  0.4940  0.1990  0.2213
 4890TIP3    H136305   4.104   0.585   1.318  1.4603  0.1294 -0.3466
 4890TIP3    H236306   4.065   0.658   1.191 -0.6466  0.4682  0.4473
 4891TIP3   OH236307   4.428   0.105   6.914 -0.6559 -0.1539 -0.1300
 4891TIP3    H136308   4.334   0.086   6.917 -0.7015 -0.1522 -1.1066
 4891TIP3    H236309   4.470   0.020   6.924 -0.8285 -0.5755 -2.4602
 4892TIP3   OH236310   3.334   2.537   8.396  0.0888 -0.2530 -0.0689
 4892TIP3    H136311   3.382   2.458   8.371  1.2147  0.4040 -0.0241
 4892TIP3    H236312   3.327   2.587   8.315 -0.8959 -0.5146 -0.1649
 4893TIP3   OH236313   2.881   1.452   7.808  0.0977  0.3320  0.1424
 4893TIP3    H136314   2.881   1.548   7.803  1.2943  0.2979 -1.1467
 4893TIP3    H236315   2.809   1.426   7.750 -1.5454  0.4560  2.0403
 4894TIP3   OH236316   0.083   0.322   1.562  0.0735 -0.1767  0.1103
 4894TIP3    H136317   0.036   0.361   1.488 -0.4735  0.1366  0.6170
 4894TIP3    H236318   0.054   0.231   1.563 -0.0848 -0.1279  0.0708
 4895TIP3   OH236319   6.487   2.145   0.009 -0.1063  0.4323 -0.1039
 4895TIP3    H136320   6.423   2.074   0.009 -1.5508  1.6540 -0.9590
 4895TIP3    H236321   6.535   2.134   0.091 -1.6605 -0.3492  0.7543
 4896TIP3   OH236322   0.792   6.465   1.280  0.1332  0.0571 -0.0325
 4896TIP3    H136323   0.710   6.418   1.295  1.2535 -2.0373 -0.0747
 4896TIP3    H236324   0.769   6.535   1.218 -1.6141 -0.4224  0.0191
 4897TIP3   OH236325   5.246   0.559   1.000 -0.3119  0.2305  0.5654
 4897TIP3    H136326   5.191   0.524   1.070 -1.1957  0.3781 -0.0416
 4897TIP3    H236327   5.278   0.482   0.953 -0.3185  0.1567  0.6826
 4898TIP3   OH236328   6.363   2.637   0.913 -0.3111  0.3742 -0.1292
 4898TIP3    H136329   6.344   2.564   0.855  0.2214  1.3645 -1.6246
 4898TIP3    H236330   6.280   2.686   0.918 -0.0358  0.9820 -1.1359
 4899TIP3   OH236331   3.273   6.032   8.945  0.1201  0.0897  0.3920
 4899TIP3    H136332   3.259   6.010   9.038 -2.1103  2.0278  0.6081
 4899TIP3    H236333   3.250   5.952   8.898 -1.4338 -0.1194  1.4237
 4900TIP3   OH236334   2.686   1.086   8.044 -0.4046  0.1568 -0.3071
 4900TIP3    H136335   2.612   1.026   8.043 -0.0958 -0.2439  0.4049
 4900TIP3    H236336   2.647   1.172   8.061 -0.9021  0.2618 -1.8611
 4901TIP3   OH236337   5.419   1.131   6.963  0.1322 -0.1073 -0.3077
 4901TIP3    H136338   5.397   1.088   6.880  0.4817  1.1715 -1.0876
 4901TIP3    H236339   5.401   1.224   6.947  0.1266  0.1461  1.0847
 4902TIP3   OH236340   0.053   3.960   8.570  0.2512 -0.0345 -0.0517
 4902TIP3    H136341   0.065   4.025   8.639  0.9245 -1.2884  1.0775
 4902TIP3    H236342   0.142   3.938   8.542  0.0326 -0.4524 -0.4343
 4903TIP3   OH236343   2.723   4.149   7.813 -0.3003 -0.0613 -0.5673
 4903TIP3    H136344   2.655   4.146   7.745 -0.6663  1.0133 -0.2603
 4903TIP3    H236345   2.709   4.232   7.858  0.7218 -0.1939  0.0303
 4904TIP3   OH236346   6.132   5.714   8.270  0.3074 -0.2361 -0.2263
 4904TIP3    H136347   6.194   5.641   8.269 -1.0972 -1.5244 -3.1022
 4904TIP3    H236348   6.176   5.785   8.224  0.8507  0.0131  0.6565
 4905TIP3   OH236349   3.245   2.788   8.543 -0.2823  0.0499 -0.0824
 4905TIP3    H136350   3.243   2.800   8.448 -0.2276  0.4985 -0.0320
 4905TIP3    H236351   3.199   2.706   8.558 -0.0479 -0.1634 -0.5188
 4906TIP3   OH236352   1.493   2.439   1.065 -0.3412  1.2249 -0.7288
 4906TIP3    H136353   1.471   2.450   0.973  1.0539 -0.6661 -1.3457
 4906TIP3    H236354   1.416   2.395   1.102  0.2122 -0.6483 -1.6892
 4907TIP3   OH236355   6.224   2.306   1.005  0.3280  0.0376 -0.2728
 4907TIP3    H136356   6.139   2.270   0.983  0.8225 -0.8763 -0.7148
 4907TIP3    H236357   6.287   2.246   0.966  1.1749  1.4346 -1.1278
 4908TIP3   OH236358   1.202   4.191   6.428  0.5615 -0.1633 -0.3764
 4908TIP3    H136359   1.209   4.232   6.513  1.2768 -0.0698 -0.4765
 4908TIP3    H236360   1.164   4.258   6.371  0.7703  0.0173 -0.3013
 4909TIP3   OH236361   1.192   2.281   7.547 -0.5865  0.1419  0.4764
 4909TIP3    H136362   1.170   2.352   7.608  0.8333  0.1612  1.0057
 4909TIP3    H236363   1.271   2.242   7.584 -0.4337 -0.6869 -0.6821
 4910TIP3   OH236364   2.152   5.108   8.901  0.2428  0.0555 -0.2067
 4910TIP3    H136365   2.060   5.135   8.892  0.9065  1.8879 -2.4634
 4910TIP3    H236366   2.168   5.051   8.826  0.5372 -1.7311  1.1507
 4911TIP3   OH236367   5.671   2.426   1.041  0.7301 -0.4288 -0.1979
 4911TIP3    H136368   5.669   2.521   1.031 -1.0322 -0.3518  0.5883
 4911TIP3    H236369   5.605   2.394   0.979  0.6207 -1.0588  0.2327
 4912TIP3   OH236370   6.177   1.243   8.713 -0.1901 -0.1266  0.1207
 4912TIP3    H136371   6.099   1.192   8.690  0.0442 -1.0192  1.2528
 4912TIP3    H236372   6.143   1.318   8.761 -0.3687 -0.3677  0.3708
 4913TIP3   OH236373   6.422   5.710   0.594 -0.3312  0.0501  0.1415
 4913TIP3    H136374   6.421   5.715   0.499  0.4000 -3.8615 -0.2226
 4913TIP3    H236375   6.344   5.759   0.622 -1.6969 -0.3942 -2.5779
 4914TIP3   OH236376   4.662   5.878   0.593  0.1714  0.2822 -0.3074
 4914TIP3    H136377   4.742   5.909   0.552 -0.6356  2.1389 -0.6081
 4914TIP3    H236378   4.655   5.930   0.673 -0.4755 -0.2010 -0.0445
 4915TIP3   OH236379   2.785   0.968   7.383 -0.4167  0.1071 -0.3869
 4915TIP3    H136380   2.858   1.023   7.408 -0.8958  0.1370  1.0725
 4915TIP3    H236381   2.825   0.883   7.361  0.1487  0.4772 -0.8004
 4916TIP3   OH236382   4.686   2.288   8.713  0.9457  0.4802 -0.2281
 4916TIP3    H136383   4.638   2.352   8.765  0.1526 -0.6640  0.4897
 4916TIP3    H236384   4.680   2.321   8.623 -1.9443 -0.0386 -0.3162
 4917TIP3   OH236385   1.385   4.813   7.104 -0.0106 -0.0054 -0.5162
 4917TIP3    H136386   1.321   4.760   7.058 -0.8998  0.8623 -0.3067
 4917TIP3    H236387   1.430   4.861   7.035  1.1665 -1.3771 -0.7560
 4918TIP3   OH236388   3.305   6.285   8.303 -0.3823 -0.1136 -0.4453
 4918TIP3    H136389   3.302   6.225   8.228  0.8739 -0.1820 -0.4618
 4918TIP3    H236390   3.398   6.303   8.315 -0.5751  0.0025  1.0243
 4919TIP3   OH236391   3.060   1.698   2.241 -0.3900 -0.4182  0.0599
 4919TIP3    H136392   3.007   1.759   2.190  0.1288 -1.6652 -2.1483
 4919TIP3    H236393   3.042   1.612   2.202 -0.2693 -1.5498  2.3266
 4920TIP3   OH236394   4.666   4.214   6.770  0.8943  0.0708 -0.1459
 4920TIP3    H136395   4.716   4.219   6.688  0.5811 -0.3120 -0.3593
 4920TIP3    H236396   4.579   4.184   6.744  0.8668 -0.2924  0.3585
 4921TIP3   OH236397   3.489   2.029   8.529 -0.5597 -1.0556  0.0735
 4921TIP3    H136398   3.460   1.975   8.455 -1.5084 -1.2452  0.5707
 4921TIP3    H236399   3.558   1.977   8.571 -0.9693 -1.5697  0.1271
 4922TIP3   OH236400   2.562   5.831   1.980 -0.1334 -0.6387  0.0667
 4922TIP3    H136401   2.529   5.773   1.911 -0.4132  0.0770 -0.4001
 4922TIP3    H236402   2.650   5.855   1.951 -0.3700 -0.0866 -0.1973
 4923TIP3   OH236403   5.646   5.986   7.310 -0.0729  0.8942  0.3025
 4923TIP3    H136404   5.730   5.998   7.353  0.5123  0.0327 -0.5614
 4923TIP3    H236405   5.616   5.900   7.339  1.7951 -1.1737 -3.2327
 4924TIP3   OH236406   4.780   1.028   1.640  0.0427 -0.7164  0.4293
 4924TIP3    H136407   4.695   1.043   1.681 -0.1188 -0.8686  0.1528
 4924TIP3    H236408   4.829   1.110   1.655 -0.2875 -0.4857  0.2540
 4925TIP3   OH236409   4.568   1.317   7.952  0.6980 -0.1439 -0.2619
 4925TIP3    H136410   4.650   1.288   7.991  2.2536  2.0120 -1.7244
 4925TIP3    H236411   4.555   1.260   7.876  1.1334 -0.1573 -0.3269
 4926TIP3   OH236412   2.334   4.705   8.274 -0.1195 -0.4042  0.4446
 4926TIP3    H136413   2.376   4.788   8.253  1.7435 -0.8726  2.0386
 4926TIP3    H236414   2.392   4.638   8.238 -2.3908 -1.1252 -2.2529
 4927TIP3   OH236415   4.579   6.465   1.808 -0.7717  0.7565  0.0324
 4927TIP3    H136416   4.579   6.448   1.714  0.6857  1.1957 -0.0674
 4927TIP3    H236417   4.487   6.459   1.833 -0.9504 -1.6577 -0.9705
 4928TIP3   OH236418   0.539   3.574   2.460  0.2864  0.3482 -0.1038
 4928TIP3    H136419   0.539   3.513   2.534  1.0511  0.2916 -0.1415
 4928TIP3    H236420   0.496   3.526   2.389 -1.4223  0.7846  0.5909
 4929TIP3   OH236421   3.887   1.060   8.338  0.0199  0.0721  0.3922
 4929TIP3    H136422   3.883   1.016   8.253  0.9361 -0.0343  0.3891
 4929TIP3    H236423   3.972   1.104   8.338  1.1697 -1.8982  2.1782
 4930TIP3   OH236424   2.624   6.180   1.816  0.2834 -0.7386  0.1183
 4930TIP3    H136425   2.654   6.094   1.787  0.8445  0.0337 -1.7262
 4930TIP3    H236426   2.697   6.239   1.797 -0.8262  0.4821 -0.5290
 4931TIP3   OH236427   0.194   6.759   0.146  0.4036 -0.7024  0.3037
 4931TIP3    H136428   0.108   6.775   0.185  0.2669 -0.5425 -0.0641
 4931TIP3    H236429   0.232   6.846   0.135 -0.1988 -0.6299 -1.3738
 4932TIP3   OH236430   5.492   1.694   6.401 -0.1229  0.0157  0.0612
 4932TIP3    H136431   5.405   1.733   6.402 -1.1225 -2.0518  0.3654
 4932TIP3    H236432   5.499   1.647   6.484  0.7857 -0.8108 -0.4508
 4933TIP3   OH236433   3.492   5.975   1.992  0.0456  0.0888  0.3604
 4933TIP3    H136434   3.401   5.957   1.970  0.4360  1.1707 -2.7032
 4933TIP3    H236435   3.542   5.905   1.950  0.6765 -0.0035  1.2426
 4934TIP3   OH236436   3.980   4.088   0.752 -0.2469  0.3531  0.6243
 4934TIP3    H136437   3.934   4.005   0.745  1.5504 -0.6000 -0.5364
 4934TIP3    H236438   4.057   4.068   0.805 -0.0365  1.3957  0.7295
 4935TIP3   OH236439   0.674   3.791   8.117  0.4210  0.8626  0.0937
 4935TIP3    H136440   0.637   3.704   8.130  0.2376  0.9534  0.1901
 4935TIP3    H236441   0.747   3.778   8.055  1.3023  0.4184  1.1883
 4936TIP3   OH236442   2.857   6.180   0.165 -0.2855  0.4130  0.0763
 4936TIP3    H136443   2.928   6.216   0.113  0.6135 -0.2645  0.7940
 4936TIP3    H236444   2.855   6.233   0.245  0.2057 -0.3060  0.5760
 4937TIP3   OH236445   1.260   1.165   7.249  0.1129 -0.1737  0.1988
 4937TIP3    H136446   1.301   1.134   7.168 -0.9736 -2.0295  0.2854
 4937TIP3    H236447   1.236   1.256   7.231  1.3306 -0.0594 -0.9746
 4938TIP3   OH236448   3.604   3.743   5.897 -0.4564  0.3221 -0.1986
 4938TIP3    H136449   3.652   3.738   5.979 -0.9231  1.1252  0.1339
 4938TIP3    H236450   3.564   3.656   5.887 -1.3800  0.5826  1.0435
 4939TIP3   OH236451   1.241   2.085   8.034 -0.2413  0.8811  0.2722
 4939TIP3    H136452   1.312   2.149   8.034 -1.0352  1.7973  0.0393
 4939TIP3    H236453   1.162   2.137   8.050 -0.7771 -0.2211  1.3563
 4940TIP3   OH236454   3.119   5.375   0.691 -0.1631  0.3578 -0.1673
 4940TIP3    H136455   3.059   5.432   0.644  0.1029 -0.5793 -1.7036
 4940TIP3    H236456   3.066   5.301   0.719 -0.0666  0.3331 -0.0466
 4941TIP3   OH236457   2.621   5.537   1.150  0.0572 -0.2612 -0.0204
 4941TIP3    H136458   2.578   5.462   1.109 -0.8937  0.8480 -1.1472
 4941TIP3    H236459   2.708   5.539   1.110  0.7563 -1.7612  1.3174
 4942TIP3   OH236460   4.784   2.594   6.854  0.1210  0.3875 -0.0382
 4942TIP3    H136461   4.829   2.641   6.784  0.6823  1.0546  0.7521
 4942TIP3    H236462   4.847   2.530   6.886  0.5739  1.3650  1.1128
 4943TIP3   OH236463   5.945   5.361   1.551  0.2674 -0.3341 -0.4741
 4943TIP3    H136464   5.980   5.415   1.480  0.5323 -0.0157 -0.1023
 4943TIP3    H236465   6.015   5.358   1.616 -0.4297  0.4521  0.3560
 4944TIP3   OH236466   3.155   1.209   6.649 -0.1671 -0.5749 -0.0188
 4944TIP3    H136467   3.223   1.193   6.714 -0.0726 -0.4722 -0.0928
 4944TIP3    H236468   3.128   1.299   6.663  0.5238 -0.2431 -0.7453
 4945TIP3   OH236469   6.103   4.958   0.183  0.0169  0.0730 -0.3892
 4945TIP3    H136470   6.049   4.884   0.210  0.7946 -0.8443 -1.2623
 4945TIP3    H236471   6.063   5.034   0.225 -1.7287 -0.6269 -0.7051
 4946TIP3   OH236472   4.817   5.719   6.492  0.2398  0.4495 -1.0319
 4946TIP3    H136473   4.796   5.660   6.565  3.1794  1.1826  0.5598
 4946TIP3    H236474   4.733   5.756   6.466 -1.2795 -1.9630  0.0716
 4947TIP3   OH236475   6.389   5.993   7.792 -0.2057  0.6660 -0.3891
 4947TIP3    H136476   6.323   6.061   7.779  0.2145  0.6119 -3.6065
 4947TIP3    H236477   6.388   5.943   7.711  0.2843 -2.5647  1.4127
 4948TIP3   OH236478   5.652   6.661   6.884 -0.5363 -0.1612 -0.1665
 4948TIP3    H136479   5.660   6.608   6.805 -0.9395 -2.2026  1.0992
 4948TIP3    H236480   5.720   6.728   6.875  0.0134 -0.8965 -1.8062
 4949TIP3   OH236481   2.598   5.280   7.098  0.0926  0.3664 -0.1072
 4949TIP3    H136482   2.650   5.232   7.034  1.1140 -0.6204  1.3688
 4949TIP3    H236483   2.657   5.349   7.130 -0.1424  0.3966  0.2702
 4950TIP3   OH236484   0.945   2.265   8.839 -0.4486  0.1729 -0.4919
 4950TIP3    H136485   1.029   2.311   8.837 -0.2047 -0.2783 -0.6721
 4950TIP3    H236486   0.884   2.329   8.875 -0.0754  0.5820 -0.5766
 4951TIP3   OH236487   6.653   1.791   7.642 -0.0992 -0.7504 -0.4134
 4951TIP3    H136488   6.580   1.733   7.623 -0.0398 -0.1174 -2.9776
 4951TIP3    H236489   6.612   1.875   7.665 -0.1903 -0.6585 -0.9048
 4952TIP3   OH236490   6.274   3.907   8.306 -0.1690  0.1653  0.5366
 4952TIP3    H136491   6.194   3.875   8.264 -0.6044  2.4642 -0.5555
 4952TIP3    H236492   6.321   3.827   8.333 -1.2678 -1.3514 -1.7248
 4953TIP3   OH236493   0.267   6.412   0.639  0.0963  0.2854  0.4271
 4953TIP3    H136494   0.281   6.475   0.568 -1.1616  0.2070  0.0819
 4953TIP3    H236495   0.213   6.344   0.599  1.1497 -0.8514  0.8913
 4954TIP3   OH236496   4.831   1.775   7.796  0.2883 -0.2288  0.1422
 4954TIP3    H136497   4.867   1.739   7.715  0.9473 -0.4489  0.5277
 4954TIP3    H236498   4.736   1.761   7.789  0.4889 -1.6153  0.0846
 4955TIP3   OH236499   2.778   3.944   8.162  0.0407 -0.2427  0.2054
 4955TIP3    H136500   2.846   3.917   8.224 -0.6877 -1.2680  0.5902
 4955TIP3    H236501   2.700   3.955   8.215 -0.5484 -0.9336 -0.4947
 4956TIP3   OH236502   5.904   2.621   7.554  0.1846  0.1033 -0.3612
 4956TIP3    H136503   5.992   2.620   7.517  0.3625  0.6088  0.0526
 4956TIP3    H236504   5.864   2.540   7.521  1.2505 -0.8368  0.5529
 4957TIP3   OH236505   1.964   6.490   2.083 -0.5240  0.2452  0.0679
 4957TIP3    H136506   1.961   6.401   2.048 -3.0841  0.8853 -1.6503
 4957TIP3    H236507   2.050   6.497   2.123  0.0289 -2.7633 -0.3437
 4958TIP3   OH236508   1.577   3.764   6.798 -0.1677  0.6388 -0.4848
 4958TIP3    H136509   1.487   3.785   6.824 -0.7751 -3.1698  1.0426
 4958TIP3    H236510   1.568   3.724   6.711 -0.3170 -1.5264  0.4642
 4959TIP3   OH236511   6.633   2.497   8.048 -0.5673 -0.3567 -0.2668
 4959TIP3    H136512   6.640   2.591   8.029  0.3194 -0.6701 -1.5711
 4959TIP3    H236513   6.542   2.485   8.075 -0.7882  0.8066 -0.4217
 4960TIP3   OH236514   4.852   1.619   0.930 -0.7276  0.4512  0.3629
 4960TIP3    H136515   4.766   1.643   0.965 -1.2312 -0.9931  0.1933
 4960TIP3    H236516   4.898   1.579   1.004 -1.0895 -0.8931 -0.1147
 4961TIP3   OH236517   0.884   2.729   7.939 -0.6662  0.4379  0.1417
 4961TIP3    H136518   0.836   2.809   7.918 -1.5568  0.6364  2.6700
 4961TIP3    H236519   0.868   2.714   8.032  0.0102 -2.3266 -0.0794
 4962TIP3   OH236520   1.610   3.986   7.617  0.1741 -0.0821 -0.0105
 4962TIP3    H136521   1.610   4.047   7.691 -0.5450 -1.0965  0.8707
 4962TIP3    H236522   1.702   3.972   7.597  0.3778  0.2680  0.6489
 4963TIP3   OH236523   4.397   2.843   7.590  0.1965  0.0102  0.2676
 4963TIP3    H136524   4.483   2.878   7.565  0.4136 -1.2306 -0.8347
 4963TIP3    H236525   4.334   2.907   7.555  0.6410  1.7094  2.3529
 4964TIP3   OH236526   5.789   1.607   7.377 -0.2575 -0.7483 -0.0121
 4964TIP3    H136527   5.799   1.699   7.402 -1.6059 -0.9112  1.2221
 4964TIP3    H236528   5.845   1.597   7.300 -1.3471  1.5037 -1.1586
 4965TIP3   OH236529   3.773   3.570   8.916 -0.5310 -0.2450 -0.0770
 4965TIP3    H136530   3.773   3.624   8.995  0.7222  0.7853 -0.7458
 4965TIP3    H236531   3.734   3.626   8.848 -2.9683 -1.6264  0.0788
 4966TIP3   OH236532   4.431   6.196   8.039 -0.6057 -0.1265 -0.2964
 4966TIP3    H136533   4.463   6.259   8.104 -1.6417  0.6502 -0.4968
 4966TIP3    H236534   4.502   6.188   7.976 -0.9973  2.0787 -1.1208
 4967TIP3   OH236535   6.075   3.943   7.127  0.2632 -0.1889  0.4994
 4967TIP3    H136536   6.006   3.946   7.194 -1.1446 -0.9352 -0.8553
 4967TIP3    H236537   6.037   3.890   7.057  2.2116 -0.5403 -0.3285
 4968TIP3   OH236538   2.287   1.344   7.447 -0.1873  0.1812  0.1636
 4968TIP3    H136539   2.251   1.348   7.536 -1.5745 -2.1381 -0.2078
 4968TIP3    H236540   2.318   1.255   7.438  1.2782  0.7866 -1.2356
 4969TIP3   OH236541   1.595   2.463   8.334 -0.1453 -0.2478 -0.4827
 4969TIP3    H136542   1.599   2.507   8.249  0.8982  0.6111 -0.0174
 4969TIP3    H236543   1.678   2.486   8.377 -0.0295 -1.8312  0.2092
 4970TIP3   OH236544   4.681   5.375   8.868 -0.3496  0.5166 -0.5325
 4970TIP3    H136545   4.624   5.438   8.823 -0.3490  1.5849  0.8984
 4970TIP3    H236546   4.654   5.290   8.834  0.4026  1.3062 -3.3588
 4971TIP3   OH236547   0.721   4.671   0.289 -0.4123 -0.1857  0.8304
 4971TIP3    H136548   0.726   4.722   0.370  1.3561  0.5454  0.2908
 4971TIP3    H236549   0.701   4.582   0.319 -0.5042  0.2031  1.9996
 4972TIP3   OH236550   5.640   4.220   1.853  0.0011  0.5167  0.6370
 4972TIP3    H136551   5.673   4.184   1.771 -0.4461 -2.1418  1.5018
 4972TIP3    H236552   5.562   4.269   1.829  0.1153  0.1394 -0.5561
 4973TIP3   OH236553   5.619   2.843   1.198 -0.5176  0.1637 -0.0899
 4973TIP3    H136554   5.544   2.843   1.138 -1.4439  0.7275  1.0352
 4973TIP3    H236555   5.696   2.851   1.140 -1.2995 -0.5254 -1.2717
 4974TIP3   OH236556   2.500   3.569   8.778 -0.1389 -0.1901  0.7066
 4974TIP3    H136557   2.496   3.507   8.850 -0.6213 -1.4518 -0.3614
 4974TIP3    H236558   2.457   3.524   8.705  0.4974  0.9583 -0.4256
 4975TIP3   OH236559   0.347   5.836   7.590  0.4785  0.1738 -0.5904
 4975TIP3    H136560   0.379   5.900   7.653 -0.5718  1.2849 -1.1273
 4975TIP3    H236561   0.307   5.767   7.643  1.5958 -0.0299 -0.0013
 4976TIP3   OH236562   5.102   2.997   7.706 -1.0531  0.3928  0.2277
 4976TIP3    H136563   5.102   2.902   7.716  1.1496  0.3519  0.4124
 4976TIP3    H236564   5.011   3.019   7.686 -1.3566 -1.9224 -1.4703
 4977TIP3   OH236565   0.779   2.905   0.413  0.7813 -0.1639 -0.3525
 4977TIP3    H136566   0.752   2.986   0.457  0.8470  0.6093 -1.6921
 4977TIP3    H236567   0.798   2.845   0.485 -2.7525 -0.1976  0.7461
 4978TIP3   OH236568   4.035   3.551   8.773  0.5041 -0.4514 -0.1607
 4978TIP3    H136569   3.949   3.534   8.812  0.1715 -0.6025 -0.9365
 4978TIP3    H236570   4.053   3.643   8.794 -1.1849  0.4917 -2.4191
 4979TIP3   OH236571   3.184   5.762   7.954  0.5962  0.1612  0.0582
 4979TIP3    H136572   3.095   5.730   7.970  1.0294 -1.0309  0.2188
 4979TIP3    H236573   3.176   5.818   7.877 -0.3772  0.5031  0.3922
 4980TIP3   OH236574   6.440   5.522   0.212 -0.7177  0.2489 -0.0732
 4980TIP3    H136575   6.417   5.528   0.119  2.0423  0.8575 -0.8051
 4980TIP3    H236576   6.394   5.595   0.253 -1.4960  0.3261 -1.0465
 4981TIP3   OH236577   5.331   0.072   0.650  0.1352  0.3562 -0.8391
 4981TIP3    H136578   5.331   0.067   0.746 -1.1986  1.0245 -0.7761
 4981TIP3    H236579   5.389   0.145   0.630  1.0390 -0.2755 -0.5991
 4982TIP3   OH236580   1.137   6.534   8.773 -0.0032 -0.9844  0.7003
 4982TIP3    H136581   1.171   6.467   8.713  2.5799  3.1874 -3.2058
 4982TIP3    H236582   1.198   6.532   8.847  0.2615 -2.6086  0.4917
 4983TIP3   OH236583   4.059   5.824   1.728 -0.2215  0.1506  0.5320
 4983TIP3    H136584   4.012   5.811   1.811  1.9894 -1.7443  1.6070
 4983TIP3    H236585   4.012   5.769   1.665 -1.7210  1.3481  0.5522
 4984TIP3   OH236586   2.587   3.436   1.234  0.4402 -0.7232 -0.0549
 4984TIP3    H136587   2.504   3.461   1.193  0.6159  0.0478  0.0423
 4984TIP3    H236588   2.627   3.376   1.171  0.6308  0.3225 -0.9494
 4985TIP3   OH236589   6.767   5.865   6.398  0.1379  0.1254  0.4940
 4985TIP3    H136590   6.794   5.780   6.362  0.5862  0.9077 -1.0649
 4985TIP3    H236591   6.705   5.842   6.467 -2.2629 -1.4282 -1.9740
 4986TIP3   OH236592   0.748   2.396   8.579  0.3115  0.3240 -0.7681
 4986TIP3    H136593   0.731   2.457   8.650  0.8195 -0.0746 -0.3000
 4986TIP3    H236594   0.806   2.444   8.520  2.1819 -0.2969  0.4895
 4987TIP3   OH236595   5.443   2.683   2.421 -0.1779  0.1676 -0.6121
 4987TIP3    H136596   5.502   2.635   2.479  1.6590  1.3748 -1.3791
 4987TIP3    H236597   5.376   2.719   2.478 -0.6629 -1.8624  0.1946
 4988TIP3   OH236598   6.411   3.691   1.273 -0.6317 -0.4802  0.2820
 4988TIP3    H136599   6.481   3.724   1.217 -0.1822  0.6805  1.4654
 4988TIP3    H236600   6.355   3.641   1.214 -1.6027  2.7317 -1.8318
 4989TIP3   OH236601   6.287   4.965   8.529 -0.0978 -0.4114  0.1707
 4989TIP3    H136602   6.289   5.060   8.526  3.8404 -0.3349 -1.3011
 4989TIP3    H236603   6.277   4.943   8.621  0.0034  1.4701  0.6578
 4990TIP3   OH236604   5.716   6.588   0.533  0.3882  0.0332  0.1179
 4990TIP3    H136605   5.808   6.578   0.508  0.1933 -0.3795 -0.4299
 4990TIP3    H236606   5.677   6.638   0.462  0.3598  0.9066  0.7315
 4991TIP3   OH236607   6.378   4.454   7.929 -0.5701  0.0586 -0.0043
 4991TIP3    H136608   6.295   4.412   7.908 -1.2922  1.1330  0.6307
 4991TIP3    H236609   6.393   4.515   7.856  0.0950 -0.7151 -0.5381
 4992TIP3   OH236610   2.140   4.457   2.322 -0.2847  0.5353 -0.2341
 4992TIP3    H136611   2.116   4.534   2.373  0.7318  0.6812  0.0495
 4992TIP3    H236612   2.205   4.411   2.376  0.9544  0.7958 -1.4417
 4993TIP3   OH236613   6.140   5.550   8.541  0.2572  0.0359  0.0622
 4993TIP3    H136614   6.148   5.617   8.473  1.5763 -0.7412 -0.6055
 4993TIP3    H236615   6.052   5.561   8.576  0.6374  2.5562  0.4593
 4994TIP3   OH236616   1.915   6.104   7.984  0.1795 -0.5723 -0.5634
 4994TIP3    H136617   1.909   6.024   8.036 -0.6761  0.2632  0.7210
 4994TIP3    H236618   2.008   6.116   7.968  0.5096 -0.7240  1.0792
 4995TIP3   OH236619   0.517   6.303   1.660  0.0896 -0.0909 -0.0566
 4995TIP3    H136620   0.533   6.295   1.754 -0.0513 -1.2784 -0.1206
 4995TIP3    H236621   0.466   6.384   1.651 -0.9351 -0.5807  1.0273
 4996TIP3   OH236622   0.152   4.432   8.911 -0.5093 -0.1194 -0.4241
 4996TIP3    H136623   0.229   4.410   8.963 -1.0478 -0.3755  0.2857
 4996TIP3    H236624   0.184   4.492   8.843  0.4663 -0.9254 -0.6808
 4997TIP3   OH236625   2.605   2.832   8.465  0.6333  0.0436 -0.1824
 4997TIP3    H136626   2.679   2.799   8.414  0.9745 -1.5631  1.2850
 4997TIP3    H236627   2.639   2.910   8.509  0.1910  1.7715 -2.6681
 4998TIP3   OH236628   0.963   5.127   8.581  0.7327  0.2482 -0.2511
 4998TIP3    H136629   0.998   5.065   8.645  0.0640  1.6640  1.5604
 4998TIP3    H236630   0.899   5.179   8.630 -0.5371  0.7618 -2.3281
 4999TIP3   OH236631   5.169   4.748   2.115 -0.3505 -0.0252 -0.4709
 4999TIP3    H136632   5.219   4.827   2.092  0.3671  0.0045  1.0603
 4999TIP3    H236633   5.236   4.682   2.134 -0.9445 -0.8184 -1.0881
 5000TIP3   OH236634   5.620   5.060   8.888  0.7898  0.0157  0.2320
 5000TIP3    H136635   5.617   4.995   8.958  0.0066  1.0277  1.1794
 5000TIP3    H236636   5.670   5.018   8.818  0.3414 -1.5830  0.8205
 5001TIP3   OH236637   4.839   4.214   7.059 -0.0427 -0.3282 -0.2498
 5001TIP3    H136638   4.781   4.242   6.989 -0.8781  0.8233  0.8557
 5001TIP3    H236639   4.787   4.227   7.139  0.6761 -2.1044  0.5603
 5002TIP3   OH236640   3.907   3.980   6.989 -0.1254  0.5028 -0.7125
 5002TIP3    H136641   3.906   3.997   6.895 -0.8323  0.0208 -0.7952
 5002TIP3    H236642   3.820   3.947   7.009 -0.8615  2.9147  0.5446
 5003TIP3   OH236643   6.696   5.989   0.706 -0.0388  0.1724  0.2666
 5003TIP3    H136644   6.662   5.988   0.617 -0.1211 -0.6800  0.3051
 5003TIP3    H236645   6.618   6.000   0.761  0.0505  1.1238  0.2296
 5004TIP3   OH236646   3.095   5.890   7.304  0.4297 -0.2461  0.7172
 5004TIP3    H136647   3.115   5.810   7.352  1.0258 -1.1836 -1.0344
 5004TIP3    H236648   3.180   5.926   7.281  0.1712 -0.5962 -0.8808
 5005TIP3   OH236649   3.466   4.785   8.555 -0.0792  0.0210 -0.3383
 5005TIP3    H136650   3.542   4.753   8.604 -0.8341 -0.6246  0.4337
 5005TIP3    H236651   3.443   4.868   8.597  1.1767  1.0713 -1.6176
 5006TIP3   OH236652   3.533   5.361   6.041 -0.2899  0.1026  0.0192
 5006TIP3    H136653   3.614   5.370   5.990  0.0977 -1.1831  0.3562
 5006TIP3    H236654   3.536   5.272   6.075 -0.5534  0.8737  2.2539
 5007TIP3   OH236655   4.668   5.050   7.249 -0.3054 -0.8151 -0.4351
 5007TIP3    H136656   4.672   5.111   7.323  1.5086 -0.6083 -0.6633
 5007TIP3    H236657   4.626   4.972   7.284 -2.6407  0.4918 -0.1154
 5008TIP3   OH236658   1.032   5.281   0.964  0.6967 -0.0787 -0.1207
 5008TIP3    H136659   1.113   5.252   1.005 -0.2592 -1.9964  0.5233
 5008TIP3    H236660   0.973   5.300   1.037 -0.1861 -1.0178 -0.5712
 5009TIP3   OH236661   6.107   5.790   7.416  0.0660 -0.1253  0.0297
 5009TIP3    H136662   6.065   5.854   7.473 -0.8233  0.1848 -0.9331
 5009TIP3    H236663   6.176   5.839   7.372  1.0799 -0.4843  1.1609
 5010TIP3   OH236664   5.163   3.917   1.847 -0.2118  0.2109 -0.1032
 5010TIP3    H136665   5.078   3.941   1.812  1.2021  5.0636 -0.8607
 5010TIP3    H236666   5.151   3.916   1.942 -1.4426 -1.2391 -0.2277
 5011TIP3   OH236667   4.306   3.284   0.665 -0.7270 -0.0232  0.2366
 5011TIP3    H136668   4.391   3.327   0.675  0.0382 -1.6169  0.9915
 5011TIP3    H236669   4.276   3.310   0.578 -0.5611  2.3666  0.8156
 5012TIP3   OH236670   0.836   3.436   7.943 -0.6104  0.1529  0.0374
 5012TIP3    H136671   0.831   3.529   7.920 -0.6764 -0.3510 -2.1864
 5012TIP3    H236672   0.922   3.427   7.985  0.1130  0.9426 -1.2072
 5013TIP3   OH236673   4.870   4.994   7.028  0.1381  0.2079  0.0563
 5013TIP3    H136674   4.818   5.043   7.092  0.6422 -1.2100  1.6225
 5013TIP3    H236675   4.837   4.905   7.033  2.5904 -0.7190  1.0221
 5014TIP3   OH236676   0.368   2.894   1.107  0.2678 -0.5756  0.0712
 5014TIP3    H136677   0.324   2.976   1.130  0.4922 -0.0753 -1.2091
 5014TIP3    H236678   0.324   2.827   1.159 -0.4044  0.2521  0.5865
 5015TIP3   OH236679   3.722   5.071   0.092  0.1492  0.8716  0.1354
 5015TIP3    H136680   3.692   5.013   0.022  3.5057 -0.1259 -0.6598
 5015TIP3    H236681   3.654   5.137   0.099 -2.3028 -1.3246 -1.1698
 5016TIP3   OH236682   0.740   4.563   7.839  0.2510 -0.2653  0.4945
 5016TIP3    H136683   0.668   4.500   7.844  0.7477 -0.9185 -0.3767
 5016TIP3    H236684   0.804   4.532   7.902  0.6383 -0.8419 -0.1641
 5017TIP3   OH236685   4.056   1.253   7.390  0.7376  0.3384 -0.0065
 5017TIP3    H136686   4.092   1.203   7.317  1.2947  0.5436  0.1232
 5017TIP3    H236687   3.975   1.290   7.356 -0.3949 -1.7142  0.2870
 5018TIP3   OH236688   4.825   5.980   8.987 -0.0136 -0.4069 -0.0687
 5018TIP3    H136689   4.817   6.043   8.915  1.4349 -0.0170  0.0842
 5018TIP3    H236690   4.749   5.923   8.977 -0.5000  0.3915 -1.1701
 5019TIP3   OH236691   4.153   2.545   1.739  0.2267 -0.4080 -0.0510
 5019TIP3    H136692   4.192   2.631   1.754  0.6454 -0.3238 -1.5135
 5019TIP3    H236693   4.059   2.563   1.734  0.2564 -0.1354  0.2848
 5020TIP3   OH236694   1.738   4.666   6.618 -0.2651 -0.4920 -0.1100
 5020TIP3    H136695   1.753   4.606   6.546 -1.6450 -0.1285 -0.7275
 5020TIP3    H236696   1.798   4.739   6.601 -0.0428 -0.7549 -0.4626
 5021TIP3   OH236697   4.544   3.663   1.619  0.1110 -0.6043 -0.2482
 5021TIP3    H136698   4.462   3.662   1.571  1.2613  0.3083 -2.3887
 5021TIP3    H236699   4.566   3.571   1.632 -0.3454 -0.8727 -1.3204
 5022TIP3   OH236700   2.067   6.275   7.372  0.9481  0.0954  0.1665
 5022TIP3    H136701   2.016   6.281   7.453 -1.7119 -0.4629 -1.3356
 5022TIP3    H236702   2.067   6.181   7.351  4.5365 -0.2824  1.1378
 5023TIP3   OH236703   3.428   3.613   1.311  0.1954  0.7455 -0.7100
 5023TIP3    H136704   3.443   3.534   1.259  0.0160  0.6846 -0.6695
 5023TIP3    H236705   3.399   3.581   1.397  1.9425  0.7991 -0.0693
 5024TIP3   OH236706   3.190   5.815   8.764 -0.0932 -0.0300  0.2262
 5024TIP3    H136707   3.098   5.831   8.743 -0.2827 -0.5154  0.6601
 5024TIP3    H236708   3.225   5.768   8.689  0.4339  2.2308 -1.0125
 5025TIP3   OH236709   2.654   0.002   6.675 -0.1470 -0.4648 -0.0934
 5025TIP3    H136710   2.667   0.094   6.652  1.5429 -1.0831 -1.9128
 5025TIP3    H236711   2.594  -0.031   6.608  1.1254 -1.2054 -0.9131
 5026TIP3   OH236712   0.467   0.171   1.594  0.2832 -0.0847  0.4985
 5026TIP3    H136713   0.425   0.234   1.535  1.6435 -0.5319 -1.0061
 5026TIP3    H236714   0.415   0.091   1.585 -0.2665  0.2160  0.9078
 5027TIP3   OH236715   2.443   2.100   0.777 -0.1429  0.2984 -0.1741
 5027TIP3    H136716   2.496   2.139   0.846 -1.0721  0.4583  0.4673
 5027TIP3    H236717   2.450   2.005   0.792  1.0073  0.2543 -0.8979
 5028TIP3   OH236718   1.764   1.796   8.354 -0.2128  0.6505 -0.3964
 5028TIP3    H136719   1.840   1.827   8.404  0.0652  2.6105 -1.9051
 5028TIP3    H236720   1.693   1.854   8.381 -0.6862  0.1204 -0.4883
 5029TIP3   OH236721   6.157   4.304   7.883 -0.0011  0.2162 -0.3660
 5029TIP3    H136722   6.173   4.210   7.874 -0.3622  0.0497  0.5847
 5029TIP3    H236723   6.089   4.311   7.950  0.0231  1.1583 -0.4172
 5030TIP3   OH236724   2.485   6.243   0.935 -0.0948  0.3596  0.4237
 5030TIP3    H136725   2.524   6.166   0.895  0.9262  0.3614  1.3663
 5030TIP3    H236726   2.483   6.308   0.864 -1.2670 -0.5974 -0.4659
 5031TIP3   OH236727   3.688   1.570   7.579 -0.4060 -0.0214 -0.0148
 5031TIP3    H136728   3.738   1.646   7.551  0.9135 -0.9480 -0.2458
 5031TIP3    H236729   3.754   1.505   7.602 -1.4945 -1.3229 -0.4569
 5032TIP3   OH236730   1.181   4.444   0.151  0.5611  0.4110  0.1747
 5032TIP3    H136731   1.211   4.525   0.109  1.9649  0.4681  1.2133
 5032TIP3    H236732   1.254   4.383   0.141 -0.8324 -1.0935 -1.4088
 5033TIP3   OH236733   0.042   2.801   0.715 -0.1930 -0.3564 -0.4439
 5033TIP3    H136734   0.042   2.746   0.794 -1.0011  0.7125  0.3299
 5033TIP3    H236735  -0.033   2.770   0.665  0.2146 -0.9147 -0.7293
 5034TIP3   OH236736   4.261   3.057   7.483 -0.4635 -0.1492 -0.5040
 5034TIP3    H136737   4.221   3.068   7.569  1.0355 -1.5597  0.4422
 5034TIP3    H236738   4.277   3.146   7.452 -0.2042  0.3872  1.0873
 5035TIP3   OH236739   2.170   1.663   7.298  0.0814  0.0974  0.2009
 5035TIP3    H136740   2.091   1.714   7.279  0.0352 -0.4408 -1.1630
 5035TIP3    H236741   2.241   1.727   7.299 -0.1326  0.3438 -0.3731
 5036TIP3   OH236742   2.437   6.194   7.422 -0.2804  0.2576  0.4620
 5036TIP3    H136743   2.529   6.199   7.450 -0.6078  1.2781  1.4422
 5036TIP3    H236744   2.388   6.227   7.497 -1.4559 -0.2396 -0.0687
 5037TIP3   OH236745   3.300   2.272   7.433  0.2680 -0.6111 -0.1153
 5037TIP3    H136746   3.338   2.288   7.347  2.1076 -1.5775  0.4659
 5037TIP3    H236747   3.273   2.359   7.464  1.3507  0.0107 -0.8643
 5038TIP3   OH236748   0.349   0.596   7.684  0.1496  0.3443  0.2524
 5038TIP3    H136749   0.278   0.538   7.656  1.3490 -0.3258 -1.5781
 5038TIP3    H236750   0.311   0.648   7.755 -1.9557 -0.4368 -0.2308
 5039TIP3   OH236751   0.979   3.282   6.271 -0.1054  0.3362  0.4632
 5039TIP3    H136752   0.913   3.347   6.297 -1.9817 -0.6052 -1.6685
 5039TIP3    H236753   0.938   3.198   6.291  0.2605 -0.2797 -1.2446
 5040TIP3   OH236754   1.227   3.288   7.548 -0.8881 -0.1436 -0.7989
 5040TIP3    H136755   1.139   3.265   7.519 -0.7750 -0.4222 -0.9249
 5040TIP3    H236756   1.259   3.350   7.482 -1.4447  0.9058 -0.1023
 5041TIP3   OH236757   5.386   2.154   1.102  0.0643 -0.1171  0.0851
 5041TIP3    H136758   5.409   2.065   1.075 -0.0221 -0.2323  0.3882
 5041TIP3    H236759   5.397   2.154   1.197 -2.0142 -0.4396  0.3711
 5042TIP3   OH236760   2.051   6.253   8.715 -0.0266 -0.0214 -0.1891
 5042TIP3    H136761   1.963   6.250   8.678  0.0901 -0.0127 -0.4770
 5042TIP3    H236762   2.087   6.166   8.700 -0.1023 -0.1213  0.2191
 5043TIP3   OH236763   5.018   6.482   8.907 -0.1087 -0.4166  0.3591
 5043TIP3    H136764   5.080   6.554   8.911  0.3629 -0.8636  1.5096
 5043TIP3    H236765   4.947   6.514   8.851 -1.3257  2.0330  3.0410
 5044TIP3   OH236766   5.996   6.088   6.984 -0.7086  0.2779 -0.4125
 5044TIP3    H136767   5.953   6.005   6.965 -2.9726  1.3641 -0.3149
 5044TIP3    H236768   5.951   6.152   6.929  0.5658  1.5786 -0.0183
 5045TIP3   OH236769   1.134   1.976   8.701  0.3968  0.2357  0.0893
 5045TIP3    H136770   1.088   2.034   8.640  0.8625  0.7241  0.1983
 5045TIP3    H236771   1.077   1.973   8.779  1.2269  2.0280  0.8158
 5046TIP3   OH236772   3.061   0.801   6.448  0.2872 -0.3748  0.9522
 5046TIP3    H136773   3.010   0.795   6.529 -0.7829 -0.4923  0.2824
 5046TIP3    H236774   3.054   0.714   6.409 -0.1466 -0.0068  0.1811
 5047TIP3   OH236775   0.052   0.908   0.950  0.2263  0.7620  0.8091
 5047TIP3    H136776   0.006   0.824   0.951 -0.5022  1.1548  0.6583
 5047TIP3    H236777   0.011   0.958   1.020  1.6387  0.4906  1.8826
 5048TIP3   OH236778   6.211   2.078   8.371 -0.3138  0.1110  0.2280
 5048TIP3    H136779   6.255   2.155   8.407 -1.7038  2.1739 -2.1340
 5048TIP3    H236780   6.243   2.073   8.280 -2.6543 -0.1290 -0.6388
 5049TIP3   OH236781   3.915   1.151   8.715 -0.6990  0.0572  0.7522
 5049TIP3    H136782   3.899   1.077   8.657  1.8088  0.1267 -0.1468
 5049TIP3    H236783   3.942   1.222   8.657 -2.8895  1.6878  1.6157
 5050TIP3   OH236784   3.150   0.141   0.401  0.1671  0.1602  0.0039
 5050TIP3    H136785   3.159   0.087   0.322 -0.4789  1.0507 -0.6943
 5050TIP3    H236786   3.229   0.196   0.401 -0.2931  0.8314 -0.5540
 5051TIP3   OH236787   2.103   3.280   2.175 -0.4382  1.2266  0.2084
 5051TIP3    H136788   2.018   3.321   2.161 -1.5374 -0.7022  0.8713
 5051TIP3    H236789   2.121   3.234   2.093  0.2683  2.0483 -0.1250
 5052TIP3   OH236790   4.664   1.497   1.549 -0.1504 -0.4237  0.0950
 5052TIP3    H136791   4.647   1.445   1.627 -2.6739  0.9497  0.5818
 5052TIP3    H236792   4.648   1.588   1.576  0.2277  0.2193 -1.6678
 5053TIP3   OH236793   3.267   0.156   7.388 -0.3183  0.4464  0.2733
 5053TIP3    H136794   3.295   0.247   7.383 -0.2968  0.4007 -0.9018
 5053TIP3    H236795   3.230   0.138   7.301 -2.4141 -0.0080  1.1938
 5054TIP3   OH236796   4.262   0.577   6.412  0.4231 -0.5114  0.1822
 5054TIP3    H136797   4.266   0.493   6.366  1.3476 -1.2414  1.4933
 5054TIP3    H236798   4.169   0.599   6.415  0.2038 -1.2943 -0.5260
 5055TIP3   OH236799   4.362   4.859   0.263 -0.0386  0.0722  0.1993
 5055TIP3    H136800   4.377   4.769   0.292  0.7228 -0.4482 -1.6992
 5055TIP3    H236801   4.449   4.891   0.239 -0.3204  1.3027  0.7550
 5056TIP3   OH236802   4.815   2.925   1.386  0.3059 -0.0099  0.2899
 5056TIP3    H136803   4.824   2.973   1.468  1.1847  0.7989 -0.2716
 5056TIP3    H236804   4.776   2.841   1.412  0.5840  0.2298  1.5323
 5057TIP3   OH236805   6.459   0.954   7.593 -0.0342 -0.0758 -0.0275
 5057TIP3    H136806   6.526   0.887   7.606  0.6453  0.6612  0.3856
 5057TIP3    H236807   6.427   0.939   7.504 -0.2083 -1.2125  0.2187
 5058TIP3   OH236808   3.948   1.489   1.367 -0.1196  0.1451 -0.2167
 5058TIP3    H136809   3.902   1.418   1.412 -0.5168  0.1341 -0.6454
 5058TIP3    H236810   3.883   1.529   1.310  0.1185  0.8239 -0.0192
 5059TIP3   OH236811   1.663   2.900   1.574  0.6346  0.0222  0.4186
 5059TIP3    H136812   1.632   2.989   1.558  1.8352  0.1674 -1.3865
 5059TIP3    H236813   1.698   2.902   1.663 -0.3141  1.0358  0.7925
 5060TIP3   OH236814   0.865   3.944   7.236 -0.2765 -0.6518 -0.3570
 5060TIP3    H136815   0.807   4.015   7.263  1.1347  0.1957  0.6003
 5060TIP3    H236816   0.841   3.928   7.144 -0.8659  0.8337 -0.5020
 5061TIP3   OH236817   5.182   0.824   7.116 -0.0664  0.1600 -0.0948
 5061TIP3    H136818   5.229   0.907   7.126 -0.0144  0.3169 -1.4240
 5061TIP3    H236819   5.250   0.761   7.091 -0.1568 -0.2211  0.5941
 5062TIP3   OH236820   6.410   5.856   1.972  0.1090  0.0043  0.5033
 5062TIP3    H136821   6.382   5.799   1.901 -1.0443  0.8531  0.2507
 5062TIP3    H236822   6.491   5.896   1.940  1.2542 -1.8697  0.9185
 5063TIP3   OH236823   5.910   5.158   1.264 -0.3600  1.0685 -0.5661
 5063TIP3    H136824   5.866   5.202   1.337 -0.8126 -1.0215  0.5117
 5063TIP3    H236825   5.839   5.134   1.204 -0.7253 -1.5075  0.7409
 5064TIP3   OH236826   5.252   2.281   2.471  0.6849  0.1320  0.3271
 5064TIP3    H136827   5.248   2.328   2.553  0.3926  0.7555 -0.0372
 5064TIP3    H236828   5.249   2.188   2.496  1.1938  0.2989  1.0398
 5065TIP3   OH236829   3.142   0.743   8.407 -0.2458  0.4128 -0.3161
 5065TIP3    H136830   3.067   0.700   8.449 -0.9439  1.0333 -0.9094
 5065TIP3    H236831   3.137   0.834   8.436 -0.4840  0.7495 -1.3729
 5066TIP3   OH236832   2.751   2.273   8.666 -0.3545  0.1663  0.6574
 5066TIP3    H136833   2.740   2.368   8.660  1.1907  0.4117  1.2553
 5066TIP3    H236834   2.763   2.256   8.760  2.2724 -0.2073  0.3371
 5067TIP3   OH236835   2.878   5.125   8.968 -0.4098  0.1420 -0.8560
 5067TIP3    H136836   2.789   5.151   8.941 -0.3594  0.9359 -0.2727
 5067TIP3    H236837   2.875   5.123   9.063  0.4617  1.1485 -0.7907
 5068TIP3   OH236838   0.938   6.016   6.265  0.3390 -0.5400 -0.1058
 5068TIP3    H136839   0.972   5.927   6.272  0.5788 -0.5681 -1.3983
 5068TIP3    H236840   0.901   6.021   6.177 -1.5598 -0.0001  0.6728
 5069TIP3   OH236841   4.734   4.237   8.826 -0.4296 -0.0860  0.1811
 5069TIP3    H136842   4.709   4.260   8.916 -0.7904 -1.2136  0.3789
 5069TIP3    H236843   4.777   4.152   8.834 -0.8916 -0.4172 -0.7774
 5070TIP3   OH236844   0.053   0.549   1.731 -0.3466 -0.9811 -0.0256
 5070TIP3    H136845   0.148   0.559   1.730 -0.4280  0.6381  1.7579
 5070TIP3    H236846   0.035   0.480   1.668  1.8105  0.1661 -2.0665
 5071TIP3   OH236847   4.095   1.275   1.090  0.1784 -0.4146  0.6301
 5071TIP3    H136848   4.037   1.265   1.166  1.2495 -0.4690  1.4816
 5071TIP3    H236849   4.039   1.261   1.014 -0.7504 -1.2679  1.4456
 5072TIP3   OH236850   4.533   2.933   1.038 -0.2854  0.0559 -0.4876
 5072TIP3    H136851   4.628   2.938   1.038 -0.2648 -0.2318  0.1551
 5072TIP3    H236852   4.513   2.843   1.065 -0.7374  0.1070 -0.6378
 5073TIP3   OH236853   1.695   1.104   0.891  0.1482  0.3872 -0.1113
 5073TIP3    H136854   1.718   1.032   0.832 -0.5796  0.5361 -0.5961
 5073TIP3    H236855   1.603   1.123   0.870  0.4795  1.8194 -0.3860
 5074TIP3   OH236856   4.164   0.179   8.723  0.1270  0.4715  0.4636
 5074TIP3    H136857   4.146   0.177   8.629 -0.2458  0.2561  0.5399
 5074TIP3    H236858   4.256   0.203   8.729  0.2091  0.2682  0.0363
 5075TIP3   OH236859   0.915   3.456   8.787 -0.2010 -0.1622  0.2160
 5075TIP3    H136860   0.944   3.476   8.876  1.2131 -0.4742 -0.1410
 5075TIP3    H236861   0.903   3.542   8.746 -1.0726 -0.0133  0.7531
 5076TIP3   OH236862   4.105   3.129   0.166  0.1816 -0.3509  0.1265
 5076TIP3    H136863   4.039   3.158   0.230 -0.7335  2.5368 -1.9197
 5076TIP3    H236864   4.186   3.128   0.216 -0.8607 -0.7820  1.9348
 5077TIP3   OH236865   5.953   1.023   2.403  0.6675 -0.2401  0.3891
 5077TIP3    H136866   6.020   1.078   2.444  2.1723 -2.1789  0.7191
 5077TIP3    H236867   5.975   1.025   2.309  0.3062  0.2531  0.3150
 5078TIP3   OH236868   2.174   6.400   0.020 -0.3013 -0.7637 -0.0259
 5078TIP3    H136869   2.181   6.495   0.029 -2.3987 -0.6617  1.1342
 5078TIP3    H236870   2.170   6.386  -0.075 -1.7551  0.4964 -0.1892
 5079TIP3   OH236871   3.943   6.120   1.732  0.3027 -1.2061  0.0743
 5079TIP3    H136872   3.868   6.169   1.766  0.0588 -1.9572  0.6573
 5079TIP3    H236873   3.962   6.056   1.801  1.6696 -0.8342  0.0639
 5080TIP3   OH236874   2.211   4.349   8.778  0.9289 -0.5709 -0.2474
 5080TIP3    H136875   2.190   4.442   8.776 -0.7580 -0.8851  0.9365
 5080TIP3    H236876   2.152   4.309   8.714  2.0765 -0.7841 -1.2110
 5081TIP3   OH236877   4.449   4.437   2.257 -0.0516 -0.4559 -0.4027
 5081TIP3    H136878   4.487   4.388   2.330 -1.7463  0.1200  0.9168
 5081TIP3    H236879   4.356   4.416   2.259 -0.6703  1.9984 -0.4069
 5082TIP3   OH236880   0.004   2.728   0.984  0.1001 -0.0933  0.1002
 5082TIP3    H136881   0.081   2.693   1.030  0.5240 -0.0522 -0.5565
 5082TIP3    H236882  -0.070   2.702   1.038  0.6928  1.8167  1.9917
 5083TIP3   OH236883   0.752   6.219   1.043  0.0678 -0.5290  0.1406
 5083TIP3    H136884   0.699   6.148   1.077  0.7036  0.2551  2.9922
 5083TIP3    H236885   0.701   6.298   1.058 -0.1078 -0.1919 -1.8838
 5084TIP3   OH236886   5.626   1.920   1.452 -0.0164 -0.1005  0.1133
 5084TIP3    H136887   5.645   1.836   1.411  0.5442 -0.3115  0.7766
 5084TIP3    H236888   5.710   1.949   1.487 -0.0788  1.0380 -0.6410
 5085TIP3   OH236889   6.697   0.077   0.161 -0.7070 -0.2971  0.6370
 5085TIP3    H136890   6.670  -0.004   0.205 -1.2049  0.6352  2.1136
 5085TIP3    H236891   6.706   0.141   0.232  0.5190  0.7343 -0.4058
 5086TIP3   OH236892   2.012   5.086   7.920  0.0272  0.4012  0.8702
 5086TIP3    H136893   1.997   5.092   7.825 -0.6768 -0.6476  0.8954
 5086TIP3    H236894   2.093   5.035   7.928 -0.1315  0.1389  0.8304
 5087TIP3   OH236895   0.657   4.991   8.062 -0.1159 -0.5807 -0.7600
 5087TIP3    H136896   0.698   4.997   8.148  0.7984 -0.6484 -1.1880
 5087TIP3    H236897   0.657   5.080   8.028 -1.6035 -0.3296 -0.1963
 5088TIP3   OH236898   3.273   6.226   8.589 -0.2277  0.2346 -0.5868
 5088TIP3    H136899   3.355   6.180   8.573 -1.4345 -1.5765 -1.8400
 5088TIP3    H236900   3.239   6.248   8.502 -2.2341 -1.2251 -0.2420
 5089TIP3   OH236901   5.120   1.306   1.142 -0.0407 -0.5322  0.5513
 5089TIP3    H136902   5.029   1.289   1.115 -0.1494 -0.2244  0.7156
 5089TIP3    H236903   5.156   1.358   1.070 -0.0182 -0.5821  0.5262
 5090TIP3   OH236904   4.382   1.196   0.472 -0.3673  0.1533 -0.1125
 5090TIP3    H136905   4.308   1.256   0.478  0.3223  1.0460 -0.4002
 5090TIP3    H236906   4.365   1.145   0.393 -1.1640 -0.3493  0.3559
 5091TIP3   OH236907   6.003   5.896   1.169  0.3189  0.3349  0.0674
 5091TIP3    H136908   6.066   5.836   1.209  0.2514 -0.7334 -1.3349
 5091TIP3    H236909   6.038   5.912   1.081 -1.4660 -0.5292 -0.8660
 5092TIP3   OH236910   1.416   1.518   7.583  0.3000  0.4505 -0.0814
 5092TIP3    H136911   1.408   1.530   7.488 -2.4128 -1.7774 -0.2818
 5092TIP3    H236912   1.421   1.423   7.595  0.5341  0.6771  2.0296
 5093TIP3   OH236913   2.081   2.061   8.692 -0.1096 -0.2331  0.0507
 5093TIP3    H136914   2.144   2.112   8.742  0.9073 -0.0912 -1.3363
 5093TIP3    H236915   2.130   2.026   8.618 -1.8109  0.5319 -1.5190
 5094TIP3   OH236916   0.447   1.092   8.497 -0.1547  0.4214  0.2431
 5094TIP3    H136917   0.525   1.146   8.508  0.6964 -1.2011  3.4332
 5094TIP3    H236918   0.481   1.006   8.469 -1.0525  0.2701 -0.4428
 5095TIP3   OH236919   2.912   5.768   0.778  0.4582  0.2543  0.0946
 5095TIP3    H136920   3.005   5.793   0.781  0.0023  2.0550  2.3927
 5095TIP3    H236921   2.866   5.846   0.809 -1.9572 -0.2427 -1.9584
 5096TIP3   OH236922   5.571   5.543   8.408  0.6395  0.9439 -0.0797
 5096TIP3    H136923   5.648   5.504   8.366 -0.0420  0.7828 -1.2162
 5096TIP3    H236924   5.588   5.535   8.502  2.3487  1.5958 -0.3047
 5097TIP3   OH236925   4.140   5.355   0.449 -0.0526 -0.1826 -0.0193
 5097TIP3    H136926   4.151   5.433   0.395 -0.0774 -1.2550 -1.6349
 5097TIP3    H236927   4.153   5.282   0.389 -2.2403 -1.4546  0.9426
 5098TIP3   OH236928   6.780   4.365   2.667 -0.3922 -0.0398 -0.5212
 5098TIP3    H136929   6.847   4.432   2.651  0.3932 -0.9952 -1.3875
 5098TIP3    H236930   6.748   4.341   2.580 -0.1848 -1.2428 -0.2833
 5099TIP3   OH236931   5.414   4.354   1.733 -0.4053  0.1308  0.0065
 5099TIP3    H136932   5.320   4.334   1.739 -0.2689 -0.3566  0.5908
 5099TIP3    H236933   5.433   4.348   1.639 -0.9736  0.3026 -0.1222
 5100TIP3   OH236934   5.834   6.550   8.430 -0.1470 -0.7409 -0.1793
 5100TIP3    H136935   5.898   6.507   8.373 -0.2326 -0.8079 -0.2252
 5100TIP3    H236936   5.753   6.552   8.379  0.1318  0.4813 -0.6195
 5101TIP3   OH236937   2.775   6.664   6.120  0.0063  0.4635  0.6583
 5101TIP3    H136938   2.855   6.622   6.090  0.6412  2.6597 -1.0008
 5101TIP3    H236939   2.705   6.612   6.080  0.7140  0.2843 -0.4123
 5102TIP3   OH236940   2.557   6.338   1.177  0.2568  0.0983  0.0396
 5102TIP3    H136941   2.480   6.354   1.231  0.0783 -1.8343  0.4179
 5102TIP3    H236942   2.523   6.323   1.089  0.1903 -0.7176  0.1991
 5103TIP3   OH236943   0.599   3.521   8.131 -0.0819 -0.3056  0.0243
 5103TIP3    H136944   0.503   3.524   8.131 -0.0877 -0.3331 -0.6837
 5103TIP3    H236945   0.622   3.509   8.039  0.5974 -0.5523  0.2276
 5104TIP3   OH236946   5.037   2.186   8.958  0.5252  0.0524  0.1553
 5104TIP3    H136947   5.115   2.214   9.006  0.6344  2.6907 -1.3657
 5104TIP3    H236948   4.973   2.256   8.974 -0.4104 -0.4492 -1.2056
 5105TIP3   OH236949   5.141   2.809   1.790 -0.4489  0.1449  0.3253
 5105TIP3    H136950   5.097   2.748   1.730  0.8912 -1.0046  0.4536
 5105TIP3    H236951   5.077   2.823   1.861 -0.5841 -1.6034  0.5929
 5106TIP3   OH236952   5.894   6.772   7.735 -0.6189 -0.3174  0.1550
 5106TIP3    H136953   5.947   6.756   7.657 -1.0626 -1.1742  0.0084
 5106TIP3    H236954   5.912   6.862   7.760  0.4194 -0.4082 -0.2578
 5107TIP3   OH236955   0.394   2.291   1.184  0.4314  0.1846  0.3634
 5107TIP3    H136956   0.369   2.301   1.093 -0.9277  0.7298  0.7748
 5107TIP3    H236957   0.366   2.372   1.226  0.0691 -0.4839  1.4639
 5108TIP3   OH236958   0.235   5.965   8.857 -0.1946 -0.6213  0.2560
 5108TIP3    H136959   0.200   6.011   8.780 -2.4251 -0.6557  1.1600
 5108TIP3    H236960   0.291   5.896   8.820 -1.1450 -0.5919 -1.3514
 5109TIP3   OH236961   3.734   3.703   6.690 -0.0677  0.1396 -0.2253
 5109TIP3    H136962   3.809   3.651   6.718  0.8663  1.5542  0.0205
 5109TIP3    H236963   3.771   3.768   6.630 -1.0839  0.9113 -0.0412
 5110TIP3   OH236964   1.140   0.759   0.462 -0.0115  0.1586 -0.1290
 5110TIP3    H136965   1.194   0.819   0.513 -0.8115  0.8232 -0.0540
 5110TIP3    H236966   1.079   0.815   0.415 -0.9578 -0.6100  0.1486
 5111TIP3   OH236967   2.901   3.191   1.573 -0.0246  0.0330  0.2061
 5111TIP3    H136968   2.857   3.269   1.538  0.3377  0.7931  1.3888
 5111TIP3    H236969   2.994   3.206   1.555  0.3511  1.1505  2.6928
 5112TIP3   OH236970   0.743   6.008   0.564  0.1160  0.3058 -0.7856
 5112TIP3    H136971   0.681   5.985   0.494 -0.8570  1.3251 -0.3035
 5112TIP3    H236972   0.695   6.072   0.617  0.4448 -1.1460  1.3994
 5113TIP3   OH236973   3.835   4.057   1.584  0.0909 -0.3545 -0.2479
 5113TIP3    H136974   3.835   3.974   1.632  3.1176  0.4228  1.3509
 5113TIP3    H236975   3.789   4.118   1.641 -0.8210 -0.5411 -0.7538
 5114TIP3   OH236976   0.199   0.604   2.303 -0.1349  0.2053  0.2827
 5114TIP3    H136977   0.152   0.589   2.384  1.2574 -0.8566  0.9227
 5114TIP3    H236978   0.256   0.528   2.292 -0.2384  0.3407 -1.6622
 5115TIP3   OH236979   5.959   2.775   1.847 -0.3547  0.6533 -0.6421
 5115TIP3    H136980   5.940   2.828   1.770 -0.8587 -1.6967 -2.2799
 5115TIP3    H236981   5.992   2.692   1.810 -0.5832 -0.5437  1.6794
 5116TIP3   OH236982   4.433   5.296   1.495 -0.3130  0.3160  0.0496
 5116TIP3    H136983   4.503   5.361   1.492  0.5683 -0.6111 -0.1591
 5116TIP3    H236984   4.467   5.227   1.553 -1.7669  0.6365  1.3668
 5117TIP3   OH236985   1.299   3.737   0.968  0.0614 -0.0320  0.3266
 5117TIP3    H136986   1.333   3.825   0.979  0.4912 -0.1826  0.2160
 5117TIP3    H236987   1.255   3.718   1.051  2.3459 -0.7461  1.4615
 5118TIP3   OH236988   1.257   2.586   2.118 -0.1493  0.9267 -0.4296
 5118TIP3    H136989   1.223   2.511   2.166 -2.2250  1.1873 -1.3773
 5118TIP3    H236990   1.288   2.646   2.186  0.3050 -0.2176  0.3936
 5119TIP3   OH236991   1.612   0.265   8.312  1.1702  0.5412  0.0177
 5119TIP3    H136992   1.664   0.240   8.236 -0.9405 -0.2169 -1.2775
 5119TIP3    H236993   1.566   0.345   8.284 -2.7936 -1.8967 -1.2793
 5120TIP3   OH236994   5.812   4.113   1.643  0.2000 -0.1518  0.0994
 5120TIP3    H136995   5.886   4.132   1.585  0.8990 -0.3790  0.8916
 5120TIP3    H236996   5.814   4.018   1.653 -1.1698 -0.3354 -1.1109
 5121TIP3   OH236997   4.408   2.010   2.030 -0.2313  0.4794 -0.6530
 5121TIP3    H136998   4.356   2.017   2.111 -0.3956  3.8225 -0.9453
 5121TIP3    H236999   4.493   2.047   2.053  1.1209 -2.1291 -1.0498
 5122TIP3   OH237000   1.837   2.555   8.442  0.1790  0.2700  0.2958
 5122TIP3    H137001   1.873   2.524   8.359 -3.0737 -0.0824 -1.1288
 5122TIP3    H237002   1.899   2.621   8.472  2.9404 -1.6082 -0.8716
 5123TIP3   OH237003   6.549   0.731   8.934  0.0602 -0.1530 -0.1159
 5123TIP3    H137004   6.544   0.727   8.838  0.7672  4.3247 -0.5590
 5123TIP3    H237005   6.633   0.690   8.955  0.0472 -0.8996 -1.4148
 5124TIP3   OH237006   4.361   4.805   1.306  0.3895 -0.5040 -0.3464
 5124TIP3    H137007   4.431   4.770   1.361 -0.9269 -3.7684 -0.5091
 5124TIP3    H237008   4.284   4.806   1.363 -0.1779 -0.2741 -1.0945
 5125TIP3   OH237009   1.519   6.140   7.373 -0.2963  0.6311 -0.3445
 5125TIP3    H137010   1.463   6.064   7.354  0.9321 -0.2017 -0.7555
 5125TIP3    H237011   1.608   6.107   7.364  0.2907  1.7601  0.9615
 5126TIP3   OH237012   3.328   0.970   2.592 -0.5299 -0.4001 -0.3544
 5126TIP3    H137013   3.301   1.008   2.675  0.4427 -0.9838  0.2529
 5126TIP3    H237014   3.249   0.928   2.557 -0.6478 -1.2575  0.9081
 5127TIP3   OH237015   4.014   6.319   2.196 -0.1836 -0.7919  0.4269
 5127TIP3    H137016   3.946   6.375   2.232  0.8535 -0.1790  1.5161
 5127TIP3    H237017   4.080   6.380   2.163  0.1478 -1.3725 -0.0015
 5128TIP3   OH237018   1.105   2.446   8.158  0.4124  0.2397 -0.1142
 5128TIP3    H137019   1.048   2.434   8.234 -2.4066  0.9443 -1.9583
 5128TIP3    H237020   1.180   2.494   8.192  0.1051 -0.9807  2.5253
 5129TIP3   OH237021   1.744   2.873   8.237  0.1208  0.1609  0.2971
 5129TIP3    H137022   1.705   2.868   8.149 -0.9480 -1.1036  0.8184
 5129TIP3    H237023   1.831   2.835   8.226 -0.1864 -0.4435 -0.1308
 5130TIP3   OH237024   0.536   1.946   0.912 -0.3540 -0.2600 -0.1659
 5130TIP3    H137025   0.514   1.853   0.923  1.5622 -0.6793  0.5750
 5130TIP3    H237026   0.584   1.950   0.830 -2.5635  0.5634 -1.5218
 5131TIP3   OH237027   1.102   2.965   7.408  0.2335  0.4164 -0.0177
 5131TIP3    H137028   1.093   2.875   7.436  0.4731  0.0877 -0.9498
 5131TIP3    H237029   1.128   2.959   7.316  0.7666  1.4192  0.0504
 5132TIP3   OH237030   0.371   5.121   2.347 -0.5636  1.3528 -0.0283
 5132TIP3    H137031   0.337   5.085   2.429 -1.5638 -0.3285 -1.1256
 5132TIP3    H237032   0.295   5.163   2.306 -0.1394  1.9109 -0.2553
 5133TIP3   OH237033   6.352   6.380   8.031  0.5200 -0.0552 -0.5660
 5133TIP3    H137034   6.282   6.398   8.093 -1.3244  1.0059 -2.7958
 5133TIP3    H237035   6.386   6.466   8.007  0.5666 -0.3710 -1.6860
 5134TIP3   OH237036   3.304   1.455   1.710 -0.2450 -0.2225  0.3455
 5134TIP3    H137037   3.394   1.428   1.727 -0.1538 -1.8304 -2.1675
 5134TIP3    H237038   3.259   1.441   1.793  1.6701  0.0726  1.4888
 5135TIP3   OH237039   2.222   3.037   8.673 -0.8237  0.0928 -0.8920
 5135TIP3    H137040   2.306   3.082   8.666 -1.2175  0.6773 -2.0112
 5135TIP3    H237041   2.223   2.998   8.761  0.3555  0.5989 -0.6654
 5136TIP3   OH237042   6.746   3.658   6.782 -0.0660 -0.2183 -0.0271
 5136TIP3    H137043   6.671   3.683   6.729 -1.6900 -1.0339  1.7663
 5136TIP3    H237044   6.791   3.591   6.731 -0.0969  0.8275 -1.4597
 5137TIP3   OH237045   6.658   5.835   8.323  0.0503 -0.0128 -0.2326
 5137TIP3    H137046   6.704   5.919   8.323 -0.2539  0.1648  0.5388
 5137TIP3    H237047   6.629   5.824   8.233 -0.1816  0.8707 -0.2807
 5138TIP3   OH237048   2.940   5.994   0.480  0.3254  0.2232 -0.2941
 5138TIP3    H137049   2.978   5.980   0.567  1.4265 -1.2735 -0.9859
 5138TIP3    H237050   2.919   6.088   0.478  0.4109  0.3119  1.5218
 5139TIP3   OH237051   4.005   5.526   8.333 -0.2982 -1.2808 -0.0214
 5139TIP3    H137052   3.933   5.588   8.323 -0.5815 -1.2672  1.7705
 5139TIP3    H237053   4.062   5.543   8.258 -1.0191  0.2447 -0.2626
 5140TIP3   OH237054   5.433   0.459   1.275  0.9575  0.1444 -0.3913
 5140TIP3    H137055   5.388   0.542   1.263  1.1742  0.2587 -0.3950
 5140TIP3    H237056   5.515   0.468   1.228  1.6372  0.4615  0.8168
 5141TIP3   OH237057   0.765   4.017   1.202  0.7630  0.6311 -0.1119
 5141TIP3    H137058   0.671   4.016   1.187  0.8462  0.3655 -0.6529
 5141TIP3    H237059   0.797   4.095   1.156  0.6888  1.2413  0.8572
 5142TIP3   OH237060   2.170   3.156   2.429  0.3505  0.0580 -0.5187
 5142TIP3    H137061   2.170   3.190   2.340 -0.5456 -0.4258 -0.7151
 5142TIP3    H237062   2.177   3.234   2.485 -1.5663  0.5880 -0.9558
 5143TIP3   OH237063   6.460   0.248   6.981  0.0467 -0.1080  0.4567
 5143TIP3    H137064   6.367   0.227   6.973 -0.3355  1.5844  0.0641
 5143TIP3    H237065   6.488   0.268   6.892  0.6806 -0.1922  0.6337
 5144TIP3   OH237066   3.991   2.279   2.347  0.4620  0.0276  0.2393
 5144TIP3    H137067   4.013   2.189   2.371 -0.3620 -0.3731 -0.4520
 5144TIP3    H237068   3.927   2.270   2.277  0.9512  1.1555 -0.3845
 5145TIP3   OH237069   5.045   6.652   7.743 -0.3125  0.0695  0.5949
 5145TIP3    H137070   4.978   6.686   7.801  0.2540  0.5279  0.9966
 5145TIP3    H237071   5.112   6.720   7.741 -0.0893 -0.1661 -0.1915
 5146TIP3   OH237072   2.546   6.180   8.584  0.1101 -0.2246 -0.3254
 5146TIP3    H137073   2.599   6.227   8.519  0.4330 -0.6996 -0.4081
 5146TIP3    H237074   2.467   6.154   8.536 -1.4326  2.6578  0.4044
 5147TIP3   OH237075   1.106   3.885   7.093  0.2334  1.0111 -0.1383
 5147TIP3    H137076   1.128   3.948   7.025 -0.1457 -1.0513 -2.2920
 5147TIP3    H237077   1.036   3.927   7.143 -0.0351  2.2704 -1.5123
 5148TIP3   OH237078   4.884   1.612   1.389  0.0218  0.4936 -0.4264
 5148TIP3    H137079   4.932   1.687   1.425  0.1350  0.3112 -0.1927
 5148TIP3    H237080   4.800   1.614   1.435 -1.1439  2.1754 -2.4683
 5149TIP3   OH237081   5.027   5.286   0.434  0.3392 -0.4404 -0.0626
 5149TIP3    H137082   5.015   5.378   0.457 -1.9483 -0.8828  0.7156
 5149TIP3    H237083   4.971   5.238   0.495  1.4086 -2.3626 -0.5090
 5150TIP3   OH237084   3.049   2.051   0.101 -0.1522 -0.0312  0.1237
 5150TIP3    H137085   2.992   1.974   0.101  0.8347 -0.7924  1.1240
 5150TIP3    H237086   3.138   2.015   0.092  0.1695  1.1972 -2.8130
 5151TIP3   OH237087   6.723   4.711   8.929  0.0149  0.2374  0.0724
 5151TIP3    H137088   6.797   4.670   8.974 -0.0190 -1.1005 -1.0205
 5151TIP3    H237089   6.749   4.711   8.836 -1.3545 -0.2985 -0.3301
 5152TIP3   OH237090   0.863   1.837   8.950 -0.4608  0.5317 -0.4443
 5152TIP3    H137091   0.913   1.759   8.927 -0.8330 -0.2591  1.2918
 5152TIP3    H237092   0.929   1.906   8.960 -0.2556  0.9783 -3.6988
 5153TIP3   OH237093   2.960   2.487   8.853 -0.0870  0.2170  0.1511
 5153TIP3    H137094   3.034   2.527   8.808 -0.4890  2.0088  0.9858
 5153TIP3    H237095   2.997   2.453   8.934  0.2951 -1.3910 -0.6513
 5154TIP3   OH237096   2.600   4.347   7.956  0.1841  0.1761  0.1614
 5154TIP3    H137097   2.587   4.404   8.031 -2.2239 -0.0989  0.0250
 5154TIP3    H237098   2.577   4.259   7.988 -0.0272 -0.0807 -0.6657
 5155TIP3   OH237099   4.164   5.932   2.240  0.1367 -0.3296  0.0172
 5155TIP3    H137100   4.113   6.011   2.260 -0.1966  0.3158 -2.9330
 5155TIP3    H237101   4.098   5.862   2.236 -0.0462 -0.1406 -0.4149
 5156TIP3   OH237102   2.270   2.426   0.279  0.1074 -0.2527  0.0285
 5156TIP3    H137103   2.241   2.488   0.212  0.6880 -0.7627 -0.7006
 5156TIP3    H237104   2.348   2.385   0.243 -1.0210 -2.4268 -0.1128
 5157TIP3   OH237105   3.526   4.297   2.026 -0.1068  0.0451  0.5291
 5157TIP3    H137106   3.551   4.231   2.090 -0.5948  0.4985  1.1964
 5157TIP3    H237107   3.602   4.356   2.021  0.1364 -0.2829  0.2910
 5158TIP3   OH237108   1.918   4.769   0.947 -0.6975 -0.0096  0.1680
 5158TIP3    H137109   1.926   4.727   0.862 -0.9905  0.8940 -0.3124
 5158TIP3    H237110   1.868   4.849   0.931  0.5221  0.9464  0.9208
 5159TIP3   OH237111   4.608   1.898   6.691 -0.3808 -0.2750 -0.2349
 5159TIP3    H137112   4.672   1.872   6.625  1.3311  3.1408 -0.1173
 5159TIP3    H237113   4.546   1.954   6.645 -0.7885 -0.0883  0.5145
 5160TIP3   OH237114   6.245   6.679   7.697  0.1300  0.1312  0.2569
 5160TIP3    H137115   6.193   6.615   7.745 -2.6995  0.7494 -1.7141
 5160TIP3    H237116   6.238   6.759   7.749  0.4866 -0.1983  0.8189
 5161TIP3   OH237117   4.418   3.430   1.045 -0.1411 -0.1700 -0.7179
 5161TIP3    H137118   4.478   3.491   1.004  1.4739  0.8239  2.7638
 5161TIP3    H237119   4.468   3.349   1.054 -0.3396 -0.2593 -0.4022
 5162TIP3   OH237120   1.264   4.805   1.789 -0.1586 -0.0780 -0.5858
 5162TIP3    H137121   1.352   4.781   1.817  0.2157  1.1534 -0.6115
 5162TIP3    H237122   1.276   4.887   1.741 -1.3686  0.3342 -0.2267
 5163TIP3   OH237123   3.712   3.606   7.282  0.2029 -0.1048  0.1389
 5163TIP3    H137124   3.719   3.593   7.187 -1.0780  0.2991 -0.0386
 5163TIP3    H237125   3.721   3.519   7.320  0.5706 -0.2888 -0.3616
 5164TIP3   OH237126   5.267   2.524   0.484 -0.1417 -0.0220  0.3200
 5164TIP3    H137127   5.215   2.599   0.456  0.0877 -0.0489 -0.1875
 5164TIP3    H237128   5.247   2.514   0.577 -0.0516  0.7629  0.4296
 5165TIP3   OH237129   0.765   3.357   6.433  0.5904  0.1608 -0.4049
 5165TIP3    H137130   0.744   3.450   6.440 -1.9332 -0.3780  0.0119
 5165TIP3    H237131   0.711   3.315   6.500  1.9343 -1.5946 -0.3576
 5166TIP3   OH237132   1.628   2.023   7.839 -0.2213 -0.1732  0.2897
 5166TIP3    H137133   1.613   2.033   7.933 -0.0150  1.2736  0.1825
 5166TIP3    H237134   1.722   2.038   7.827 -0.2303 -0.4315 -0.1387
 5167TIP3   OH237135   3.134   2.851   7.706  0.1454 -0.5189  0.0341
 5167TIP3    H137136   3.067   2.877   7.769 -0.8982 -0.8845 -0.8954
 5167TIP3    H237137   3.088   2.794   7.644  0.6471  1.3714 -2.2036
 5168TIP3   OH237138   5.043   6.205   0.500  0.1066  0.5262 -0.0033
 5168TIP3    H137139   5.068   6.253   0.579 -1.3609 -0.0692  0.8499
 5168TIP3    H237140   5.009   6.273   0.441  0.5508  0.8771  0.1393
 5169TIP3   OH237141   1.908   5.980   0.547 -0.1768 -0.3911 -0.3572
 5169TIP3    H137142   1.876   5.988   0.457 -0.3004 -1.2546 -0.3941
 5169TIP3    H237143   2.003   5.990   0.540 -0.1737 -0.5806 -0.5960
 5170TIP3   OH237144   2.345   0.379   7.504 -0.1112  0.5578  0.1202
 5170TIP3    H137145   2.400   0.443   7.458 -1.3857 -0.0232 -2.3803
 5170TIP3    H237146   2.402   0.344   7.573  2.7681 -0.0983 -2.3554
 5171TIP3   OH237147   2.068   0.435   7.830  0.0757  0.2443  0.0063
 5171TIP3    H137148   2.029   0.484   7.758  0.8998 -0.2060 -0.7585
 5171TIP3    H237149   2.162   0.452   7.824  0.5939 -2.4753 -1.1677
 5172TIP3   OH237150   5.554   0.477   7.643 -0.3530  0.4203 -0.9347
 5172TIP3    H137151   5.636   0.432   7.665 -0.2271  1.0328 -0.1066
 5172TIP3    H237152   5.487   0.409   7.649 -0.4913  0.6819  2.4099
 5173TIP3   OH237153   6.365   6.383   6.782  0.2087 -0.2114  0.1826
 5173TIP3    H137154   6.381   6.470   6.744 -1.8366 -0.8897 -2.4386
 5173TIP3    H237155   6.438   6.330   6.751  0.1968 -0.0106 -0.1943
 5174TIP3   OH237156   1.865   0.978   8.410 -0.5268 -0.2998  0.2606
 5174TIP3    H137157   1.890   0.914   8.477  1.1427 -0.7803 -0.7578
 5174TIP3    H237158   1.924   0.960   8.336 -1.7422  0.7610 -1.0296
 5175TIP3   OH237159   5.653   6.318   1.420 -0.0264 -0.2147 -0.3321
 5175TIP3    H137160   5.676   6.403   1.459  0.1266 -0.1595 -0.5400
 5175TIP3    H237161   5.635   6.262   1.495  1.2769 -0.4035 -0.1325
 5176TIP3   OH237162   2.102   6.114   1.357  0.4924  0.5492 -0.0882
 5176TIP3    H137163   2.078   6.207   1.360  0.7069  0.5791  0.9937
 5176TIP3    H237164   2.059   6.081   1.277  0.2764  1.5318 -0.3935
 5177TIP3   OH237165   2.828   3.936   0.419 -0.6524  0.5153 -0.7477
 5177TIP3    H137166   2.754   3.901   0.469 -1.5445  0.0760 -2.3019
 5177TIP3    H237167   2.788   3.984   0.347  0.5891  3.0900  0.1767
 5178TIP3   OH237168   4.419   4.936   2.801  0.3069 -0.3153  0.4680
 5178TIP3    H137169   4.415   5.032   2.807 -0.7170 -0.3727  1.0247
 5178TIP3    H237170   4.401   4.906   2.891  0.4363 -1.0358  0.2595
 5179TIP3   OH237171   3.752   5.204   0.889 -0.3068  0.2540  0.4969
 5179TIP3    H137172   3.678   5.204   0.949 -0.0437 -0.3763  0.8331
 5179TIP3    H237173   3.782   5.113   0.887  0.1486  0.4047 -0.0194
 5180TIP3   OH237174   5.127   3.226   7.006 -0.1223 -0.9581  0.8513
 5180TIP3    H137175   5.199   3.188   6.956 -0.2699 -1.3681  0.9482
 5180TIP3    H237176   5.048   3.204   6.957 -0.0942  0.6256  0.0358
 5181TIP3   OH237177   4.432   0.077   6.571  1.1469 -0.0235 -0.2832
 5181TIP3    H137178   4.447   0.169   6.590 -0.7389  0.2591  0.0157
 5181TIP3    H237179   4.364   0.077   6.504 -0.1695 -1.1749  0.9768
 5182TIP3   OH237180   1.781   0.103   0.590  0.6384  0.2027 -0.3567
 5182TIP3    H137181   1.870   0.140   0.591  0.4101  0.7546  0.3263
 5182TIP3    H237182   1.724   0.180   0.585  0.1614 -0.0614  0.7585
 5183TIP3   OH237183   0.156   2.964   6.493 -0.5829  0.6321  0.5575
 5183TIP3    H137184   0.128   2.992   6.580  0.8869 -1.5315  1.8062
 5183TIP3    H237185   0.251   2.958   6.499 -0.6425 -3.2830  0.1192
 5184TIP3   OH237186   0.631   5.805   1.670 -0.1235 -0.2113  0.0634
 5184TIP3    H137187   0.715   5.829   1.632  0.6428 -1.7025  0.7568
 5184TIP3    H237188   0.641   5.823   1.764 -0.4595 -0.6988  0.1964
 5185TIP3   OH237189   0.054   3.114   8.868  0.0465 -0.4486  0.4601
 5185TIP3    H137190   0.017   3.122   8.956 -0.5150 -0.1389  0.2028
 5185TIP3    H237191  -0.021   3.096   8.812  0.2983  0.0426 -0.0532
 5186TIP3   OH237192   4.165   5.974   1.529 -0.0436  0.9354  0.0278
 5186TIP3    H137193   4.134   5.920   1.602 -0.5206  0.7747 -0.2906
 5186TIP3    H237194   4.135   6.063   1.551 -0.2602  0.8731 -0.0123
 5187TIP3   OH237195   3.039   4.373   1.527  0.4679 -0.2210 -0.0141
 5187TIP3    H137196   2.992   4.290   1.518  1.9927 -0.9652 -1.6265
 5187TIP3    H237197   3.081   4.386   1.442 -0.0260  2.4225  0.0583
 5188TIP3   OH237198   1.434   2.429   0.350 -0.0109  0.0849 -0.1168
 5188TIP3    H137199   1.363   2.487   0.378 -1.3686 -1.7675  0.4576
 5188TIP3    H237200   1.414   2.408   0.259  0.2590  0.2075 -0.2051
 5189TIP3   OH237201   2.364   5.149   1.725  0.2685 -0.0669  0.2859
 5189TIP3    H137202   2.294   5.100   1.683 -1.3973  2.2583  0.1102
 5189TIP3    H237203   2.416   5.084   1.771 -2.8781 -1.8016  1.6521
 5190TIP3   OH237204   5.420   1.313   6.346  0.2530  0.2953  0.4428
 5190TIP3    H137205   5.388   1.240   6.400  2.7916 -1.8221 -0.7124
 5190TIP3    H237206   5.350   1.328   6.283  0.2946 -2.3664 -0.3534
 5191TIP3   OH237207   3.292   2.551   1.209  0.4334  0.1115  0.0439
 5191TIP3    H137208   3.386   2.565   1.222  0.5325 -0.7611  0.3498
 5191TIP3    H237209   3.253   2.637   1.223  1.1271  0.3701  0.4702
 5192TIP3   OH237210   1.740   0.255   8.057 -0.2646 -0.1137  0.1451
 5192TIP3    H137211   1.702   0.236   7.971  1.0889 -0.4675 -0.3961
 5192TIP3    H237212   1.804   0.185   8.071  1.4329  1.4015  0.2448
 5193TIP3   OH237213   4.379   6.364   0.245  0.0017  0.8539  0.1409
 5193TIP3    H137214   4.443   6.408   0.302  3.0218 -1.7034 -0.9783
 5193TIP3    H237215   4.329   6.308   0.305  0.5588  1.0122  0.7747
 5194TIP3   OH237216   4.753   0.332   1.579 -0.3806 -0.2121  0.9733
 5194TIP3    H137217   4.791   0.405   1.529 -1.9244 -1.3633 -2.1711
 5194TIP3    H237218   4.692   0.374   1.639 -1.2256  1.1420 -0.7431
 5195TIP3   OH237219   6.146   1.532   8.239 -0.1892  0.3604 -0.4089
 5195TIP3    H137220   6.161   1.534   8.144  1.4655 -1.7936 -0.2629
 5195TIP3    H237221   6.077   1.597   8.253  0.3011  1.5563 -2.9240
 5196TIP3   OH237222   4.116   5.413   1.761 -0.2892 -0.2533  0.2140
 5196TIP3    H137223   4.059   5.336   1.761 -1.7879  0.7740  1.7083
 5196TIP3    H237224   4.194   5.384   1.808 -1.0017 -0.7849  1.1266
 5197TIP3   OH237225   3.982   2.397   0.754  0.4336 -0.3267  0.1875
 5197TIP3    H137226   3.991   2.387   0.659 -0.6650  1.0544 -0.1032
 5197TIP3    H237227   4.046   2.336   0.791  1.3260 -0.4420 -1.4392
 5198TIP3   OH237228   2.680   1.327   2.604 -0.3959 -0.2454 -0.0829
 5198TIP3    H137229   2.766   1.343   2.566 -0.5229 -0.1878 -0.3504
 5198TIP3    H237230   2.636   1.269   2.541 -0.5748 -0.2239  0.0203
 5199TIP3   OH237231   4.049   2.019   2.401 -0.5499  0.0562 -0.2098
 5199TIP3    H137232   4.101   1.942   2.425 -0.0876  0.5101  0.2954
 5199TIP3    H237233   3.964   1.984   2.376 -0.8479 -0.5170  1.4665
 5200TIP3   OH237234   6.785   5.800   8.856  0.1550  0.2635 -0.2882
 5200TIP3    H137235   6.846   5.820   8.786  1.3191 -1.7981  0.0646
 5200TIP3    H237236   6.754   5.711   8.837 -0.1064 -0.0339  1.3742
 5201TIP3   OH237237   0.182   0.700   8.730  0.3856 -0.7609  0.1716
 5201TIP3    H137238   0.130   0.781   8.725  0.3315 -0.8444 -0.8419
 5201TIP3    H237239   0.188   0.681   8.823  0.1987  0.2891  0.4062
 5202TIP3   OH237240   2.253   5.431   7.685 -0.1188 -0.4445  0.3695
 5202TIP3    H137241   2.274   5.525   7.682 -1.9580  0.1539  3.0083
 5202TIP3    H237242   2.189   5.418   7.615 -0.6088  0.4854  0.6380
 5203TIP3   OH237243   5.158   0.977   0.628  0.2561 -0.3529  0.1297
 5203TIP3    H137244   5.100   0.964   0.703 -1.7057  2.5242 -0.7185
 5203TIP3    H237245   5.105   0.953   0.552  0.6370  0.9591 -0.5804
 5204TIP3   OH237246   3.314   2.260   7.960 -0.1152 -0.0397  0.3134
 5204TIP3    H137247   3.350   2.289   7.876 -0.6372 -2.8742 -1.0102
 5204TIP3    H237248   3.237   2.208   7.937 -0.0581 -1.2261  2.5126
 5205TIP3   OH237249   6.545   4.159   0.750  0.4214  0.6384 -0.2610
 5205TIP3    H137250   6.613   4.150   0.683  0.7781  2.1507 -0.1406
 5205TIP3    H237251   6.467   4.122   0.710  1.0577 -0.1812 -0.7933
 5206TIP3   OH237252   4.434   4.127   8.718 -0.2845  0.0424 -0.8797
 5206TIP3    H137253   4.382   4.048   8.702 -0.9560  0.0861  0.8671
 5206TIP3    H237254   4.516   4.094   8.754  0.0773  0.0690 -1.6788
 5207TIP3   OH237255   3.526   1.396   6.710  0.0155  0.2639 -0.4281
 5207TIP3    H137256   3.483   1.439   6.637 -0.1850 -0.3710 -0.6928
 5207TIP3    H237257   3.612   1.370   6.676  0.3043  0.8248 -0.1420
 5208TIP3   OH237258   3.867   2.371   7.691 -0.0180 -0.0386 -0.4202
 5208TIP3    H137259   3.869   2.320   7.610  0.4406 -0.1872 -0.3154
 5208TIP3    H237260   3.779   2.358   7.725 -0.2552  0.1223 -0.9558
 5209TIP3   OH237261   4.103   5.563   7.250 -0.5093 -0.1617 -0.0478
 5209TIP3    H137262   4.090   5.474   7.282  0.4597  0.7435  3.2221
 5209TIP3    H237263   4.015   5.592   7.226 -1.1597 -1.3340  0.7904
 5210TIP3   OH237264   5.123   3.696   0.148  0.5569 -0.1401  0.4034
 5210TIP3    H137265   5.115   3.775   0.096  0.5762 -0.1795  0.3407
 5210TIP3    H237266   5.037   3.655   0.144  1.0735 -1.1721 -1.2457
 5211TIP3   OH237267   6.504   0.100   0.821 -0.2546 -0.0848  0.3777
 5211TIP3    H137268   6.455   0.073   0.743 -1.1279 -1.8123  1.4522
 5211TIP3    H237269   6.438   0.110   0.889  0.6421 -0.1409  1.2889
 5212TIP3   OH237270   2.529   4.946   1.456  0.4368  0.4850  0.4396
 5212TIP3    H137271   2.444   4.910   1.481  0.4494 -0.2165 -0.4561
 5212TIP3    H237272   2.508   5.033   1.421 -0.0058  0.1070 -0.2828
 5213TIP3   OH237273   6.662   1.917   7.305 -0.3151 -0.5643  0.0492
 5213TIP3    H137274   6.661   1.998   7.253 -0.2910 -1.3575 -1.2223
 5213TIP3    H237275   6.571   1.888   7.304 -0.1371 -1.1332 -0.4639
 5214TIP3   OH237276   5.980   2.996   8.897 -0.1556 -0.4155  0.2999
 5214TIP3    H137277   6.060   3.019   8.849 -0.5342  1.0310  0.3032
 5214TIP3    H237278   5.922   2.958   8.831 -0.1980  0.3936 -0.1383
 5215TIP3   OH237279   5.513   6.104   7.611  0.2420  0.3489  0.4683
 5215TIP3    H137280   5.458   6.106   7.689 -0.6100  1.0674 -0.1386
 5215TIP3    H237281   5.474   6.036   7.556  0.1595  0.6276  0.1801
 5216TIP3   OH237282   1.023   4.021   6.247 -0.1640  1.1220 -0.6895
 5216TIP3    H137283   0.941   4.023   6.295  0.2777 -1.1288  0.2943
 5216TIP3    H237284   1.073   4.095   6.282 -1.5877  2.3014 -1.0444
 5217TIP3   OH237285   6.098   0.647   7.596  0.2774  0.1250 -0.0009
 5217TIP3    H137286   6.119   0.712   7.529 -0.9032  2.0956  1.4586
 5217TIP3    H237287   6.170   0.652   7.658  1.0053 -1.1979 -0.6691
 5218TIP3   OH237288   3.329   5.348   1.110  0.4548  0.0209 -0.0580
 5218TIP3    H137289   3.342   5.255   1.088 -0.7040  0.0460 -0.9170
 5218TIP3    H237290   3.417   5.385   1.109  0.6791 -0.3714 -2.9841
 5219TIP3   OH237291   1.482   6.350   8.444 -0.1258 -0.2500 -0.2366
 5219TIP3    H137292   1.397   6.374   8.407 -0.4149  1.2841  1.2995
 5219TIP3    H237293   1.545   6.400   8.392  0.0057 -2.0026 -1.9189
 5220TIP3   OH237294   1.328   5.101   1.047 -0.3919  0.1806 -0.2058
 5220TIP3    H137295   1.345   5.009   1.031  3.9121  0.5662  0.7939
 5220TIP3    H237296   1.331   5.142   0.961 -0.2387 -0.3765 -0.4679
 5221TIP3   OH237297   4.121   0.407   0.564 -0.0474 -0.0106  0.0220
 5221TIP3    H137298   4.076   0.485   0.597  1.7510  1.0065  0.1848
 5221TIP3    H237299   4.147   0.430   0.475  0.0053 -0.6414 -0.1303
 5222TIP3   OH237300   1.442   5.790   7.064  0.4288  0.2186 -0.1475
 5222TIP3    H137301   1.375   5.722   7.071 -0.8124  1.3489 -0.5407
 5222TIP3    H237302   1.410   5.848   6.995  2.7966 -0.2435 -1.7317
 5223TIP3   OH237303   3.876   4.031   7.573 -0.5919  0.3832  0.6972
 5223TIP3    H137304   3.822   3.993   7.504  0.9701 -1.3283  0.3400
 5223TIP3    H237305   3.819   4.036   7.649 -1.1126 -1.9548  0.5100
 5224TIP3   OH237306   6.117   1.927   1.241 -0.1368 -0.3469 -0.4573
 5224TIP3    H137307   6.157   1.989   1.302  0.6127 -1.5764  0.3425
 5224TIP3    H237308   6.154   1.950   1.156  0.7279 -0.1788 -0.0479
 5225TIP3   OH237309   2.431   4.169   1.321  0.3634 -0.0250 -0.2964
 5225TIP3    H137310   2.411   4.208   1.236 -1.9181 -0.7473 -0.1623
 5225TIP3    H237311   2.354   4.117   1.343  1.5387 -1.1502  1.5071
 5226TIP3   OH237312   2.491   3.488   0.402 -0.6280 -0.1851 -0.2837
 5226TIP3    H137313   2.468   3.519   0.490 -1.7646 -0.5520 -0.4279
 5226TIP3    H237314   2.569   3.537   0.378 -1.4495  1.3751  0.1280
 5227TIP3   OH237315   0.861   6.559   0.908  0.1885 -0.3062 -0.5509
 5227TIP3    H137316   0.770   6.533   0.919 -0.6602  2.1728 -0.9994
 5227TIP3    H237317   0.876   6.555   0.813  0.6467 -0.9186 -0.4620
 5228TIP3   OH237318   5.472   5.214   1.065  0.7171 -0.8845 -0.2901
 5228TIP3    H137319   5.393   5.238   1.017 -0.9364 -0.9980  2.1994
 5228TIP3    H237320   5.526   5.167   1.001 -2.1363 -2.6653 -1.5559
 5229TIP3   OH237321   5.705   3.049   7.336 -0.4005  0.0949 -0.0519
 5229TIP3    H137322   5.716   3.136   7.300 -0.4248  0.8206  1.5776
 5229TIP3    H237323   5.612   3.029   7.325 -0.6114  0.7380  0.5063
 5230TIP3   OH237324   2.542   1.024   8.739  0.4891 -0.5275  0.2044
 5230TIP3    H137325   2.529   0.968   8.816  0.6081 -0.7591  0.0565
 5230TIP3    H237326   2.473   0.998   8.679  1.4338 -1.5722 -0.4715
 5231TIP3   OH237327   4.878   3.451   1.185  0.2535 -0.4038  0.2682
 5231TIP3    H137328   4.936   3.382   1.217  0.4399 -0.3132  0.1277
 5231TIP3    H237329   4.930   3.531   1.189 -0.3471 -0.0508  1.5727
 5232TIP3   OH237330   1.914   3.366   7.627  0.2141 -0.2334  0.5978
 5232TIP3    H137331   1.971   3.402   7.695 -0.7492  1.6314  0.4741
 5232TIP3    H237332   1.948   3.402   7.545 -1.8847  2.0805  0.6382
 5233TIP3   OH237333   1.625   3.306   0.459  0.0567  0.1418  0.5449
 5233TIP3    H137334   1.713   3.337   0.439  0.3635 -0.1251  1.4289
 5233TIP3    H237335   1.637   3.216   0.491 -0.6986 -0.4613 -0.7967
 5234TIP3   OH237336   0.281   0.307   7.384 -0.1973 -0.2437 -0.6939
 5234TIP3    H137337   0.300   0.269   7.298  0.5564 -0.4505 -0.4438
 5234TIP3    H237338   0.341   0.380   7.393  2.0092 -2.1072  0.9277
 5235TIP3   OH237339   4.342   4.973   2.115 -0.9010  0.3897 -0.3543
 5235TIP3    H137340   4.387   5.027   2.181 -0.7521  0.0907 -0.2102
 5235TIP3    H237341   4.323   4.891   2.160 -0.9930  0.2654 -0.6186
 5236TIP3   OH237342   5.419   1.646   6.792  0.2171  0.0118 -0.4991
 5236TIP3    H137343   5.506   1.676   6.818 -0.5940  3.0709 -0.9748
 5236TIP3    H237344   5.432   1.603   6.708  1.0430  2.5523 -1.7453
 5237TIP3   OH237345   6.631   2.653   0.603 -0.1123  0.1822  0.0409
 5237TIP3    H137346   6.605   2.576   0.552  1.6955  0.3026 -1.1278
 5237TIP3    H237347   6.551   2.679   0.649 -0.7352 -2.4542  0.5802
 5238TIP3   OH237348   2.706   3.090   1.708  0.2858  0.3915 -0.2901
 5238TIP3    H137349   2.745   3.005   1.729  0.8952  0.1949 -2.1046
 5238TIP3    H237350   2.772   3.136   1.658 -1.2922  0.5510 -2.3450
 5239TIP3   OH237351   3.086   5.090   7.780  0.2594  0.2813  0.5878
 5239TIP3    H137352   3.100   5.110   7.688  1.2093  0.8167  0.8329
 5239TIP3    H237353   3.158   5.030   7.803  0.0004  0.1111  0.9648
 5240TIP3   OH237354   4.886   5.751   1.658 -0.1436  0.1415 -0.9337
 5240TIP3    H137355   4.957   5.749   1.594  0.3956  0.5290 -0.3555
 5240TIP3    H237356   4.845   5.836   1.645  0.5276  0.5955 -0.1769
 5241TIP3   OH237357   4.500   0.713   0.347  0.2133 -0.2782  0.4993
 5241TIP3    H137358   4.546   0.785   0.303 -1.6316  0.6005 -0.0734
 5241TIP3    H237359   4.480   0.747   0.434  0.0908 -0.4139  0.5242
 5242TIP3   OH237360   5.994   5.073   8.953 -0.4866 -0.0309  0.3280
 5242TIP3    H137361   5.957   5.004   8.898 -1.6940 -0.1641  1.2536
 5242TIP3    H237362   6.049   5.026   9.016  0.3060  0.0522 -0.2969
 5243TIP3   OH237363   2.325   6.677   6.810  0.1281 -0.5543  0.0158
 5243TIP3    H137364   2.283   6.759   6.784 -1.4664 -1.5507 -0.6610
 5243TIP3    H237365   2.373   6.699   6.890 -2.7803  0.3582  1.6442
 5244TIP3   OH237366   1.116   6.748   1.469  0.5699  0.2052  0.3199
 5244TIP3    H137367   1.076   6.666   1.441  1.8695 -0.4414  0.3379
 5244TIP3    H237368   1.058   6.816   1.432 -0.0611 -0.6848 -0.3768
 5245TIP3   OH237369   3.479   0.456   2.217 -0.1616  0.1482  0.2921
 5245TIP3    H137370   3.400   0.409   2.187 -0.6378  0.8751  0.3886
 5245TIP3    H237371   3.507   0.507   2.141 -0.6791  1.0724  0.7063
 5246TIP3   OH237372   1.732   0.243   7.471 -0.5667 -0.1252 -0.3099
 5246TIP3    H137373   1.641   0.226   7.494 -1.0069  1.3887 -0.8335
 5246TIP3    H237374   1.766   0.158   7.442 -1.6715 -0.7995  0.3196
 5247TIP3   OH237375   0.507   0.434   1.432 -0.3006  0.2873 -0.1940
 5247TIP3    H137376   0.448   0.491   1.383  0.2400  1.3010  0.2854
 5247TIP3    H237377   0.533   0.487   1.508  0.5298 -0.4582  0.0566
 5248TIP3   OH237378   3.358   4.567   2.216  0.5083  0.1776 -0.5057
 5248TIP3    H137379   3.295   4.495   2.224  1.4723 -0.6141  0.2999
 5248TIP3    H237380   3.430   4.530   2.164  0.6029  0.8565 -0.8629
 5249TIP3   OH237381   1.985   3.428   8.220  0.3781 -0.0789 -0.8732
 5249TIP3    H137382   1.966   3.335   8.214  0.1357  0.0597 -2.7841
 5249TIP3    H237383   2.080   3.434   8.221  0.3996 -0.3606  0.1087
 5250TIP3   OH237384   3.931   2.339   8.450 -0.0607  0.3960 -0.0895
 5250TIP3    H137385   3.869   2.285   8.500  0.4278  0.4011  0.5258
 5250TIP3    H237386   3.919   2.427   8.485  1.3228  0.1586  1.0863
 5251TIP3   OH237387   2.149   1.619   0.370  1.0381  0.0562 -0.2851
 5251TIP3    H137388   2.193   1.704   0.359  1.8615 -0.2593  0.4601
 5251TIP3    H237389   2.094   1.631   0.447  1.0377 -0.0342 -0.2716
 5252TIP3   OH237390   3.106   4.832   8.221  0.4080  0.9909 -0.2160
 5252TIP3    H137391   3.073   4.800   8.137 -0.3075 -0.6660  0.6539
 5252TIP3    H237392   3.042   4.899   8.247 -0.6523 -0.0821  0.0382
 5253TIP3   OH237393   1.581   0.601   0.773 -0.2901 -0.1340  0.0587
 5253TIP3    H137394   1.511   0.658   0.739 -0.1118 -0.5923 -1.1362
 5253TIP3    H237395   1.542   0.558   0.849 -0.9858  0.3164 -0.0314
 5254TIP3   OH237396   4.909   2.004   7.121 -0.0077  0.1493 -0.1949
 5254TIP3    H137397   4.851   2.051   7.061 -1.2250 -0.1485  0.7218
 5254TIP3    H237398   4.947   1.934   7.067 -1.3647 -0.3433 -0.5545
 5255TIP3   OH237399   6.613   5.077   0.850  0.0830 -0.2320  0.3844
 5255TIP3    H137400   6.548   5.099   0.917  0.0224  0.0701  0.2263
 5255TIP3    H237401   6.665   5.156   0.840  0.5964 -0.5315  0.6434
 5256TIP3   OH237402   0.635   1.484   8.460 -0.0057 -0.5031  0.4905
 5256TIP3    H137403   0.613   1.403   8.506  0.7202 -0.9539  0.0623
 5256TIP3    H237404   0.566   1.495   8.395 -1.6458  0.7025  2.3223
 5257TIP3   OH237405   5.603   5.965   0.616  0.0869 -0.2018 -0.1641
 5257TIP3    H137406   5.658   5.887   0.612  2.9428  1.6122  0.4886
 5257TIP3    H237407   5.652   6.031   0.567 -1.2040  1.7261  0.9933
 5258TIP3   OH237408   2.103   1.496   8.457  0.3979 -0.1565  0.5222
 5258TIP3    H137409   2.104   1.404   8.486  1.1289  0.2289  1.8226
 5258TIP3    H237410   2.066   1.544   8.532 -0.5071  0.5646 -0.3568
 5259TIP3   OH237411   1.313   0.164   0.781 -0.3663 -0.0233  0.5334
 5259TIP3    H137412   1.328   0.135   0.871 -2.0345 -0.4725  0.6869
 5259TIP3    H237413   1.249   0.235   0.788  0.1591  0.5510 -0.2394
 5260TIP3   OH237414   6.006   3.386   1.327 -0.0550  0.1770  0.1412
 5260TIP3    H137415   6.102   3.381   1.326 -0.0125  0.7140  0.8557
 5260TIP3    H237416   5.978   3.296   1.347  0.3010  0.0352  0.0094
 5261TIP3   OH237417   4.549   2.600   7.639  0.4248 -0.1019 -0.2215
 5261TIP3    H137418   4.535   2.622   7.731  1.4006 -0.5152  0.0448
 5261TIP3    H237419   4.514   2.675   7.591 -1.0697 -0.3616  0.4193
 5262TIP3   OH237420   6.327   5.578   7.053 -0.7375  0.4746 -0.5709
 5262TIP3    H137421   6.395   5.585   7.120 -0.2977 -0.0520 -0.9549
 5262TIP3    H237422   6.334   5.658   7.002  0.3639 -0.0900 -1.3236
 5263TIP3   OH237423   4.813   2.673   7.698 -0.5303 -0.0416 -0.3692
 5263TIP3    H137424   4.758   2.685   7.621 -0.9526  0.6263  0.0313
 5263TIP3    H237425   4.758   2.699   7.772 -0.2578 -1.0237  0.2046
 5264TIP3   OH237426   1.922   6.704   6.258 -0.3505  0.3851 -0.2054
 5264TIP3    H137427   1.870   6.730   6.182  1.8810  1.5029 -1.4380
 5264TIP3    H237428   1.946   6.613   6.241 -0.9846  0.2009 -0.1447
 5265TIP3   OH237429   5.494   2.966   7.659 -0.3353  0.3172  0.6111
 5265TIP3    H137430   5.579   2.946   7.699 -0.5209  1.0445  1.3994
 5265TIP3    H237431   5.510   2.959   7.565  0.2302 -0.9504  0.7791
 5266TIP3   OH237432   6.037   3.622   8.123 -0.6523  0.3439  0.4249
 5266TIP3    H137433   5.949   3.599   8.094 -0.6643 -0.4129  1.0245
 5266TIP3    H237434   6.034   3.613   8.219 -0.0875  0.8768  0.4973
 5267TIP3   OH237435   5.534   0.549   8.843  0.0678  0.3296 -0.1041
 5267TIP3    H137436   5.580   0.601   8.908  0.1639  2.0802 -1.4852
 5267TIP3    H237437   5.450   0.529   8.884 -0.3084  2.3076  0.2270
 5268TIP3   OH237438   3.622   2.101   1.235 -0.5772 -0.1051  0.1004
 5268TIP3    H137439   3.559   2.166   1.265 -1.4250 -1.4278  1.3337
 5268TIP3    H237440   3.571   2.021   1.224  0.6558 -0.8858 -0.1635
 5269TIP3   OH237441   1.513   2.009   8.779  0.5153  0.2932 -0.2920
 5269TIP3    H137442   1.456   2.027   8.854 -1.1873 -1.0795 -1.1647
 5269TIP3    H237443   1.526   2.095   8.739 -1.2161  0.6475 -0.2052
 5270TIP3   OH237444   2.579   2.571   0.221  0.3358  0.1039  0.3214
 5270TIP3    H137445   2.589   2.478   0.202  1.8314 -0.1685  2.1612
 5270TIP3    H237446   2.587   2.614   0.136 -0.6045 -1.4406 -0.5888
 5271TIP3   OH237447   6.477   2.373   1.882 -0.6652  0.2962  0.1549
 5271TIP3    H137448   6.411   2.326   1.831  0.0659 -0.5793 -0.0106
 5271TIP3    H237449   6.427   2.429   1.941 -1.5421  0.6215 -0.8636
 5272TIP3   OH237450   6.142   0.814   1.268  0.2805  0.2302 -0.4498
 5272TIP3    H137451   6.189   0.814   1.351  1.0801 -0.3131 -0.8926
 5272TIP3    H237452   6.076   0.746   1.277  0.9727 -0.4659 -0.5906
 5273TIP3   OH237453   1.645   0.043   1.267 -0.4739  0.2061 -0.6934
 5273TIP3    H137454   1.552   0.065   1.262 -1.2154 -2.0660  0.9813
 5273TIP3    H237455   1.647  -0.037   1.321  2.5118  0.5946 -0.0638
 5274TIP3   OH237456   1.067   1.748   1.226 -0.4023  0.4632 -0.5250
 5274TIP3    H137457   0.995   1.685   1.223 -2.2208  2.4233 -0.8847
 5274TIP3    H237458   1.024   1.833   1.222  1.6426  1.9365  3.4556
 5275TIP3   OH237459   2.734   6.585   8.290  0.3926  0.1217  0.1499
 5275TIP3    H137460   2.777   6.514   8.242  0.3252 -0.3825  0.8245
 5275TIP3    H237461   2.643   6.581   8.263  0.4408  0.1084 -0.0085
 5276TIP3   OH237462   0.812   0.958   8.022  0.3148  1.0576  0.4656
 5276TIP3    H137463   0.894   0.908   8.015 -0.4357 -0.3844  1.5322
 5276TIP3    H237464   0.837   1.036   8.072  1.4001  1.5483 -0.7752
 5277TIP3   OH237465   4.589   3.027   0.179 -0.6933 -0.4260 -0.4472
 5277TIP3    H137466   4.594   2.984   0.094 -1.2562 -0.4996 -0.4499
 5277TIP3    H237467   4.674   3.070   0.190 -0.5618 -0.5500 -0.9731
 5278TIP3   OH237468   2.362   4.096   8.865  0.0707  0.2807  0.4769
 5278TIP3    H137469   2.312   4.102   8.947  2.5022 -0.3276  2.1175
 5278TIP3    H237470   2.363   4.185   8.831 -0.7068  0.6101  1.2620
 5279TIP3   OH237471   0.923   1.275   1.749  0.0174  0.1538 -0.4569
 5279TIP3    H137472   0.900   1.217   1.822  0.5378 -0.8474 -1.0650
 5279TIP3    H237473   0.914   1.363   1.785  1.9795 -0.3198  1.3944
 5280TIP3   OH237474   3.978   6.724   8.451  0.3302 -0.0138  0.7102
 5280TIP3    H137475   3.914   6.781   8.408  1.0503  0.3506  0.1084
 5280TIP3    H237476   3.951   6.723   8.542  0.9113  2.1541  0.9647
 5281TIP3   OH237477   6.174   0.388   1.959 -0.2108  0.1781 -0.1758
 5281TIP3    H137478   6.152   0.476   1.988 -0.7529 -0.0062 -0.0188
 5281TIP3    H237479   6.217   0.400   1.874 -1.6984  0.5066 -0.9225
 5282TIP3   OH237480   0.633   4.848   0.070 -0.0895  0.2379 -0.2435
 5282TIP3    H137481   0.657   4.800   0.150  2.5634 -0.3420 -1.2612
 5282TIP3    H237482   0.672   4.935   0.082  1.4378 -0.2418 -1.3265
 5283TIP3   OH237483   0.950   0.263   7.095  0.3022  0.5309 -0.1909
 5283TIP3    H137484   0.973   0.184   7.046  0.3999  0.9397 -0.8184
 5283TIP3    H237485   1.009   0.262   7.171 -0.3494 -0.4894  0.3201
 5284TIP3   OH237486   4.623   2.593   0.088  0.0255  0.2906 -0.2946
 5284TIP3    H137487   4.653   2.537   0.159 -1.4879 -1.3126 -0.8727
 5284TIP3    H237488   4.528   2.601   0.101 -0.1796  0.5129 -1.7567
 5285TIP3   OH237489   5.919   3.136   7.116 -0.2072  0.3650 -0.2496
 5285TIP3    H137490   6.015   3.134   7.110 -0.2315 -0.6898 -0.5654
 5285TIP3    H237491   5.890   3.074   7.049 -1.0646 -0.2955  0.7127
 5286TIP3   OH237492   4.146   3.451   0.135  0.1090  0.3790 -0.0461
 5286TIP3    H137493   4.084   3.393   0.091  0.7042  0.3707 -0.9012
 5286TIP3    H237494   4.218   3.462   0.072  1.2017  0.0037  1.0888
 5287TIP3   OH237495   6.174   2.129   7.033  0.3542 -0.1693  1.4911
 5287TIP3    H137496   6.200   2.038   7.049  1.0168 -0.1113  0.7978
 5287TIP3    H237497   6.247   2.166   6.984 -0.7419  0.2230  0.1163
 5288TIP3   OH237498   0.780   0.376   8.025  0.1819 -0.0281 -0.4371
 5288TIP3    H137499   0.729   0.301   7.994  2.7755 -2.2575  0.2496
 5288TIP3    H237500   0.757   0.385   8.117  0.4014 -0.5168 -0.3281
 5289TIP3   OH237501   4.493   3.114   0.825  0.0119  0.2461  0.4031
 5289TIP3    H137502   4.474   3.085   0.914 -1.9910 -1.0246 -0.3577
 5289TIP3    H237503   4.416   3.165   0.800 -0.3338 -0.9553 -1.1779
 5290TIP3   OH237504   6.197   0.351   7.662 -0.1765 -0.4769  0.6193
 5290TIP3    H137505   6.208   0.356   7.567  0.7110  1.1003  0.7691
 5290TIP3    H237506   6.256   0.418   7.697 -1.6718  0.1048  2.2002
 5291TIP3   OH237507   6.269   3.589   6.819 -1.0426 -0.3352 -1.0175
 5291TIP3    H137508   6.269   3.498   6.789  2.0803 -1.1532  1.0495
 5291TIP3    H237509   6.193   3.594   6.878 -0.9736 -1.7769 -0.7604
 5292TIP3   OH237510   4.910   4.814   2.117  0.2887  0.8426 -0.2233
 5292TIP3    H137511   4.998   4.797   2.152 -0.1107 -0.9706 -0.0104
 5292TIP3    H237512   4.922   4.818   2.022  0.6438  0.9271 -0.1770
 5293TIP3   OH237513   3.408   4.113   8.592 -0.2923  0.1038  0.2935
 5293TIP3    H137514   3.379   4.023   8.606 -1.0551 -0.4001 -3.4032
 5293TIP3    H237515   3.343   4.166   8.638 -0.6204 -1.1775  1.3834
 5294TIP3   OH237516   3.686   1.885   6.131 -0.1427  0.9111 -0.3343
 5294TIP3    H137517   3.652   1.975   6.128  1.5021  1.5781  0.2939
 5294TIP3    H237518   3.657   1.847   6.048 -0.7800  2.0515 -0.6661
 5295TIP3   OH237519   4.161   5.443   1.279  0.0002 -0.1846 -0.6561
 5295TIP3    H137520   4.208   5.365   1.251 -0.7931 -0.8854 -0.0963
 5295TIP3    H237521   4.185   5.455   1.371  2.0820  1.7291 -1.3548
 5296TIP3   OH237522   0.851   0.078   1.812 -0.3235  0.0385  0.2175
 5296TIP3    H137523   0.854   0.035   1.726  1.0158  0.1904  0.1685
 5296TIP3    H237524   0.942   0.095   1.833 -0.5418 -1.0142  2.2039
 5297TIP3   OH237525   0.555   3.925   1.484 -0.4329 -0.4689 -0.1575
 5297TIP3    H137526   0.555   3.952   1.392  0.5056  0.8609  0.1936
 5297TIP3    H237527   0.463   3.931   1.510 -0.3865  2.1965 -0.2414
 5298TIP3   OH237528   5.215   1.050   0.151 -0.1144  0.0225  0.3560
 5298TIP3    H137529   5.152   0.983   0.125 -1.2521  1.5691 -1.1179
 5298TIP3    H237530   5.166   1.132   0.144  1.5803  1.1226  0.8978
 5299TIP3   OH237531   1.004   3.270   8.569  0.0377 -0.0031 -0.5540
 5299TIP3    H137532   1.099   3.278   8.556 -0.1220  1.7592 -0.8581
 5299TIP3    H237533   0.988   3.309   8.655 -0.4741  0.1844 -0.7315
 5300TIP3   OH237534   0.566   3.047   7.686  0.2877  0.2478  0.4773
 5300TIP3    H137535   0.651   3.003   7.685 -0.6359 -1.6628 -0.8976
 5300TIP3    H237536   0.581   3.130   7.642  1.3499 -0.3236 -0.2942
 5301TIP3   OH237537   0.457   3.572   1.296  0.0867 -0.8132 -0.5811
 5301TIP3    H137538   0.472   3.617   1.380 -2.0134  1.6241 -1.3863
 5301TIP3    H237539   0.473   3.639   1.230 -0.9072 -1.9224 -2.0096
 5302TIP3   OH237540   0.261   3.909   1.555 -0.2217 -0.8362 -0.4127
 5302TIP3    H137541   0.181   3.896   1.504 -0.1251 -0.2916 -0.7178
 5302TIP3    H237542   0.254   3.846   1.627 -2.6736  1.5557  1.6908
 5303TIP3   OH237543   4.492   1.963   6.997  0.3037  0.3960 -0.3579
 5303TIP3    H137544   4.497   1.901   6.924  1.6197  0.4503 -0.3424
 5303TIP3    H237545   4.485   2.049   6.955 -0.1137  0.3470 -0.3953
 5304TIP3   OH237546   6.400   2.268   8.394  0.5881 -0.4795  0.2408
 5304TIP3    H137547   6.432   2.297   8.309  0.8620 -0.8171  0.2287
 5304TIP3    H237548   6.460   2.308   8.457  1.3386 -1.4924  0.1964
 5305TIP3   OH237549   3.357   3.760   0.030  0.3362 -0.1148  0.2936
 5305TIP3    H137550   3.425   3.752  -0.038  0.7887  1.4944  0.5166
 5305TIP3    H237551   3.396   3.722   0.108  0.2885 -0.8392 -0.0315
 5306TIP3   OH237552   1.833   3.085   0.713 -0.6811 -0.1663  0.4295
 5306TIP3    H137553   1.783   3.020   0.664  0.1646 -0.3800 -0.1671
 5306TIP3    H237554   1.772   3.116   0.780 -0.5031 -3.1093  2.1638
 5307TIP3   OH237555   5.372   5.327   7.110 -0.1516 -0.2611  0.2434
 5307TIP3    H137556   5.407   5.399   7.161  0.5210  0.2223 -0.8723
 5307TIP3    H237557   5.392   5.249   7.162  0.5277  0.2146  0.7080
 5308TIP3   OH237558   0.041   4.120   8.188  0.0883 -0.2296  0.0099
 5308TIP3    H137559  -0.042   4.072   8.191  0.0100 -0.1021 -0.1278
 5308TIP3    H237560   0.018   4.208   8.217  0.1070 -0.0982 -0.3648
 5309TIP3   OH237561   1.779   1.701   0.001  0.4225 -0.4571  0.5508
 5309TIP3    H137562   1.778   1.606   0.010  0.1444 -0.3680  1.5169
 5309TIP3    H237563   1.867   1.720  -0.033  0.9797 -0.9474  1.6793
 5310TIP3   OH237564   6.260   3.957   0.380 -0.0576 -0.2010 -0.0052
 5310TIP3    H137565   6.324   3.897   0.417  0.8985  0.1477 -1.0136
 5310TIP3    H237566   6.190   3.963   0.445  0.1187 -1.9176  0.3733
 5311TIP3   OH237567   0.342   3.626   7.484 -0.0488 -0.2502 -0.1782
 5311TIP3    H137568   0.408   3.691   7.460 -0.5833  0.6633  0.7422
 5311TIP3    H237569   0.372   3.590   7.567 -1.6485  1.6342  1.3200
 5312TIP3   OH237570   6.122   1.054   8.047 -0.1379  0.5551  0.0697
 5312TIP3    H137571   6.066   1.011   7.983 -0.2314 -0.4091  0.7849
 5312TIP3    H237572   6.210   1.046   8.010 -0.1829 -0.0473  0.0830
 5313TIP3   OH237573   2.032   0.339   1.433 -0.6532 -0.2029  0.3770
 5313TIP3    H137574   2.092   0.291   1.490 -0.7673  0.1417  0.7891
 5313TIP3    H237575   1.945   0.313   1.464 -0.7209  0.8036  1.0646
 5314TIP3   OH237576   5.269   5.705   7.642  0.3026 -0.2811  0.1828
 5314TIP3    H137577   5.223   5.721   7.560  0.9037 -0.3350 -0.1723
 5314TIP3    H237578   5.213   5.744   7.709  0.0354  0.1884 -0.3067
 5315TIP3   OH237579   6.059   6.345   0.067 -0.3363  0.2664 -0.2575
 5315TIP3    H137580   6.069   6.313  -0.022  2.0469  1.2730 -0.4267
 5315TIP3    H237581   6.146   6.377   0.091 -1.1820  1.0591  2.0229
 5316TIP3   OH237582   5.040   6.448   7.302 -0.7390  0.3468 -0.2712
 5316TIP3    H137583   5.076   6.403   7.225 -2.1357  0.3363 -0.9566
 5316TIP3    H237584   5.096   6.420   7.375  0.8255  0.6386 -1.3322
 5317TIP3   OH237585   3.574   3.500   0.448  0.6666  0.5325  0.1536
 5317TIP3    H137586   3.642   3.555   0.484 -0.1982  1.2827  0.6880
 5317TIP3    H237587   3.620   3.438   0.391  1.9165  0.1745  1.4983
 5318TIP3   OH237588   0.114   1.731   8.655 -0.3925  0.1132 -0.3088
 5318TIP3    H137589   0.071   1.671   8.716 -0.6136  3.3982  3.1615
 5318TIP3    H237590   0.206   1.705   8.656 -0.3813  0.0738  1.5902
 5319TIP3   OH237591   6.595   2.557   1.660  0.0510  0.1379 -0.4274
 5319TIP3    H137592   6.573   2.615   1.733  1.7213 -0.8207  0.8990
 5319TIP3    H237593   6.529   2.489   1.662  0.1145  0.0910  0.2389
 5320TIP3   OH237594   6.092   5.514   2.306 -0.0527  0.0915  0.1671
 5320TIP3    H137595   6.180   5.500   2.269  0.6669 -0.0810  1.8539
 5320TIP3    H237596   6.090   5.607   2.328  0.0084 -0.0566  0.8222
 5321TIP3   OH237597   6.529   1.575   0.179  0.5488 -0.0955 -0.0671
 5321TIP3    H137598   6.572   1.489   0.176 -0.7632 -0.9104  1.9154
 5321TIP3    H237599   6.582   1.626   0.240  1.1386  0.4126 -0.9889
 5322TIP3   OH237600   1.835   4.614   7.883 -0.0463  0.1203 -0.0710
 5322TIP3    H137601   1.907   4.579   7.830 -1.5971 -1.6247 -1.1520
 5322TIP3    H237602   1.840   4.709   7.870  3.1026  0.2757  1.3459
 5323TIP3   OH237603   1.147   1.212   1.620  0.0334  0.1282  0.2717
 5323TIP3    H137604   1.133   1.118   1.616  0.8398 -0.0313  0.8992
 5323TIP3    H237605   1.074   1.245   1.672  0.9268 -0.4550  1.9703
 5324TIP3   OH237606   1.558   5.585   7.249  0.3413  0.6031 -0.1004
 5324TIP3    H137607   1.576   5.653   7.184  1.7867 -1.2187 -1.7670
 5324TIP3    H237608   1.628   5.595   7.314 -1.8185  3.2344  2.0618
 5325TIP3   OH237609   2.597   2.321   0.159 -0.3124 -0.0428 -0.3877
 5325TIP3    H137610   2.658   2.296   0.228  0.4016  0.3868 -0.8365
 5325TIP3    H237611   2.578   2.240   0.112  0.0404 -0.1571 -0.3342
 5326TIP3   OH237612   1.593   6.271   0.982 -0.3947 -0.0660 -0.0906
 5326TIP3    H137613   1.645   6.248   0.905 -1.0287  0.3091 -0.6384
 5326TIP3    H237614   1.506   6.234   0.965 -0.4243 -0.3624  0.6441
 5327TIP3   OH237615   5.098   2.602   2.369  0.4250 -0.2450 -0.2383
 5327TIP3    H137616   5.137   2.677   2.414  1.5926 -2.0200  1.9032
 5327TIP3    H237617   5.124   2.613   2.278  0.8595  1.7535  0.0889
 5328TIP3   OH237618   0.681   4.855   7.772  0.6627  0.4731 -0.5694
 5328TIP3    H137619   0.603   4.866   7.827  0.5800 -0.4514 -0.4848
 5328TIP3    H237620   0.732   4.788   7.816  2.6373  2.6226  0.5868
 5329TIP3   OH237621   2.585   3.429   7.816  0.3848 -0.1190  0.5904
 5329TIP3    H137622   2.597   3.524   7.820 -1.1968  0.2363 -1.2499
 5329TIP3    H237623   2.636   3.395   7.889  1.8394  2.0539  0.6764
 5330TIP3   OH237624   0.247   0.681   7.280 -0.2296 -0.1616  0.2784
 5330TIP3    H137625   0.222   0.593   7.253 -0.0211 -0.2800  0.4662
 5330TIP3    H237626   0.309   0.710   7.213 -0.1373 -0.2388  0.3308
 5331TIP3   OH237627   0.087   4.572   8.076  0.2412 -0.0377  0.3600
 5331TIP3    H137628   0.062   4.630   8.149 -0.5612 -0.9928  0.8630
 5331TIP3    H237629   0.176   4.545   8.097  0.7619  1.2723 -0.0596
 5332TIP3   OH237630   5.766   3.423   8.356 -0.5330 -0.9670 -0.4737
 5332TIP3    H137631   5.710   3.349   8.379  0.7756 -1.8680 -0.0732
 5332TIP3    H237632   5.840   3.383   8.309  0.5922 -0.0215  0.4577
 5333TIP3   OH237633   1.799   1.551   0.305  0.3552 -0.1966 -0.2643
 5333TIP3    H137634   1.788   1.527   0.213 -0.2399 -0.4994 -0.1182
 5333TIP3    H237635   1.836   1.639   0.303  1.6096 -0.7168 -0.8007
 5334TIP3   OH237636   4.296   3.277   8.118 -0.9313  0.3001  0.2340
 5334TIP3    H137637   4.209   3.306   8.146 -1.4297 -1.4902  0.6282
 5334TIP3    H237638   4.286   3.255   8.026 -0.8532  0.2736  0.2321
 5335TIP3   OH237639   0.943   0.544   7.014 -0.1356 -0.3071  0.6191
 5335TIP3    H137640   0.945   0.450   7.031  1.9833 -0.7448 -1.4436
 5335TIP3    H237641   0.977   0.583   7.095  1.7424 -1.5871  0.5203
 5336TIP3   OH237642   0.703   6.202   0.769 -0.6370  0.4548  0.3970
 5336TIP3    H137643   0.683   6.289   0.736  0.9235  0.9151  0.5740
 5336TIP3    H237644   0.725   6.214   0.861 -0.4987 -0.1268  0.4496
 5337TIP3   OH237645   4.276   1.532   7.841  0.1451 -0.0878  0.0557
 5337TIP3    H137646   4.211   1.515   7.773  1.3097  0.3829 -1.2339
 5337TIP3    H237647   4.301   1.445   7.873  0.6551 -0.4286 -1.1964
 5338TIP3   OH237648   1.022   3.483   1.483 -0.1807 -0.2978 -0.5093
 5338TIP3    H137649   1.037   3.468   1.390 -0.9602  0.9602 -0.8589
 5338TIP3    H237650   1.021   3.396   1.522  0.9331 -0.7910 -1.5501
 5339TIP3   OH237651   3.541   4.263   7.846  0.6563 -0.6829 -0.1860
 5339TIP3    H137652   3.594   4.205   7.791  0.5510 -0.4441 -0.5417
 5339TIP3    H237653   3.474   4.297   7.788  0.4795 -0.5042  0.1168
 5340TIP3   OH237654   4.128   2.934   1.616 -1.0152  0.4170 -0.0183
 5340TIP3    H137655   4.173   2.873   1.674 -1.5830 -0.8989 -0.9019
 5340TIP3    H237656   4.183   3.012   1.616  0.5610 -0.6342  0.0001
 5341TIP3   OH237657   2.930   2.138   2.137  0.6748  0.2067 -0.1002
 5341TIP3    H137658   2.991   2.205   2.168 -0.3231  0.3409  1.7288
 5341TIP3    H237659   2.859   2.186   2.096  1.2916  0.0923 -1.3586
 5342TIP3   OH237660   0.873   4.746   1.743 -0.2387 -0.4686  0.5238
 5342TIP3    H137661   0.797   4.690   1.758 -0.3056 -0.3361  0.6742
 5342TIP3    H237662   0.948   4.688   1.759 -0.3107 -0.3550  1.2725
 5343TIP3   OH237663   4.018   6.189   6.599 -0.4057 -0.5144  0.1971
 5343TIP3    H137664   4.091   6.128   6.609  0.0597  0.2041  1.3919
 5343TIP3    H237665   3.976   6.163   6.517  0.1495 -2.0452  0.3582
 5344TIP3   OH237666   6.130   1.273   0.167  0.6613 -0.1923  0.0128
 5344TIP3    H137667   6.086   1.227   0.096  0.3197  0.4383 -0.1917
 5344TIP3    H237668   6.176   1.346   0.125  1.9721 -0.8648  0.2111
 5345TIP3   OH237669   4.543   6.703   0.103 -0.0963  0.2160  0.3274
 5345TIP3    H137670   4.485   6.779   0.109  1.6517  1.5893  0.4008
 5345TIP3    H237671   4.541   6.666   0.192  0.2135  1.0790  0.7060
 5346TIP3   OH237672   5.809   4.929   1.454 -0.6112 -0.1133 -0.0170
 5346TIP3    H137673   5.751   4.856   1.432 -0.6037 -0.4003  0.8961
 5346TIP3    H237674   5.752   5.005   1.457 -1.0241 -0.4481  1.2187
 5347TIP3   OH237675   2.006   3.411   1.772 -0.3055  0.5028  0.1567
 5347TIP3    H137676   2.093   3.428   1.808 -0.4313 -0.7930  1.1557
 5347TIP3    H237677   1.975   3.333   1.819 -2.4418  1.5477  0.6014
 5348TIP3   OH237678   1.335   1.664   0.496 -0.0945 -0.6666 -0.1969
 5348TIP3    H137679   1.333   1.714   0.577 -1.6130  0.1110 -0.6802
 5348TIP3    H237680   1.423   1.679   0.460 -0.5309  1.7496 -0.3656
 5349TIP3   OH237681   2.458   3.099   7.554  0.5691 -0.1107  0.1336
 5349TIP3    H137682   2.501   3.082   7.469  0.4954  1.3513 -0.2261
 5349TIP3    H237683   2.527   3.081   7.619  1.4614  1.2611 -0.3868
 5350TIP3   OH237684   2.468   6.568   8.159  0.0096  0.1770  0.3661
 5350TIP3    H137685   2.386   6.525   8.181  0.2642 -0.6468 -0.2643
 5350TIP3    H237686   2.495   6.529   8.076  0.7760  0.8097  0.3003
 5351TIP3   OH237687   4.671   4.933   8.486 -0.2641 -0.2909  0.1888
 5351TIP3    H137688   4.623   4.856   8.517 -2.1961  0.1682 -1.3724
 5351TIP3    H237689   4.652   5.000   8.551 -1.5014 -0.2295 -0.1957
 5352TIP3   OH237690   0.261   5.659   7.791 -0.1355  0.2862 -0.4204
 5352TIP3    H137691   0.324   5.597   7.756 -0.6551 -1.3540  1.3851
 5352TIP3    H237692   0.177   5.630   7.756 -0.7307 -1.6699  2.3428
 5353TIP3   OH237693   6.691   1.373   1.534  0.5583  0.2934  0.1821
 5353TIP3    H137694   6.655   1.408   1.452  2.2659 -0.8304 -1.1189
 5353TIP3    H237695   6.667   1.281   1.534 -1.1854  0.6834  2.0216
 5354TIP3   OH237696   1.919   2.481   7.498 -0.3000 -0.0337 -0.4765
 5354TIP3    H137697   1.890   2.570   7.476  1.0661  0.1447 -1.7437
 5354TIP3    H237698   2.014   2.486   7.495 -0.2054 -1.8208 -1.7638
 5355TIP3   OH237699   1.178   2.702   7.309 -0.3344  0.3087  0.5116
 5355TIP3    H137700   1.168   2.707   7.214  0.9290  1.2035  0.4061
 5355TIP3    H237701   1.238   2.629   7.323  2.3450  2.3175  0.3313
 5356TIP3   OH237702   5.439   6.064   1.586 -0.5380 -0.4659 -0.0359
 5356TIP3    H137703   5.459   5.974   1.561 -0.4134 -0.0775 -1.4507
 5356TIP3    H237704   5.517   6.095   1.630 -0.6913 -1.1357  0.7189
 5357TIP3   OH237705   0.929   6.364   8.894 -0.1318 -0.2054  0.3341
 5357TIP3    H137706   0.955   6.324   8.977  1.7754  2.2226  1.0341
 5357TIP3    H237707   0.981   6.319   8.828  1.5975  0.6420  1.0451
 5358TIP3   OH237708   5.996   3.942   7.442  0.2090 -0.2265 -0.1474
 5358TIP3    H137709   5.958   3.854   7.438 -2.0217  0.6757 -0.6978
 5358TIP3    H237710   5.979   3.970   7.532 -0.5642  0.2077 -0.4164
 5359TIP3   OH237711   3.413   5.502   0.283  0.1053 -0.2046  0.1369
 5359TIP3    H137712   3.481   5.568   0.298 -0.1809  0.3795 -1.0023
 5359TIP3    H237713   3.371   5.489   0.368  0.7167  0.4633  0.5442
 5360TIP3   OH237714   4.777   2.848   8.431  0.2902  0.4202 -0.2299
 5360TIP3    H137715   4.848   2.790   8.405  0.1693  0.0897  0.1772
 5360TIP3    H237716   4.726   2.798   8.494 -0.7946  0.3483 -1.1479
 5361TIP3   OH237717   4.104   5.388   0.160  0.3185  0.2245  0.1704
 5361TIP3    H137718   4.177   5.430   0.116 -0.2037 -0.2640 -1.2348
 5361TIP3    H237719   4.060   5.338   0.091  0.7536 -2.4207  1.6711
 5362TIP3   OH237720   0.537   3.467   0.311  0.3830 -0.5237 -0.1870
 5362TIP3    H137721   0.486   3.389   0.291  0.1060 -0.6773  1.0203
 5362TIP3    H237722   0.577   3.449   0.396  0.2581  0.6651  0.1514
 5363TIP3   OH237723   1.142   5.872   1.738 -0.3090  0.8656  0.1827
 5363TIP3    H137724   1.145   5.779   1.717 -0.7886  1.2612 -1.8122
 5363TIP3    H237725   1.061   5.883   1.788 -1.3624  0.5259 -1.4061
 5364TIP3   OH237726   3.657   1.680   1.476 -0.0656 -0.8185  0.5165
 5364TIP3    H137727   3.623   1.647   1.393 -1.0592 -0.2423  0.6821
 5364TIP3    H237728   3.629   1.616   1.542 -0.6625 -0.4557  0.6223
 5365TIP3   OH237729   3.036   3.715   7.202  0.3916  0.1313  0.2694
 5365TIP3    H137730   2.966   3.666   7.158 -0.7286  0.7263  1.3378
 5365TIP3    H237731   3.003   3.730   7.291  3.0948 -2.1690  1.8479
 5366TIP3   OH237732   5.357   6.336   1.475 -0.9592  0.1808  0.5308
 5366TIP3    H137733   5.269   6.321   1.440 -0.0293  0.6646 -2.2191
 5366TIP3    H237734   5.393   6.248   1.487 -1.0306 -0.0183 -0.5778
 5367TIP3   OH237735   0.304   5.939   1.576 -0.3464 -0.6174 -0.1221
 5367TIP3    H137736   0.319   5.895   1.660  1.0516 -0.6499 -0.3523
 5367TIP3    H237737   0.224   5.989   1.588  0.2395 -0.0125  1.4870
 5368TIP3   OH237738   6.128   1.064   8.318 -0.1636  0.3902 -0.5777
 5368TIP3    H137739   6.121   1.084   8.225  1.3923  0.3451 -0.7329
 5368TIP3    H237740   6.116   1.148   8.362 -2.8430  0.1209 -0.6653
 5369TIP3   OH237741   0.552   6.362   8.712  0.4054  0.0136  0.1436
 5369TIP3    H137742   0.594   6.446   8.725  0.8566 -0.2763  0.5680
 5369TIP3    H237743   0.563   6.315   8.795 -1.9240  0.4235  0.7763
 5370TIP3   OH237744   5.732   2.807   6.967  0.3102  0.1362  1.0409
 5370TIP3    H137745   5.677   2.882   6.942  1.7491  0.3320 -2.0175
 5370TIP3    H237746   5.689   2.731   6.927  0.4395 -0.2473  1.6132
 5371TIP3   OH237747   6.035   4.253   0.141 -0.5352 -0.2293  0.0388
 5371TIP3    H137748   6.111   4.230   0.088 -1.1740 -1.4289 -0.3921
 5371TIP3    H237749   5.980   4.175   0.139 -1.4152  0.3432  0.9903
 5372TIP3   OH237750   1.297   1.279   1.261  0.5120 -0.0337 -0.4863
 5372TIP3    H137751   1.204   1.265   1.279  0.8408 -1.4970  0.2276
 5372TIP3    H237752   1.328   1.194   1.228  1.7803  0.1788  0.1117
 5373TIP3   OH237753   4.635   2.101   0.931  0.0008 -0.2116 -0.3328
 5373TIP3    H137754   4.689   2.041   0.879 -0.5777  0.1490 -1.3832
 5373TIP3    H237755   4.697   2.165   0.965  0.4665 -0.7634 -0.1177
 5374TIP3   OH237756   5.189   2.198   7.720  0.0449  0.5942 -0.1221
 5374TIP3    H137757   5.184   2.103   7.725  2.0496  0.4485  0.0138
 5374TIP3    H237758   5.127   2.229   7.786 -1.9931 -0.5265 -1.3948
 5375TIP3   OH237759   3.561   6.538   1.843  0.2682  0.1135 -0.0003
 5375TIP3    H137760   3.618   6.557   1.917  1.8096  1.3180 -1.4295
 5375TIP3    H237761   3.618   6.497   1.778 -1.5263 -3.2473  0.2750
 5376TIP3   OH237762   3.358   4.056   8.975  0.7591 -0.4297 -0.0970
 5376TIP3    H137763   3.336   4.000   9.050 -0.2046  0.1619  0.0839
 5376TIP3    H237764   3.415   4.001   8.920  1.2432 -0.9747  0.9126
 5377TIP3   OH237765   6.162   2.288   1.745 -0.0409 -0.7519 -0.0693
 5377TIP3    H137766   6.112   2.232   1.806 -0.2913 -0.5252 -0.0631
 5377TIP3    H237767   6.111   2.369   1.740 -0.5500 -1.1269 -1.3468
 5378TIP3   OH237768   0.931   4.477   0.307  0.3367 -0.4656 -0.3536
 5378TIP3    H137769   0.997   4.459   0.240 -0.7073  0.9749 -1.8613
 5378TIP3    H237770   0.892   4.561   0.280 -0.8730 -0.3871  1.4677
 5379TIP3   OH237771   2.790   3.363   8.000 -0.2305 -0.3342 -0.7072
 5379TIP3    H137772   2.848   3.421   8.050  1.2105 -1.5101 -0.9646
 5379TIP3    H237773   2.818   3.375   7.909 -1.5550  0.3467 -1.0507
 5380TIP3   OH237774   6.752   4.376   0.689 -0.3655 -0.7757 -0.1676
 5380TIP3    H137775   6.774   4.351   0.600  1.5554  0.5929 -0.1391
 5380TIP3    H237776   6.688   4.447   0.679 -0.0514 -0.5316 -0.4682
 5381TIP3   OH237777   2.961   6.030   8.291  0.4825  0.3853  0.9739
 5381TIP3    H137778   2.991   6.019   8.201  0.2003  3.1726  0.4482
 5381TIP3    H237779   2.867   6.013   8.288  0.3704  1.0549  0.6005
 5382TIP3   OH237780   1.736   4.185   2.117 -0.8059  0.3900  0.2220
 5382TIP3    H137781   1.765   4.231   2.038  2.1010 -2.6051 -0.6926
 5382TIP3    H237782   1.661   4.133   2.088 -0.6084  0.3417 -0.2062
 5383TIP3   OH237783   0.010   3.647   8.987 -0.0195  0.4712  0.0955
 5383TIP3    H137784  -0.066   3.697   9.016  1.1621  1.3464  1.8973
 5383TIP3    H237785   0.013   3.659   8.892 -2.6598 -0.4353 -0.1812
 5384TIP3   OH237786   0.879   0.871   8.309 -0.2864 -0.8779  0.1382
 5384TIP3    H137787   0.973   0.888   8.323 -0.5565 -0.1057  1.1854
 5384TIP3    H237788   0.877   0.789   8.260  0.9359 -1.0449  0.3134
 5385TIP3   OH237789   1.367   5.914   7.334 -0.2594  0.1240  0.2278
 5385TIP3    H137790   1.297   5.871   7.383  0.7370 -0.4180  1.2186
 5385TIP3    H237791   1.372   5.866   7.252 -0.1256 -0.7393  0.7300
 5386TIP3   OH237792   4.689   1.956   8.851 -0.0220  0.1851 -0.2711
 5386TIP3    H137793   4.630   2.010   8.798 -0.1866 -0.3529 -0.6526
 5386TIP3    H237794   4.654   1.961   8.939 -0.8347 -0.3798 -0.5505
 5387TIP3   OH237795   5.782   0.551   0.190 -0.4804 -0.5037  0.6265
 5387TIP3    H137796   5.841   0.485   0.154  0.8139  1.2969 -0.7483
 5387TIP3    H237797   5.834   0.594   0.258  0.0453  1.4126 -0.9134
 5388TIP3   OH237798   6.449   1.187   1.381  0.3730  0.1633  0.4958
 5388TIP3    H137799   6.540   1.210   1.363  0.1993 -0.3540 -1.1187
 5388TIP3    H237800   6.403   1.271   1.377  0.4362  0.1469 -0.9714
 5389TIP3   OH237801   3.568   1.334   7.861 -0.7644 -0.3102  0.5605
 5389TIP3    H137802   3.591   1.253   7.815 -2.9538 -1.3467  1.1692
 5389TIP3    H237803   3.517   1.384   7.798  0.3797  0.5437  0.2686
 5390TIP3   OH237804   4.139   5.000   8.260  0.1635 -0.5362 -0.3877
 5390TIP3    H137805   4.049   4.972   8.280 -0.1334 -0.5013 -1.6365
 5390TIP3    H237806   4.129   5.069   8.195  1.0862 -0.1807 -0.1639
 5391TIP3   OH237807   1.970   2.962   2.414 -0.0049 -0.9843 -0.5836
 5391TIP3    H137808   2.018   3.044   2.417 -2.5086  0.8632 -3.8727
 5391TIP3    H237809   1.989   2.926   2.327 -3.4081 -0.7403 -1.5807
 5392TIP3   OH237810   3.604   4.928   7.485  0.2643  0.1877 -0.1795
 5392TIP3    H137811   3.680   4.880   7.452 -0.4585  0.4499 -2.3411
 5392TIP3    H237812   3.634   5.018   7.493  0.2446  0.2539 -0.8375
 5393TIP3   OH237813   4.695   4.802   0.704  0.2270  0.0618  0.2917
 5393TIP3    H137814   4.699   4.871   0.638 -0.0478  0.2362  0.4563
 5393TIP3    H237815   4.720   4.845   0.785 -0.7251  0.1547  0.5432
 5394TIP3   OH237816   5.981   0.087   0.082 -0.0424  0.6656 -0.1605
 5394TIP3    H137817   6.000   0.029   0.008 -2.6774 -1.6778  0.8308
 5394TIP3    H237818   6.046   0.064   0.148  0.7592  1.0096 -0.8023
 5395TIP3   OH237819   4.059   5.407   6.114  0.1715 -0.7604 -0.6913
 5395TIP3    H137820   4.085   5.487   6.067  2.3779 -2.0971 -1.9543
 5395TIP3    H237821   4.141   5.375   6.152 -0.9579 -1.6235  1.1433
 5396TIP3   OH237822   0.421   0.239   7.755  0.2891  0.0041 -0.5837
 5396TIP3    H137823   0.351   0.304   7.760  1.3935  1.0928  2.4804
 5396TIP3    H237824   0.375   0.155   7.753 -1.1061  0.7266  0.1226
 5397TIP3   OH237825   4.707   2.490   0.841  0.7482  0.4310  0.2238
 5397TIP3    H137826   4.613   2.468   0.839  1.6680 -4.7966  0.2673
 5397TIP3    H237827   4.723   2.529   0.755 -1.2104 -0.3943 -0.5981
 5398TIP3   OH237828   5.671   6.784   1.711 -0.0185 -0.1732 -0.1083
 5398TIP3    H137829   5.630   6.870   1.723  2.0594  0.9700 -0.8368
 5398TIP3    H237830   5.735   6.778   1.781  0.0938 -0.9859 -0.2743
 5399TIP3   OH237831   2.494   0.187   7.293 -0.1688 -0.2046  0.3888
 5399TIP3    H137832   2.547   0.187   7.373  0.1862 -1.0235  0.1692
 5399TIP3    H237833   2.514   0.270   7.251 -0.0567  0.0606  0.9576
 5400TIP3   OH237834   4.873   3.189   1.529 -0.2210  0.3614  0.1209
 5400TIP3    H137835   4.968   3.197   1.516 -0.0957  1.2820  1.3912
 5400TIP3    H237836   4.835   3.233   1.453  0.3633  0.1614 -0.2995
 5401TIP3   OH237837   1.807   4.034   1.347 -0.1529  0.3090  0.2806
 5401TIP3    H137838   1.862   4.023   1.424 -1.3433  0.6205  1.2105
 5401TIP3    H237839   1.834   3.963   1.288  3.1096  2.0463 -0.5309
 5402TIP3   OH237840   2.987   2.963   2.362 -0.1753  0.3971 -0.0341
 5402TIP3    H137841   3.038   2.982   2.283 -0.3526  1.4777  0.1073
 5402TIP3    H237842   3.022   3.022   2.428 -1.2564  0.7949  0.2014
 5403TIP3   OH237843   0.470   6.662   8.586  0.1315 -0.1798 -0.3420
 5403TIP3    H137844   0.548   6.709   8.556  0.7496 -1.6335 -1.1541
 5403TIP3    H237845   0.463   6.587   8.526 -1.6985 -0.2779 -0.0654
 5404TIP3   OH237846   2.347   1.838   1.055 -0.0859 -0.3286 -0.4611
 5404TIP3    H137847   2.265   1.855   1.008  0.6145 -0.3925 -1.7680
 5404TIP3    H237848   2.353   1.742   1.056  0.6119 -0.3202 -1.5918
 5405TIP3   OH237849   1.016   4.984   7.561 -0.3440 -0.7251  0.4852
 5405TIP3    H137850   1.003   4.966   7.654 -0.9386 -1.7436  0.2193
 5405TIP3    H237851   1.016   4.898   7.520 -1.7149 -0.2235 -0.6616
 5406TIP3   OH237852   2.286   1.997   8.516 -0.5491  0.2151 -0.5606
 5406TIP3    H137853   2.358   2.059   8.523 -1.3575  1.0530  0.6957
 5406TIP3    H237854   2.313   1.922   8.568 -0.1239  0.0389 -1.0234
 5407TIP3   OH237855   5.412   3.901   7.313  0.4504  0.2060 -0.5585
 5407TIP3    H137856   5.435   3.913   7.221  1.5637  2.8399 -0.0036
 5407TIP3    H237857   5.382   3.987   7.342 -2.5361 -1.1891  0.9107
 5408TIP3   OH237858   3.590   6.055   7.574 -0.0158 -0.0644 -0.1801
 5408TIP3    H137859   3.680   6.025   7.571  0.1390  0.3640  0.1206
 5408TIP3    H237860   3.553   6.016   7.653  0.1193  0.3538  0.0887
 5409TIP3   OH237861   0.440   0.037   2.073  0.4903  0.4674  0.4618
 5409TIP3    H137862   0.521  -0.003   2.042 -0.8048 -1.2249 -0.9274
 5409TIP3    H237863   0.465   0.085   2.152  2.4756 -1.7447  1.2624
 5410TIP3   OH237864   4.354   3.540   2.482  0.3794 -0.0993  0.4466
 5410TIP3    H137865   4.417   3.583   2.424 -0.3039  0.5111  0.1423
 5410TIP3    H237866   4.345   3.601   2.556  1.8127 -1.2148  1.5903
 5411TIP3   OH237867   6.277   6.142   7.137  0.4295  0.0570  0.0028
 5411TIP3    H137868   6.192   6.185   7.126  0.2408 -0.7634 -1.9832
 5411TIP3    H237869   6.326   6.202   7.194 -0.8767  1.3775 -0.2022
 5412TIP3   OH237870   1.487   3.048   7.810 -0.1775 -0.4731 -0.1732
 5412TIP3    H137871   1.528   3.134   7.809 -1.5166  0.1940  0.1106
 5412TIP3    H237872   1.396   3.065   7.834 -0.7794 -1.8351 -1.3463
 5413TIP3   OH237873   5.145   1.460   8.362 -0.4684  0.6625 -0.1923
 5413TIP3    H137874   5.129   1.507   8.280 -0.4157  1.2674  0.1368
 5413TIP3    H237875   5.089   1.382   8.356  0.3109  0.1637 -1.2417
 5414TIP3   OH237876   1.995   1.910   7.232 -0.1795 -0.1187  0.3040
 5414TIP3    H137877   1.927   1.849   7.263 -0.1347  0.6053  1.9171
 5414TIP3    H237878   1.948   1.991   7.215  0.3685  0.6919  2.3837
 5415TIP3   OH237879   3.417   4.727   1.696 -0.6105  0.1775 -0.4344
 5415TIP3    H137880   3.455   4.642   1.716  2.2471  1.3734 -0.3420
 5415TIP3    H237881   3.331   4.707   1.658  0.6404 -2.7973 -2.0129
 5416TIP3   OH237882   1.340   5.605   8.376 -0.3103 -0.2923  0.1506
 5416TIP3    H137883   1.400   5.567   8.313 -1.9118 -1.8860 -0.4699
 5416TIP3    H237884   1.389   5.678   8.415  1.2592 -0.2605 -1.7787
 5417TIP3   OH237885   3.433   4.480   1.493  0.4534 -0.1867  0.5325
 5417TIP3    H137886   3.454   4.572   1.512  0.7256 -0.2338  0.4735
 5417TIP3    H237887   3.473   4.431   1.565 -0.0275 -0.2308  0.7734
 5418TIP3   OH237888   1.750   3.649   0.718 -0.0989 -0.3803  0.7191
 5418TIP3    H137889   1.829   3.685   0.758  0.5410 -0.4840 -0.4066
 5418TIP3    H237890   1.694   3.725   0.703  0.3776 -0.1162  0.2474
 5419TIP3   OH237891   6.770   4.015   1.048  0.4359  0.2864 -0.0981
 5419TIP3    H137892   6.803   4.066   0.974 -0.5668  1.4031  0.1851
 5419TIP3    H237893   6.715   3.947   1.008  0.1986  0.6571 -0.4061
 5420TIP3   OH237894   6.498   3.462   0.586  0.3543 -0.6621  0.2620
 5420TIP3    H137895   6.571   3.415   0.624  0.4057 -0.4338  0.4487
 5420TIP3    H237896   6.426   3.451   0.649  0.4251 -0.3271  0.4073
 5421TIP3   OH237897   0.477   6.636   0.154 -0.1178  0.7545 -0.1531
 5421TIP3    H137898   0.418   6.709   0.174 -0.3077  0.3714  0.7289
 5421TIP3    H237899   0.466   6.621   0.060  0.0701  1.9858 -0.3810
 5422TIP3   OH237900   1.337   1.972   7.430 -0.0594  0.0829 -0.5984
 5422TIP3    H137901   1.282   1.901   7.464 -0.3910 -0.1756 -1.6266
 5422TIP3    H237902   1.426   1.939   7.436  0.0346  0.5899  1.2954
 5423TIP3   OH237903   1.926   4.219   6.797 -0.0295  0.1398  0.9560
 5423TIP3    H137904   2.003   4.255   6.840  1.2462 -0.2744 -0.8793
 5423TIP3    H237905   1.929   4.254   6.708 -0.7476 -1.5850  0.2107
 5424TIP3   OH237906   4.185   5.192   1.407  0.2582  0.5219 -0.6617
 5424TIP3    H137907   4.276   5.220   1.410  0.5978 -0.4994 -0.8794
 5424TIP3    H237908   4.173   5.139   1.486  0.4892 -1.1341 -1.7022
 5425TIP3   OH237909   5.996   0.244   0.528  0.5820 -0.0444  0.4599
 5425TIP3    H137910   6.019   0.170   0.471 -0.6789 -2.6383  3.0465
 5425TIP3    H237911   5.902   0.254   0.518  0.5690  0.4319  0.9954
 5426TIP3   OH237912   4.033   5.610   8.882 -0.3362  0.4367 -0.0326
 5426TIP3    H137913   4.044   5.522   8.847 -0.0976  0.3956  0.1431
 5426TIP3    H237914   4.077   5.667   8.819 -1.7470  0.5919 -0.9221
 5427TIP3   OH237915   6.045   0.388   1.184  0.5514  0.3638  0.0344
 5427TIP3    H137916   6.000   0.469   1.210 -0.9868  0.2081 -1.9248
 5427TIP3    H237917   6.137   0.404   1.207  0.5853  3.2842 -1.5835
 5428TIP3   OH237918   4.865   0.997   7.188  0.0770 -0.1130 -0.1269
 5428TIP3    H137919   4.864   0.902   7.184  1.1473 -0.0989 -1.0954
 5428TIP3    H237920   4.797   1.025   7.126  0.4404 -0.2482 -0.5955
 5429TIP3   OH237921   3.884   3.326   1.180 -0.1212  0.1205  0.2137
 5429TIP3    H137922   3.802   3.345   1.225  1.0749  0.0925  2.6190
 5429TIP3    H237923   3.945   3.305   1.251  2.0784  0.5990 -1.4295
 5430TIP3   OH237924   4.040   3.817   1.009  0.5763  0.3067  0.2584
 5430TIP3    H137925   4.032   3.734   1.055 -2.5951 -0.1925 -0.9472
 5430TIP3    H237926   4.058   3.792   0.918  0.6859  0.9861  0.0898
 5431TIP3   OH237927   3.474   3.571   8.238  0.4897  0.2663  0.4498
 5431TIP3    H137928   3.493   3.598   8.148  1.9625  0.5791  0.8285
 5431TIP3    H237929   3.556   3.587   8.285 -0.6597  1.3962  2.1508
 5432TIP3   OH237930   2.834   3.074   6.343 -0.5642 -0.2083 -0.3489
 5432TIP3    H137931   2.915   3.101   6.387  0.0273  0.5126 -1.8064
 5432TIP3    H237932   2.795   3.157   6.313 -1.7252 -0.5695  0.0948
 5433TIP3   OH237933   5.079   0.462   1.187  0.1610 -0.2710  0.1975
 5433TIP3    H137934   5.048   0.381   1.227  0.6352  0.1122  1.3778
 5433TIP3    H237935   5.005   0.523   1.196 -0.1896 -0.5601 -0.6753
 5434TIP3   OH237936   5.144   2.416   7.206  0.6444 -0.3435 -0.7785
 5434TIP3    H137937   5.162   2.446   7.295  0.7408  0.4343 -1.0451
 5434TIP3    H237938   5.168   2.324   7.205  0.8558 -0.2985 -0.0619
 5435TIP3   OH237939   5.070   1.308   0.162 -0.5134 -0.0324 -0.1438
 5435TIP3    H137940   5.017   1.331   0.086 -0.4325  3.2426  0.6375
 5435TIP3    H237941   5.010   1.262   0.220 -1.1327 -0.7346 -1.3074
 5436TIP3   OH237942   4.648   3.065   1.631 -0.0757 -0.2779 -0.2445
 5436TIP3    H137943   4.719   3.125   1.608 -0.8170  1.4523  1.5575
 5436TIP3    H237944   4.590   3.066   1.555  0.2133  0.8883 -0.4721
 5437TIP3   OH237945   0.425   4.257   7.758 -0.5969  0.0394 -0.1444
 5437TIP3    H137946   0.337   4.235   7.787 -0.8256 -0.2573 -1.0289
 5437TIP3    H237947   0.483   4.215   7.822 -1.0741  2.3507  1.9419
 5438TIP3   OH237948   1.642   3.629   2.637  0.2666  0.3005 -0.0395
 5438TIP3    H137949   1.697   3.560   2.600  0.2998  0.6579 -0.6618
 5438TIP3    H237950   1.700   3.677   2.696  0.4926  0.3781 -0.3248
 5439TIP3   OH237951   6.008   4.553   7.822 -0.2713 -0.1763 -0.1777
 5439TIP3    H137952   6.074   4.603   7.869 -0.2309  0.7021 -1.1340
 5439TIP3    H237953   6.043   4.464   7.819 -0.5710 -0.4096  1.9684
 5440TIP3   OH237954   0.567   3.301   1.528 -0.2448 -0.6541 -0.0408
 5440TIP3    H137955   0.527   3.282   1.443  2.2071 -1.8974 -1.0203
 5440TIP3    H237956   0.620   3.379   1.513  2.3733 -2.4089 -0.5214
 5441TIP3   OH237957   1.432   3.081   0.060  0.3362  0.0579 -0.0399
 5441TIP3    H137958   1.481   3.164   0.057  1.7507 -0.7644 -1.3295
 5441TIP3    H237959   1.485   3.021   0.007 -1.7195 -1.1163 -0.8645
 5442TIP3   OH237960   1.791   0.587   1.169  0.8221 -0.7066 -0.3504
 5442TIP3    H137961   1.823   0.674   1.195 -0.3486 -0.1266 -0.7671
 5442TIP3    H237962   1.868   0.530   1.176  1.0617 -0.1765  2.3306
 5443TIP3   OH237963   6.551   0.363   7.206  0.0926 -0.3642 -0.4392
 5443TIP3    H137964   6.550   0.341   7.113  0.5580  0.6853 -0.7150
 5443TIP3    H237965   6.626   0.422   7.216  1.2185 -1.9415  0.9815
 5444TIP3   OH237966   2.151   5.032   2.386  0.5017  0.1244  0.4601
 5444TIP3    H137967   2.240   5.028   2.350 -0.2315  0.2204 -1.4745
 5444TIP3    H237968   2.101   5.079   2.320 -1.2197 -0.8065  1.0543
 5445TIP3   OH237969   4.817   3.295   0.669  0.3404 -0.0689  0.2460
 5445TIP3    H137970   4.898   3.247   0.657  0.2240 -0.2248  0.0694
 5445TIP3    H237971   4.764   3.273   0.592  0.5408  0.8552 -0.1664
 5446TIP3   OH237972   1.528   2.339   7.580  0.0410  0.1717 -0.5531
 5446TIP3    H137973   1.477   2.411   7.614 -1.4021 -0.8680 -0.4180
 5446TIP3    H237974   1.493   2.261   7.623  2.9405 -0.4596  0.9195
 5447TIP3   OH237975   3.886   0.064   0.204 -0.0569  0.3938 -0.1249
 5447TIP3    H137976   3.973   0.060   0.163  0.3033  0.2815  0.6218
 5447TIP3    H237977   3.903   0.045   0.297 -1.0907 -1.3211 -0.2425
 5448TIP3   OH237978   6.160   1.667   1.353  0.2059 -0.0070  0.0167
 5448TIP3    H137979   6.161   1.693   1.445 -0.7858 -0.1363  0.0658
 5448TIP3    H237980   6.146   1.749   1.305 -1.2807 -0.1997  0.0905
 5449TIP3   OH237981   4.254   6.739   8.310  0.0336 -0.4275  0.9489
 5449TIP3    H137982   4.194   6.813   8.318 -0.7044 -1.0247  0.9493
 5449TIP3    H237983   4.199   6.666   8.284  0.8343 -0.8748  0.4986
 5450TIP3   OH237984   3.664   3.336   8.475  1.1581  0.2634  0.0691
 5450TIP3    H137985   3.742   3.320   8.528  0.9649 -1.4588 -0.1054
 5450TIP3    H237986   3.624   3.249   8.465 -1.0601  1.1445  0.5938
 5451TIP3   OH237987   4.758   3.892   1.147 -0.6341  0.6960  0.1812
 5451TIP3    H137988   4.725   3.815   1.193  0.0892 -0.3060 -0.9014
 5451TIP3    H237989   4.851   3.893   1.166 -0.4659  0.7172 -0.6023
 5452TIP3   OH237990   3.610   5.323   0.201 -0.0944  0.0015  0.1592
 5452TIP3    H137991   3.681   5.382   0.175 -0.4232  0.1232 -0.4997
 5452TIP3    H237992   3.553   5.377   0.257 -0.4653  0.3658 -0.5502
 5453TIP3   OH237993   4.872   5.849   7.316  0.3244 -0.0132  0.2361
 5453TIP3    H137994   4.906   5.932   7.351  0.2570  0.3902 -0.6379
 5453TIP3    H237995   4.801   5.875   7.257  0.3560 -0.6913 -0.1110
 5454TIP3   OH237996   4.091   2.001   8.178 -0.5750 -0.5160  0.2977
 5454TIP3    H137997   4.041   1.978   8.099 -2.5012 -0.9484  1.5797
 5454TIP3    H237998   4.064   2.091   8.197  1.7269  0.4894 -0.8360
 5455TIP3   OH237999   5.254   5.558   8.812  0.4102 -0.8040 -0.7986
 5455TIP3    H138000   5.197   5.616   8.863  1.9455  0.2691 -0.2048
 5455TIP3    H238001   5.254   5.596   8.724  1.5166  0.2252 -0.3792
 5456TIP3   OH238002   5.414   0.898   0.738  0.1083 -0.1199 -0.4059
 5456TIP3    H138003   5.324   0.883   0.710  0.3097  0.4209 -1.3926
 5456TIP3    H238004   5.427   0.992   0.728  0.7801 -0.1946 -0.2855
 5457TIP3   OH238005   3.778   1.920   2.283  0.6093  0.2140  0.1380
 5457TIP3    H138006   3.728   1.839   2.296  0.0931  0.5466  0.2324
 5457TIP3    H238007   3.754   1.950   2.195  0.4177  0.5288  0.2963
 5458TIP3   OH238008   4.197   0.685   0.504  0.0553 -0.2277 -0.4366
 5458TIP3    H138009   4.272   0.745   0.502 -0.7816  1.0280  1.9888
 5458TIP3    H238010   4.183   0.667   0.597 -2.3309 -0.8438 -0.8468
 5459TIP3   OH238011   3.704   2.371   7.311  0.0425 -0.2200  0.5334
 5459TIP3    H138012   3.706   2.374   7.215 -0.5580 -2.3716  0.3978
 5459TIP3    H238013   3.790   2.338   7.336  0.1784  0.2861  0.7554
 5460TIP3   OH238014   3.075   0.267   8.454  0.5941 -0.3404  0.0851
 5460TIP3    H138015   2.984   0.241   8.470 -0.0196  2.0637  1.0030
 5460TIP3    H238016   3.104   0.211   8.382 -1.9786 -0.4448 -0.9830
 5461TIP3   OH238017   4.120   6.350   6.948 -0.5262  0.3059  0.0569
 5461TIP3    H138018   4.046   6.400   6.914  0.3355  0.4882 -1.6558
 5461TIP3    H238019   4.108   6.263   6.910  1.2759  0.9177 -2.1220
 5462TIP3   OH238020   6.069   4.977   0.937  0.3122 -0.2086 -0.2443
 5462TIP3    H138021   6.104   4.934   0.859  1.3579  0.0843  0.0526
 5462TIP3    H238022   5.982   4.937   0.949  0.5817 -1.0334 -0.9263
 5463TIP3   OH238023   6.607   6.090   2.038 -0.6056 -0.5631 -0.5092
 5463TIP3    H138024   6.654   6.173   2.048  1.2225 -1.7365  1.2118
 5463TIP3    H238025   6.548   6.086   2.113  0.6877 -1.6290  0.4931
 5464TIP3   OH238026   5.130   2.406   8.643  0.1775 -0.6342  0.4588
 5464TIP3    H138027   5.096   2.324   8.678 -0.1524 -0.6858  0.0220
 5464TIP3    H238028   5.127   2.467   8.717 -0.2819 -0.8102  0.5850
 5465TIP3   OH238029   1.211   3.559   0.419  0.3890 -0.2460  0.5511
 5465TIP3    H138030   1.187   3.600   0.336  1.6337 -0.4476  0.0709
 5465TIP3    H238031   1.249   3.629   0.471 -3.5608  0.7793  2.4444
 5466TIP3   OH238032   2.009   2.779   8.173 -0.5406  0.0125 -0.2533
 5466TIP3    H138033   2.065   2.814   8.104  0.3531 -0.2642  0.3292
 5466TIP3    H238034   2.068   2.756   8.244 -1.4667  0.4433  0.6860
 5467TIP3   OH238035   3.317   1.243   7.338 -0.4388 -0.1224  0.8089
 5467TIP3    H138036   3.336   1.195   7.419 -1.6698 -0.2297  1.0422
 5467TIP3    H238037   3.225   1.267   7.344 -0.2320  0.9753  0.0048
 5468TIP3   OH238038   3.179   2.345   0.768  0.1739  0.2408  0.2246
 5468TIP3    H138039   3.112   2.352   0.700 -0.4361 -1.0021  0.6661
 5468TIP3    H238040   3.182   2.432   0.807 -0.2630  0.6634 -0.6438
 5469TIP3   OH238041   0.200   2.815   0.094 -0.1727 -0.5471 -0.6678
 5469TIP3    H138042   0.155   2.793   0.175  2.7822  0.8445  1.5646
 5469TIP3    H238043   0.263   2.744   0.082 -0.4841 -0.6659 -1.7028
 5470TIP3   OH238044   2.647   2.687   7.628  0.4441 -0.0603 -0.1893
 5470TIP3    H138045   2.608   2.627   7.692 -0.9664 -0.8202 -1.6788
 5470TIP3    H238046   2.618   2.774   7.656 -1.8251 -0.5382 -0.8314
 5471TIP3   OH238047   3.748   5.591   7.442 -0.4873  0.1492 -0.5029
 5471TIP3    H138048   3.722   5.569   7.352  1.0319 -1.2631 -0.6316
 5471TIP3    H238049   3.681   5.549   7.496 -0.4945 -0.4017 -0.9278
 5472TIP3   OH238050   5.632   4.780   8.155  0.3854  0.3887 -0.4467
 5472TIP3    H138051   5.677   4.785   8.239 -2.0405 -0.3869  0.9920
 5472TIP3    H238052   5.680   4.713   8.106  1.4920  0.4524  0.5181
 5473TIP3   OH238053   2.603   6.521   6.797  0.4344 -0.1250 -0.1305
 5473TIP3    H138054   2.650   6.440   6.819  0.4145 -0.3749 -0.9619
 5473TIP3    H238055   2.581   6.511   6.704  0.6277  0.9368 -0.3010
 5474TIP3   OH238056   3.577   4.543   7.892  0.1505  0.1345 -0.1105
 5474TIP3    H138057   3.528   4.551   7.973  0.2727 -0.9398  0.0924
 5474TIP3    H238058   3.559   4.453   7.862  1.0964  0.0962 -0.6136
 5475TIP3   OH238059   4.538   3.903   7.420 -0.1575 -0.8004 -0.0696
 5475TIP3    H138060   4.549   3.939   7.332  0.1535 -0.1807  0.2175
 5475TIP3    H238061   4.468   3.838   7.411  0.6716 -1.5910 -1.0159
 5476TIP3   OH238062   1.529   5.554   1.014  0.2346 -0.5567  0.8850
 5476TIP3    H138063   1.570   5.493   0.953  0.9917  0.9502 -0.1629
 5476TIP3    H238064   1.567   5.532   1.099  1.0451 -1.0647  0.4024
 5477TIP3   OH238065   0.070   3.222   8.262 -0.1284 -0.8942 -0.1907
 5477TIP3    H138066   0.130   3.257   8.328  0.6062 -0.5146 -1.0356
 5477TIP3    H238067   0.111   3.245   8.178 -0.7424 -1.8708 -0.7772
 5478TIP3   OH238068   6.216   5.017   7.637 -0.5130 -0.3668 -0.0275
 5478TIP3    H138069   6.173   5.060   7.712 -0.1395  0.6649 -0.3791
 5478TIP3    H238070   6.144   4.983   7.584 -0.7719 -3.8269  2.2521
 5479TIP3   OH238071   0.332   0.044   7.515 -0.2274 -0.1292 -0.2727
 5479TIP3    H138072   0.426   0.028   7.511  0.3956  1.4281  3.3776
 5479TIP3    H238073   0.322   0.135   7.484 -0.3860  0.0030  0.1599
 5480TIP3   OH238074   5.638   3.453   6.812 -0.0995 -0.1437  0.1060
 5480TIP3    H138075   5.585   3.495   6.745  1.3481  0.3317 -0.7838
 5480TIP3    H238076   5.596   3.368   6.826 -0.6959 -0.0639 -1.0611
 5481TIP3   OH238077   0.232   5.646   1.613  0.8775 -0.2955  0.0297
 5481TIP3    H138078   0.274   5.660   1.698  0.7519 -1.1121  0.2295
 5481TIP3    H238079   0.155   5.703   1.615  0.8454 -0.3545  0.4786
 5482TIP3   OH238080   3.131   3.376   0.697 -0.7433 -0.0739  0.2271
 5482TIP3    H138081   3.224   3.395   0.693 -0.5807 -0.8905 -0.0980
 5482TIP3    H238082   3.093   3.450   0.746  0.1967 -0.2343  1.2243
 5483TIP3   OH238083   5.342   6.141   8.091  0.0896 -0.1693 -0.4670
 5483TIP3    H138084   5.421   6.147   8.144  0.5242 -0.0968 -1.1174
 5483TIP3    H238085   5.276   6.106   8.151  0.8287 -1.0622 -0.1436
 5484TIP3   OH238086   0.909   5.246   8.143  0.5269  0.7999 -0.5766
 5484TIP3    H138087   0.820   5.253   8.109  0.2620  0.2039 -0.0254
 5484TIP3    H238088   0.946   5.334   8.131 -0.5500  1.4025  0.3062
 5485TIP3   OH238089   3.580   2.943   0.090  0.1090  0.0898 -0.8375
 5485TIP3    H138090   3.508   3.005   0.077 -0.2075 -0.1511 -0.2847
 5485TIP3    H238091   3.646   2.992   0.139  1.5297  1.1636 -3.5927
 5486TIP3   OH238092   4.275   0.616   0.807 -0.2893 -0.8431  0.6455
 5486TIP3    H138093   4.359   0.574   0.827  0.6777 -1.1746 -3.2739
 5486TIP3    H238094   4.290   0.709   0.825  2.4283 -0.2613 -3.2970
 5487TIP3   OH238095   0.377   2.648   8.180 -0.1527 -0.0418 -0.0004
 5487TIP3    H138096   0.446   2.646   8.246  1.8729 -0.9126 -2.0248
 5487TIP3    H238097   0.332   2.564   8.189  0.8731 -0.6494 -0.4842
 5488TIP3   OH238098   1.912   0.695   7.317  0.4890  0.3834  0.0928
 5488TIP3    H138099   1.860   0.618   7.340 -0.1985  1.0845  0.9807
 5488TIP3    H238100   1.876   0.765   7.372  2.6030  0.8324  1.0023
 5489TIP3   OH238101   6.588   6.257   6.950  0.6725 -0.0325  0.0409
 5489TIP3    H138102   6.493   6.262   6.948  0.6169  0.0889  1.8002
 5489TIP3    H238103   6.615   6.267   6.858 -1.0178 -0.6021 -0.5429
 5490TIP3   OH238104   2.950   4.045   7.974  0.1256  0.0949  0.0078
 5490TIP3    H138105   2.878   4.020   8.033  1.1708  0.1631  1.3458
 5490TIP3    H238106   2.907   4.096   7.905 -1.2046 -0.4527  0.3912
 5491TIP3   OH238107   6.369   1.893   7.344 -0.6520  0.0595 -0.8200
 5491TIP3    H138108   6.308   1.848   7.287 -1.8665  2.4713 -1.5455
 5491TIP3    H238109   6.327   1.891   7.430 -1.7206  1.5360 -1.2752
 5492TIP3   OH238110   1.744   1.378   8.385  0.2341 -0.0111  0.0072
 5492TIP3    H138111   1.723   1.442   8.452 -0.3059  0.5935 -0.7284
 5492TIP3    H238112   1.743   1.427   8.303 -1.4735 -1.1981 -0.7356
 5493TIP3   OH238113   0.005   3.464   7.950  0.2056 -0.2882 -0.0270
 5493TIP3    H138114   0.061   3.386   7.949  0.4543 -0.1713  1.7921
 5493TIP3    H238115  -0.080   3.432   7.919  0.2625 -1.3390  0.8229
 5494TIP3   OH238116   3.159   1.181   8.350  0.0421  1.5181 -0.1486
 5494TIP3    H138117   3.081   1.126   8.351  0.2781  1.1860 -0.0126
 5494TIP3    H238118   3.176   1.198   8.257 -1.1265  2.9272 -0.1423
 5495TIP3   OH238119   2.181   1.085   8.740  0.1211 -0.1858  0.5152
 5495TIP3    H138120   2.244   1.084   8.811  3.1093 -1.5210 -1.9225
 5495TIP3    H238121   2.169   1.177   8.718  0.0012  0.1656  1.9822
 5496TIP3   OH238122   6.231   4.004   1.854 -0.3861 -0.0656 -0.5771
 5496TIP3    H138123   6.283   3.933   1.890  2.2939  2.3403  0.7219
 5496TIP3    H238124   6.235   3.992   1.759  2.9534  0.1344 -0.5742
 5497TIP3   OH238125   4.600   2.355   1.734 -0.3915  0.4599 -0.3584
 5497TIP3    H138126   4.672   2.303   1.697 -1.2008 -0.8026 -0.2210
 5497TIP3    H238127   4.643   2.415   1.795  0.4909 -0.9198  0.4354
 5498TIP3   OH238128   4.851   1.739   0.255 -0.5456  0.2338  0.1199
 5498TIP3    H138129   4.863   1.811   0.192  0.5950 -1.3858 -1.6359
 5498TIP3    H238130   4.809   1.670   0.203 -1.0482 -0.5967  1.5914
 5499TIP3   OH238131   0.319   4.299   8.128  0.2935  0.4432 -0.0829
 5499TIP3    H138132   0.268   4.289   8.047 -0.3935 -0.4230  0.4465
 5499TIP3    H238133   0.260   4.272   8.198  1.8052 -1.7888  0.4677
 5500TIP3   OH238134   1.400   0.974   7.790  0.5023 -0.0120 -0.0783
 5500TIP3    H138135   1.360   1.056   7.817  1.8494  0.6121  0.1186
 5500TIP3    H238136   1.485   1.000   7.754  0.9402 -1.3109 -0.0241
 5501TIP3   OH238137   0.994   4.758   0.504 -0.2864  0.3759  0.8391
 5501TIP3    H138138   0.974   4.784   0.593 -1.5386  1.1329  0.3643
 5501TIP3    H238139   1.088   4.739   0.504 -0.2797  0.3366  2.3052
 5502TIP3   OH238140   3.203   3.468   7.848  0.1418 -0.7067  0.4785
 5502TIP3    H138141   3.231   3.485   7.758  3.7883  0.5876  1.6582
 5502TIP3    H238142   3.248   3.387   7.872 -0.5819 -0.8989  1.2258
 5503TIP3   OH238143   2.967   5.160   0.764 -0.1310 -0.0480 -0.0399
 5503TIP3    H138144   2.888   5.137   0.715  0.0780 -2.0586  0.4979
 5503TIP3    H238145   3.010   5.076   0.782  0.1374  0.6266  3.0442
 5504TIP3   OH238146   5.386   6.437   8.408  0.0941 -0.1977  0.3205
 5504TIP3    H138147   5.357   6.363   8.460  0.3678 -0.5970 -0.0799
 5504TIP3    H238148   5.464   6.405   8.362 -0.6046 -0.1289 -0.9588
 5505TIP3   OH238149   3.135   0.455   0.582  0.0328 -0.3236  0.3017
 5505TIP3    H138150   3.073   0.516   0.542  0.1847  1.4167  2.5104
 5505TIP3    H238151   3.202   0.441   0.515 -2.5224 -2.1621 -2.1073
 5506TIP3   OH238152   4.544   6.649   0.642  0.0545  0.6383  0.5553
 5506TIP3    H138153   4.505   6.607   0.719  0.6213  1.6105  1.3962
 5506TIP3    H238154   4.571   6.735   0.673 -3.3800  2.7522 -1.7398
 5507TIP3   OH238155   5.623   2.716   0.071  0.1539 -0.0250  0.1088
 5507TIP3    H138156   5.666   2.791   0.113 -1.3837 -0.0159  1.8144
 5507TIP3    H238157   5.597   2.660   0.145  1.4063 -2.3725 -1.1145
 5508TIP3   OH238158   0.633   0.053   8.137 -0.6036 -0.0725 -0.2514
 5508TIP3    H138159   0.726   0.040   8.157 -0.4017  0.6915 -0.6657
 5508TIP3    H238160   0.632   0.082   8.046 -1.1587  1.0279  0.0952
 5509TIP3   OH238161   1.932   4.698   8.273  0.0110  0.3633  0.9919
 5509TIP3    H138162   1.900   4.676   8.361 -0.6408  1.8687  1.1577
 5509TIP3    H238163   1.935   4.793   8.272 -0.3415  0.3828 -0.7356
 5510TIP3   OH238164   1.026   3.837   0.942  0.2538  0.1309  0.5734
 5510TIP3    H138165   1.065   3.901   1.002 -1.0148 -0.8414  2.5464
 5510TIP3    H238166   1.098   3.778   0.919  1.0400  1.2571  0.0997
 5511TIP3   OH238167   0.614   2.442   7.284 -0.5108 -0.2850  0.2620
 5511TIP3    H138168   0.677   2.391   7.335  0.9547  0.8990 -0.3046
 5511TIP3    H238169   0.640   2.427   7.193 -1.1136  0.1534  0.0128
 5512TIP3   OH238170   5.112   4.965   0.633 -0.6381 -0.2198 -0.1227
 5512TIP3    H138171   5.139   4.893   0.576 -0.8523 -0.0115 -0.4943
 5512TIP3    H238172   5.192   4.993   0.677 -0.6334 -0.9840  0.3732
 5513TIP3   OH238173   0.846   5.183   1.904  0.4984  0.0134 -0.0631
 5513TIP3    H138174   0.902   5.255   1.933 -1.0557  1.3397 -0.1836
 5513TIP3    H238175   0.893   5.142   1.832  1.5327  0.7630  0.1739
 5514TIP3   OH238176   1.710   0.930   8.012  0.2789 -0.2213  0.0229
 5514TIP3    H138177   1.693   0.892   8.099 -0.2200  0.7572  0.3751
 5514TIP3    H238178   1.760   0.863   7.966 -0.7606 -1.3950  0.5347
 5515TIP3   OH238179   3.268   5.318   8.616  0.0668  0.1487 -0.3157
 5515TIP3    H138180   3.208   5.258   8.660  1.8781 -0.3767  1.5990
 5515TIP3    H238181   3.308   5.266   8.546 -0.5482  0.0591 -0.6125
 5516TIP3   OH238182   0.264   2.690   2.339 -1.2569  0.2182 -1.0121
 5516TIP3    H138183   0.316   2.657   2.412 -2.1673 -2.6908 -1.5281
 5516TIP3    H238184   0.223   2.770   2.373 -2.2207 -1.3738  2.0042
 5517TIP3   OH238185   3.334   2.276   7.133 -0.1538  0.1052  0.1127
 5517TIP3    H138186   3.358   2.357   7.088  0.2859 -0.2105 -0.2379
 5517TIP3    H238187   3.239   2.269   7.121 -0.4823  1.4621  1.6760
 5518TIP3   OH238188   5.567   6.625   7.822 -0.1504  0.3044  0.0615
 5518TIP3    H138189   5.655   6.592   7.803 -0.5107 -0.0925 -1.0530
 5518TIP3    H238190   5.569   6.647   7.915  0.5321 -1.6229  0.5684
 5519TIP3   OH238191   3.379   0.759   8.590 -0.2802  0.0087  0.1956
 5519TIP3    H138192   3.393   0.844   8.548  0.7931  0.4967  1.4507
 5519TIP3    H238193   3.292   0.765   8.629 -0.8571 -0.0722 -1.0482
 5520TIP3   OH238194   1.004   2.742   0.169 -0.1523  0.1099  0.3413
 5520TIP3    H138195   1.069   2.813   0.174 -0.4732  0.3453  1.4798
 5520TIP3    H238196   0.999   2.721   0.076  0.0667  1.4703 -0.0036
 5521TIP3   OH238197   2.199   3.857   8.515 -0.1724 -0.0212  0.1179
 5521TIP3    H138198   2.181   3.775   8.561 -0.9802  0.2686  0.3380
 5521TIP3    H238199   2.143   3.854   8.438  0.8075 -0.2760 -0.6031
 5522TIP3   OH238200   0.322   6.632   1.946  0.9082  0.8217 -0.4244
 5522TIP3    H138201   0.286   6.567   2.006  0.0341  1.9718  0.3448
 5522TIP3    H238202   0.377   6.688   2.001 -1.2215  2.9248 -0.2489
 5523TIP3   OH238203   4.556   1.608   7.802 -0.0544  0.3088 -0.0957
 5523TIP3    H138204   4.489   1.563   7.853 -0.9117 -0.0182 -1.4578
 5523TIP3    H238205   4.555   1.564   7.717  2.1447  0.0698 -0.0427
 5524TIP3   OH238206   5.085   2.938   1.283  0.0596  0.2493  0.0359
 5524TIP3    H138207   5.146   2.976   1.219  0.3870 -1.2185 -0.5697
 5524TIP3    H238208   5.140   2.909   1.355 -0.2059  1.0707  0.5750
 5525TIP3   OH238209   4.673   3.915   0.686 -0.0779  0.1230 -0.5059
 5525TIP3    H138210   4.660   3.923   0.780  0.1470  0.0231 -0.4677
 5525TIP3    H238211   4.755   3.868   0.676  0.4789  1.1302 -0.7683
 5526TIP3   OH238212   3.717   4.961   1.635 -0.4541  0.1580 -0.2502
 5526TIP3    H138213   3.693   5.050   1.607  1.7718  1.4718  1.6806
 5526TIP3    H238214   3.709   4.963   1.730  1.3186 -1.1458 -0.0238
 5527TIP3   OH238215   4.071   1.071   7.614 -0.2926 -0.1361  0.1908
 5527TIP3    H138216   4.065   1.125   7.535  0.1052 -1.1051 -0.5383
 5527TIP3    H238217   4.052   0.982   7.582  1.4319 -0.7957  0.8655
 5528TIP3   OH238218   6.011   4.794   8.862  0.0619 -0.2940 -0.0895
 5528TIP3    H138219   5.921   4.807   8.834 -0.1662  1.4325  1.2296
 5528TIP3    H238220   6.006   4.730   8.933 -0.0322 -0.7260 -0.4880
 5529TIP3   OH238221   4.802   4.917   1.858 -0.0418 -0.0642  0.3763
 5529TIP3    H138222   4.731   4.864   1.896 -0.1479  0.3057  0.7038
 5529TIP3    H238223   4.771   5.007   1.866  0.3873  0.0873  0.3537
 5530TIP3   OH238224   0.143   2.286   0.032 -0.1527  0.4256 -0.2373
 5530TIP3    H138225   0.125   2.255  -0.057  1.0725 -1.2525  0.0443
 5530TIP3    H238226   0.085   2.361   0.044 -1.2621 -0.1018 -1.9922
 5531TIP3   OH238227   0.824   4.837   2.315 -0.7164 -0.3337 -0.5778
 5531TIP3    H138228   0.863   4.750   2.319 -1.0545 -0.4722 -0.1936
 5531TIP3    H238229   0.729   4.821   2.321 -0.7346  0.1185  0.5385
 5532TIP3   OH238230   0.147   4.926   1.857  0.1576  0.0135 -0.0026
 5532TIP3    H138231   0.195   5.003   1.827 -1.8099  1.2416 -0.1787
 5532TIP3    H238232   0.060   4.935   1.819 -1.5652  0.0570  3.5165
 5533TIP3   OH238233   2.675   2.628   2.263 -0.2085  0.0673  0.3404
 5533TIP3    H138234   2.619   2.671   2.328  0.0585  0.4034  0.3470
 5533TIP3    H238235   2.613   2.584   2.205 -0.4695  0.1856  0.5227
 5534TIP3   OH238236   3.432   2.281   1.339  0.3692  0.0586  0.5595
 5534TIP3    H138237   3.448   2.254   1.430 -0.2622  0.1381  0.7007
 5534TIP3    H238238   3.410   2.374   1.346 -0.1255 -0.0432  0.3783
 5535TIP3   OH238239   6.427   3.088   7.026  0.1717 -0.0165 -0.1343
 5535TIP3    H138240   6.462   3.100   7.114  0.6769 -1.1308 -0.1615
 5535TIP3    H238241   6.504   3.088   6.969 -0.1812  1.0374 -0.6258
 5536TIP3   OH238242   2.273   0.851   1.799  0.4047 -0.3975  0.0966
 5536TIP3    H138243   2.261   0.936   1.757  0.0666 -0.6726 -0.3824
 5536TIP3    H238244   2.204   0.846   1.864 -0.7783 -1.0685 -1.1573
 5537TIP3   OH238245   3.219   5.612   1.156  0.5131 -0.3254 -0.2494
 5537TIP3    H138246   3.246   5.667   1.083  0.8713  1.3750  1.1151
 5537TIP3    H238247   3.234   5.522   1.125 -0.6524  0.2486 -2.7451
 5538TIP3   OH238248   5.952   5.260   2.260  0.6067  0.2136  0.1093
 5538TIP3    H138249   5.889   5.297   2.199 -0.1506  1.8092  1.7816
 5538TIP3    H238250   6.012   5.331   2.280  1.7225 -0.6992  0.1500
 5539TIP3   OH238251   1.813   3.540   0.487 -0.3406  0.2435  0.0368
 5539TIP3    H138252   1.795   3.591   0.566 -3.6257  0.6996 -0.8658
 5539TIP3    H238253   1.755   3.578   0.420  2.1878 -0.1900 -2.6340
 5540TIP3   OH238254   4.929   6.059   7.490  0.5957  0.6390 -0.0387
 5540TIP3    H138255   4.988   6.130   7.514 -0.4386  0.6885  2.7718
 5540TIP3    H238256   4.898   6.024   7.574 -0.8489 -1.5034 -1.3593
 5541TIP3   OH238257   5.574   4.381   7.308  0.1465  0.3426  0.0230
 5541TIP3    H138258   5.624   4.427   7.375 -0.0760  0.0526  0.3898
 5541TIP3    H238259   5.484   4.382   7.340  0.1351 -0.3379  0.0364
 5542TIP3   OH238260   2.973   0.141   7.504  0.2761 -0.2000 -0.5507
 5542TIP3    H138261   2.977   0.060   7.555  2.0577  0.3451  0.2639
 5542TIP3    H238262   3.064   0.156   7.477  0.0060  1.5929 -0.5679
 5543TIP3   OH238263   5.240   1.578   1.657  0.3865  0.1723  0.4674
 5543TIP3    H138264   5.330   1.607   1.674 -0.1798  1.7589  0.9172
 5543TIP3    H238265   5.209   1.546   1.742 -0.2974  2.0356  0.9564
 5544TIP3   OH238266   1.038   3.224   1.542 -0.4158  0.4590 -0.6715
 5544TIP3    H138267   1.127   3.232   1.575 -1.1206 -0.3823  1.6005
 5544TIP3    H238268   1.049   3.197   1.450  1.7239 -2.2326  0.2320
 5545TIP3   OH238269   2.964   6.277   0.407 -0.0117 -0.7392 -0.0326
 5545TIP3    H138270   3.052   6.291   0.373 -0.0707 -1.5399 -0.5488
 5545TIP3    H238271   2.943   6.357   0.454  0.2215  0.2701 -1.5821
 5546TIP3   OH238272   6.526   4.297   7.023 -0.1260  0.4098  0.2751
 5546TIP3    H138273   6.549   4.227   6.962  0.7196  0.9929 -0.1120
 5546TIP3    H238274   6.495   4.253   7.102  0.3987 -0.3992  0.0366
 5547TIP3   OH238275   2.849   0.541   7.101  0.0365  0.8851  0.1045
 5547TIP3    H138276   2.939   0.567   7.085  0.6311 -1.0456  0.1118
 5547TIP3    H238277   2.800   0.579   7.028  1.1121  0.6577 -0.7576
 5548TIP3   OH238278   5.171   5.947   8.659  0.3450  0.2822  0.0296
 5548TIP3    H138279   5.163   6.022   8.599  1.1724  1.1114  0.9125
 5548TIP3    H238280   5.264   5.927   8.659  0.4165  0.5596  1.3432
 5549TIP3   OH238281   5.221   0.053   7.412 -0.2045 -0.5790 -0.3306
 5549TIP3    H138282   5.286  -0.017   7.416  0.3607 -0.0150  0.7586
 5549TIP3    H238283   5.252   0.112   7.344  1.4117  0.5946  1.3300
 5550TIP3   OH238284   2.252   5.332   8.661 -0.2316 -0.0016  0.2166
 5550TIP3    H138285   2.259   5.419   8.700 -0.3379  0.2980 -0.4339
 5550TIP3    H238286   2.336   5.290   8.682 -0.0263  0.3954  0.1964
 5551TIP3   OH238287   3.132   0.435   7.742 -0.2177 -0.1725  0.3365
 5551TIP3    H138288   3.223   0.406   7.744 -0.7886 -2.1365  2.8448
 5551TIP3    H238289   3.118   0.477   7.826 -1.6740 -0.0109  0.0494
 5552TIP3   OH238290   5.378   4.622   1.891  0.5727  0.4370 -0.2351
 5552TIP3    H138291   5.335   4.537   1.888  1.4573 -0.0030 -1.1109
 5552TIP3    H238292   5.365   4.659   1.804  0.7370  0.9220 -0.0577
 5553TIP3   OH238293   1.559   0.420   0.226  0.1778 -0.3515 -0.2603
 5553TIP3    H138294   1.583   0.334   0.260 -0.4215 -1.6605 -2.8716
 5553TIP3    H238295   1.633   0.445   0.170 -0.2781  0.1791 -0.6332
 5554TIP3   OH238296   4.180   4.044   8.348 -0.0144  0.1642 -0.1412
 5554TIP3    H138297   4.148   4.087   8.428 -0.4314  0.0052 -0.2258
 5554TIP3    H238298   4.276   4.045   8.358 -0.0949 -1.2053  1.0696
 5555TIP3   OH238299   1.064   1.668   8.287 -0.2682  0.3364  0.4003
 5555TIP3    H138300   1.042   1.748   8.336 -1.0907 -0.0250  0.6372
 5555TIP3    H238301   1.093   1.699   8.202 -1.0344  0.8794  0.3262
 5556TIP3   OH238302   2.690   1.518   8.164 -0.4867 -0.0392  0.1985
 5556TIP3    H138303   2.656   1.430   8.147 -1.4248  0.3855 -0.1495
 5556TIP3    H238304   2.774   1.502   8.208  1.0146 -1.2028 -2.7214
 5557TIP3   OH238305   2.393   1.302   2.234  0.0787 -0.0285 -1.0130
 5557TIP3    H138306   2.305   1.273   2.259 -0.1321 -0.5200 -2.2054
 5557TIP3    H238307   2.381   1.392   2.205  0.0113 -0.0093 -0.9257
 5558TIP3   OH238308   5.842   1.463   8.219  0.4223  0.0313  0.3102
 5558TIP3    H138309   5.918   1.463   8.161 -0.0467 -0.7136 -0.3165
 5558TIP3    H238310   5.801   1.377   8.206  0.1641 -0.0617  1.5533
 5559TIP3   OH238311   5.622   3.854   8.620  0.0335  0.3520  0.3559
 5559TIP3    H138312   5.676   3.802   8.560  1.2847  0.4478  1.3835
 5559TIP3    H238313   5.675   3.931   8.641 -1.0262  1.1066  0.3777
 5560TIP3   OH238314   4.382   0.533   1.838  0.0934 -0.1877  0.3116
 5560TIP3    H138315   4.349   0.622   1.857 -2.8044 -1.1655  0.4072
 5560TIP3    H238316   4.331   0.476   1.896 -0.1413 -2.1497 -1.6886
 5561TIP3   OH238317   2.512   1.780   7.885  0.1156  0.2338 -0.0387
 5561TIP3    H138318   2.542   1.795   7.975  0.3564  0.2621 -0.1227
 5561TIP3    H238319   2.462   1.859   7.863 -0.5172 -0.0580  0.3028
 5562TIP3   OH238320   1.676   5.873   6.731  0.1095 -0.1872 -0.1334
 5562TIP3    H138321   1.664   5.815   6.656  0.2228 -1.2142  0.6170
 5562TIP3    H238322   1.598   5.929   6.730  1.4617  1.8386 -2.6876
 5563TIP3   OH238323   5.281   3.364   8.050 -0.8164 -0.6067 -0.3824
 5563TIP3    H138324   5.296   3.425   8.123  0.1812  0.2260 -1.2513
 5563TIP3    H238325   5.186   3.368   8.035 -0.5853  2.2262 -1.6287
 5564TIP3   OH238326   2.929   0.585   0.978 -0.2441  0.4720 -0.1340
 5564TIP3    H138327   2.949   0.617   1.066  0.9047 -0.0664 -0.1758
 5564TIP3    H238328   2.964   0.496   0.976 -3.1071 -0.7556 -0.1252
 5565TIP3   OH238329   3.184   0.433   6.742 -0.2622  0.3054  0.1531
 5565TIP3    H138330   3.165   0.413   6.651 -1.2368 -0.7005  0.5503
 5565TIP3    H238331   3.277   0.413   6.752  0.3354  2.2436 -1.0560
 5566TIP3   OH238332   1.936   6.317   0.094  0.2276  0.6404 -0.0142
 5566TIP3    H138333   2.026   6.333   0.064  0.3429 -1.0102 -0.6572
 5566TIP3    H238334   1.917   6.390   0.153  0.7991  2.8436 -2.3624
 5567TIP3   OH238335   5.004   2.449   2.589  0.4556 -0.0696  0.0797
 5567TIP3    H138336   5.036   2.481   2.505 -0.0346  3.2786  0.9909
 5567TIP3    H238337   4.909   2.445   2.578  0.5730 -3.0753 -0.4967
 5568TIP3   OH238338   2.442   6.683   0.783  0.0915  0.1368  0.1888
 5568TIP3    H138339   2.403   6.696   0.870 -1.8299  0.7875 -0.7091
 5568TIP3    H238340   2.416   6.761   0.734  0.8781 -0.3776 -1.0681
 5569TIP3   OH238341   3.433   1.695   8.751 -0.0222  0.2043 -0.7265
 5569TIP3    H138342   3.457   1.659   8.666  0.7208  0.4509 -0.6331
 5569TIP3    H238343   3.349   1.738   8.737  0.0369  0.1323 -1.3062
 5570TIP3   OH238344   4.656   4.245   6.462  0.0811  0.2330 -0.3442
 5570TIP3    H138345   4.565   4.276   6.471 -0.3914 -1.2078  0.0572
 5570TIP3    H238346   4.648   4.155   6.430  1.4745  1.0944 -3.4621
 5571TIP3   OH238347   5.292   4.676   0.238  0.1916 -0.3067 -0.3585
 5571TIP3    H138348   5.293   4.658   0.144  1.3907  0.7405 -0.5742
 5571TIP3    H238349   5.365   4.624   0.273  0.3666  0.0607 -0.1695
 5572TIP3   OH238350   2.336   4.714   0.470  0.2848 -0.2648  0.2053
 5572TIP3    H138351   2.423   4.678   0.456  1.2356  1.0599  2.3126
 5572TIP3    H238352   2.324   4.776   0.399  1.1891 -0.2423  0.0621
 5573TIP3   OH238353   4.232   0.886   8.267 -0.2966 -0.0552 -0.5201
 5573TIP3    H138354   4.168   0.867   8.198  0.8326 -0.3852 -1.5243
 5573TIP3    H238355   4.315   0.894   8.220  0.3705  0.5580  0.7253
 5574TIP3   OH238356   2.657   3.310   7.314 -0.2442 -0.0573  0.5981
 5574TIP3    H138357   2.675   3.321   7.408 -1.0905 -0.4793  0.8219
 5574TIP3    H238358   2.566   3.280   7.311  0.0057 -0.7402 -0.3277
 5575TIP3   OH238359   2.008   2.421   8.260 -0.2270 -0.4695 -0.0179
 5575TIP3    H138360   1.993   2.455   8.172 -0.8679  2.3583  1.0913
 5575TIP3    H238361   2.103   2.409   8.264 -0.2870 -1.8156 -1.4289
 5576TIP3   OH238362   5.282   2.987   1.109 -0.0857 -0.1532  0.0704
 5576TIP3    H138363   5.320   3.071   1.083 -0.5335  0.0482  0.0637
 5576TIP3    H238364   5.316   2.924   1.045 -0.8110  0.2583 -0.7446
 5577TIP3   OH238365   4.369   1.997   0.884 -0.3428 -0.8697  0.6024
 5577TIP3    H138366   4.397   1.985   0.793 -0.5966  1.4734  0.1475
 5577TIP3    H238367   4.443   2.041   0.926 -1.0679  0.0885  0.9161
 5578TIP3   OH238368   1.334   1.846   8.236 -1.1464  0.0924 -0.5993
 5578TIP3    H138369   1.243   1.871   8.224 -1.3311 -0.5122 -0.5040
 5578TIP3    H238370   1.384   1.913   8.190 -1.6299  0.5229 -0.5030
 5579TIP3   OH238371   0.196   1.141   1.205  0.0535 -0.2602 -0.4428
 5579TIP3    H138372   0.242   1.075   1.153  0.6488  0.2617 -0.5801
 5579TIP3    H238373   0.201   1.221   1.153 -0.6121 -0.0824 -0.2474
 5580TIP3   OH238374   4.592   1.254   2.052  0.1721  0.3200 -0.1026
 5580TIP3    H138375   4.667   1.275   2.108 -0.3864  2.2145  0.0163
 5580TIP3    H238376   4.517   1.287   2.101 -0.4461  0.9426 -1.4435
 5581TIP3   OH238377   2.664   1.976   7.165  0.3888  0.7136  0.0656
 5581TIP3    H138378   2.622   1.918   7.101 -0.6376  1.0741  0.3786
 5581TIP3    H238379   2.703   2.046   7.112 -0.5467  1.0682 -0.1898
 5582TIP3   OH238380   4.938   4.489   1.175 -0.6197  0.1029 -0.4732
 5582TIP3    H138381   5.018   4.487   1.227 -0.0458 -0.7092 -1.3597
 5582TIP3    H238382   4.919   4.583   1.165 -0.1790  0.2858  0.3385
 5583TIP3   OH238383   5.159   5.964   1.532 -0.0490 -0.3372 -0.2143
 5583TIP3    H138384   5.254   5.978   1.543  0.0402 -0.7168 -0.4925
 5583TIP3    H238385   5.119   6.019   1.599  0.4005 -0.6757  0.3440
 5584TIP3   OH238386   6.366   5.306   2.591  0.8821 -0.3175  0.1305
 5584TIP3    H138387   6.432   5.367   2.558  1.6241 -1.1804 -0.0129
 5584TIP3    H238388   6.398   5.219   2.566 -0.3998 -0.7538 -0.1213
 5585TIP3   OH238389   4.653   5.456   1.483 -0.6198  0.5489  0.5316
 5585TIP3    H138390   4.635   5.548   1.503  1.8829  0.7704  2.2690
 5585TIP3    H238391   4.719   5.430   1.548  0.7246 -1.7008 -1.5428
 5586TIP3   OH238392   4.152   2.993   8.056  0.1639  0.3314 -0.1137
 5586TIP3    H138393   4.162   3.065   8.118 -2.1253  0.8497 -0.2671
 5586TIP3    H238394   4.237   2.989   8.011  0.0985  3.6167 -0.7997
 5587TIP3   OH238395   0.175   0.389   7.691  0.5256 -0.3795 -0.2998
 5587TIP3    H138396   0.153   0.393   7.598 -1.7343  0.9237  0.2065
 5587TIP3    H238397   0.134   0.309   7.722  1.7773 -1.1225 -0.4968
 5588TIP3   OH238398   4.901   1.938   0.092 -0.0010 -0.2602  0.3622
 5588TIP3    H138399   4.978   1.990   0.071 -0.6161  0.7538  0.5344
 5588TIP3    H238400   4.830   1.980   0.042 -0.4369 -1.2035  0.1643
 5589TIP3   OH238401   2.347   4.514   6.944  0.2677 -0.0513  0.5217
 5589TIP3    H138402   2.423   4.549   6.897  0.3901  0.2810  0.9657
 5589TIP3    H238403   2.330   4.577   7.013 -1.2249  0.5410 -0.3570
 5590TIP3   OH238404   4.069   0.235   7.423  0.5982  0.3754 -0.1023
 5590TIP3    H138405   4.002   0.181   7.382  0.0244  1.0099 -0.0255
 5590TIP3    H238406   4.021   0.310   7.459  0.8919 -0.6998  2.7792
 5591TIP3   OH238407   2.291   0.493   8.718 -0.2061 -0.3812 -0.4955
 5591TIP3    H138408   2.233   0.570   8.723 -0.7788 -0.8808  1.7576
 5591TIP3    H238409   2.246   0.427   8.771  0.9742 -1.8114 -1.2321
 5592TIP3   OH238410   1.969   1.972   7.757 -1.1012  0.1641 -0.2063
 5592TIP3    H138411   1.937   2.046   7.810  1.1914  0.0197  1.5054
 5592TIP3    H238412   2.003   2.014   7.677  1.0861  1.1577  1.1678
 5593TIP3   OH238413   5.018   3.581   0.914 -0.2265 -0.1100 -0.1154
 5593TIP3    H138414   5.011   3.606   1.006 -0.4153 -0.8598  0.0786
 5593TIP3    H238415   5.064   3.497   0.915 -0.9246 -0.5097 -0.6453
 5594TIP3   OH238416   2.200   4.737   7.479  0.7408  0.1907 -0.4878
 5594TIP3    H138417   2.238   4.651   7.498  0.0871 -0.5812 -2.3972
 5594TIP3    H238418   2.275   4.793   7.460  1.0896 -0.5947 -1.5275
 5595TIP3   OH238419   1.016   3.217   7.401  0.1469  0.0531 -0.3434
 5595TIP3    H138420   1.052   3.128   7.394 -0.0042 -0.0013 -0.4327
 5595TIP3    H238421   1.041   3.259   7.318 -0.4464 -0.1513 -0.6312
 5596TIP3   OH238422   5.829   0.678   6.835 -0.2002  0.1959  0.2320
 5596TIP3    H138423   5.845   0.769   6.810 -1.5584  1.0532  2.2078
 5596TIP3    H238424   5.913   0.647   6.870  0.2778  0.6565 -0.4794
 5597TIP3   OH238425   1.665   4.452   8.935 -0.1426  0.5316  0.0916
 5597TIP3    H138426   1.676   4.402   8.854 -0.1981  0.2970  0.2284
 5597TIP3    H238427   1.703   4.538   8.915  0.5641  0.2263  0.0695
 5598TIP3   OH238428   4.495   5.735   6.662 -0.1762 -0.2322  0.3571
 5598TIP3    H138429   4.423   5.699   6.610  0.8854  0.5464 -1.7392
 5598TIP3    H238430   4.502   5.826   6.634  0.7832  0.0683  1.5023
 5599TIP3   OH238431   2.268   5.733   7.756 -0.4533 -0.2720  0.3375
 5599TIP3    H138432   2.193   5.745   7.815 -1.2569  1.0258 -0.8797
 5599TIP3    H238433   2.251   5.793   7.684  1.2094 -0.7998 -0.5375
 5600TIP3   OH238434   1.753   5.022   1.901  0.2595 -0.0269 -0.0343
 5600TIP3    H138435   1.658   5.035   1.890  0.2482 -0.7001 -0.8770
 5600TIP3    H238436   1.768   5.031   1.995 -0.4716  1.1341  0.0023
 5601TIP3   OH238437   6.427   3.709   8.028 -0.3123 -0.3906 -0.2792
 5601TIP3    H138438   6.478   3.780   7.991  0.1247 -0.1564  0.7252
 5601TIP3    H238439   6.484   3.672   8.096 -1.0969 -0.7466  0.1958
 5602TIP3   OH238440   1.049   2.510   7.072  0.2393  0.2451 -0.3450
 5602TIP3    H138441   1.062   2.417   7.091 -0.5773  0.3997  1.1140
 5602TIP3    H238442   1.001   2.511   6.988  2.0102 -0.5467 -1.4175
 5603TIP3   OH238443   3.339   6.233   1.899 -0.2515  0.2770  0.3279
 5603TIP3    H138444   3.416   6.175   1.905 -1.8506 -1.9293  0.6743
 5603TIP3    H238445   3.354   6.298   1.967 -0.2842 -2.2140  2.9321
 5604TIP3   OH238446   1.044   1.954   7.578 -0.2969  0.7687 -0.2257
 5604TIP3    H138447   0.962   1.945   7.627 -0.4314 -0.5195 -0.6347
 5604TIP3    H238448   1.031   2.031   7.523 -1.5575  0.1674 -0.8237
 5605TIP3   OH238449   1.078   3.703   7.816 -0.1202  0.3041 -0.1421
 5605TIP3    H138450   1.115   3.652   7.745  0.3148 -1.0517  1.0039
 5605TIP3    H238451   1.121   3.669   7.895 -1.7513  0.6494  0.9402
 5606TIP3   OH238452   3.776   3.893   7.321  0.4549 -0.6551  0.4314
 5606TIP3    H138453   3.797   3.824   7.383 -0.4655 -1.4559 -0.1072
 5606TIP3    H238454   3.766   3.847   7.237  1.5266  0.3750 -0.2960
 5607TIP3   OH238455   1.225   6.754   7.807  1.0326 -0.2537 -0.0792
 5607TIP3    H138456   1.272   6.805   7.874  0.1285  0.5790 -0.0674
 5607TIP3    H238457   1.265   6.781   7.724  0.2080  0.8942 -0.1224
 5608TIP3   OH238458   0.963   5.454   8.475  0.6282 -0.0049 -0.6993
 5608TIP3    H138459   0.874   5.425   8.456 -0.5245  1.6059  1.7123
 5608TIP3    H238460   0.981   5.420   8.563  2.4917 -0.4320 -1.1983
 5609TIP3   OH238461   6.089   6.360   7.418  0.1148  0.1963  0.0319
 5609TIP3    H138462   6.029   6.293   7.385 -0.9881  0.2214  1.8828
 5609TIP3    H238463   6.034   6.421   7.466  1.1928  2.1430 -1.0763
 5610TIP3   OH238464   5.827   3.232   2.052 -0.4555 -0.2388 -0.8734
 5610TIP3    H138465   5.776   3.171   2.104  2.3093 -1.7362  0.3299
 5610TIP3    H238466   5.859   3.297   2.115 -0.5193  0.4418 -1.5175
 5611TIP3   OH238467   1.980   2.112   0.341 -0.9524  1.2420  0.0332
 5611TIP3    H138468   1.926   2.131   0.264  0.9875 -0.0777 -1.7742
 5611TIP3    H238469   2.055   2.170   0.333 -0.4734  0.7293  0.6478
 5612TIP3   OH238470   0.080   3.146   6.269  0.4531  0.3095  0.3922
 5612TIP3    H138471   0.067   3.104   6.184  0.5311  1.5474 -0.2717
 5612TIP3    H238472   0.095   3.074   6.330  1.9613 -0.5684 -0.9213
 5613TIP3   OH238473   0.833   6.314   7.844 -0.1477 -0.3060 -0.3752
 5613TIP3    H138474   0.928   6.329   7.838 -0.1772  0.5398  0.9948
 5613TIP3    H238475   0.822   6.224   7.812  1.3635 -1.0836  1.0986
 5614TIP3   OH238476   5.524   2.822   6.441  0.1144  0.1651  0.7646
 5614TIP3    H138477   5.575   2.823   6.360 -1.4577 -0.1325 -0.2842
 5614TIP3    H238478   5.500   2.914   6.455  0.6521  0.2606  1.0812
 5615TIP3   OH238479   4.365   3.939   0.309  0.1870 -0.4413 -0.0508
 5615TIP3    H138480   4.455   3.957   0.337  0.9613 -1.4734 -1.7477
 5615TIP3    H238481   4.374   3.898   0.223 -1.8927 -1.0496 -0.0304
 5616TIP3   OH238482   4.647   0.612   2.111  0.2329 -0.2050  0.2113
 5616TIP3    H138483   4.662   0.539   2.171 -3.1819 -1.6959 -0.5259
 5616TIP3    H238484   4.559   0.643   2.132  0.2087  1.3845 -1.8616
 5617TIP3   OH238485   0.037   0.871   6.818  0.4009 -0.0697  0.3758
 5617TIP3    H138486  -0.004   0.953   6.790  0.3152 -0.8626 -2.1559
 5617TIP3    H238487  -0.015   0.842   6.893 -2.5190 -0.0505 -1.4707
 5618TIP3   OH238488   2.210   4.040   7.511  0.3875  0.6457  0.8262
 5618TIP3    H138489   2.226   4.119   7.563  0.5372  0.3955  1.1694
 5618TIP3    H238490   2.136   3.998   7.554 -1.4029  1.9052 -0.8872
 5619TIP3   OH238491   4.630   5.614   2.184  0.2497  0.3491  0.3345
 5619TIP3    H138492   4.690   5.688   2.196  0.1600  0.5045 -0.1676
 5619TIP3    H238493   4.687   5.537   2.190  0.5303  0.4998 -0.2664
 5620TIP3   OH238494   5.054   1.802   0.449 -0.5753 -0.0939 -0.1007
 5620TIP3    H138495   5.055   1.742   0.523  0.3715 -0.6646 -0.5593
 5620TIP3    H238496   4.988   1.765   0.390 -1.1850  0.2512  0.3463
 5621TIP3   OH238497   3.905   3.785   0.533  0.3817 -0.1654  0.1906
 5621TIP3    H138498   3.812   3.789   0.509  0.3599  2.4021  0.4203
 5621TIP3    H238499   3.950   3.827   0.459  1.0253  1.3359  1.3902
 5622TIP3   OH238500   0.623   5.121   1.049  0.2843 -0.0513 -0.1617
 5622TIP3    H138501   0.612   5.199   0.995 -1.4447  1.0414  1.6524
 5622TIP3    H238502   0.714   5.126   1.079  1.0036 -0.1987 -2.1145
 5623TIP3   OH238503   6.294   2.533   0.509 -0.0434  0.6536  0.0235
 5623TIP3    H138504   6.274   2.530   0.415 -0.1432 -0.9991  0.0727
 5623TIP3    H238505   6.255   2.615   0.539 -0.1334  1.1396 -1.3473
 5624TIP3   OH238506   5.737   2.387   7.893 -0.0772 -0.7122 -0.4410
 5624TIP3    H138507   5.804   2.446   7.929 -1.2445  0.6841 -0.4735
 5624TIP3    H238508   5.689   2.356   7.969 -0.7133 -0.0490 -0.5665
 5625TIP3   OH238509   1.286   2.223   7.117 -0.4873  0.1466  0.1085
 5625TIP3    H138510   1.267   2.264   7.033  1.1275  0.5407 -0.1046
 5625TIP3    H238511   1.298   2.296   7.178  0.5139 -0.0503  0.1673
 5626TIP3   OH238512   4.086   4.516   1.432 -0.1443 -0.1036  0.0994
 5626TIP3    H138513   4.154   4.449   1.433 -2.0393 -2.3358  4.0060
 5626TIP3    H238514   4.133   4.598   1.446  1.9652 -0.9497 -1.3743
 5627TIP3   OH238515   5.827   4.887   0.265 -0.5882 -0.2301  0.6990
 5627TIP3    H138516   5.772   4.906   0.341 -0.0652  0.2419  0.9665
 5627TIP3    H238517   5.776   4.825   0.213 -0.8922 -0.6781  1.5140
 5628TIP3   OH238518   2.162   1.161   8.427  0.1517 -0.1210 -0.1183
 5628TIP3    H138519   2.090   1.152   8.489  0.0071  0.9953 -0.0951
 5628TIP3    H238520   2.119   1.182   8.344  0.4548  1.1392  0.0244
 5629TIP3   OH238521   3.463   1.928   0.666  0.1076  0.3891 -0.3367
 5629TIP3    H138522   3.394   1.871   0.699  0.6471 -0.0364  0.0735
 5629TIP3    H238523   3.466   2.000   0.729  0.3449  0.1700 -0.0913
 5630TIP3   OH238524   3.774   6.296   1.340 -0.1845 -0.1048 -0.2712
 5630TIP3    H138525   3.681   6.288   1.321  0.0845 -0.2339 -1.6484
 5630TIP3    H238526   3.809   6.208   1.326  0.0992 -0.1323  0.5586
 5631TIP3   OH238527   3.111   4.388   6.433  0.0936  0.4724  0.1771
 5631TIP3    H138528   3.108   4.425   6.345  0.8828 -0.4226 -0.2356
 5631TIP3    H238529   3.092   4.295   6.421  2.3959 -0.1226  0.6453
 5632TIP3   OH238530   6.619   2.169   8.124  0.0235 -0.8981  0.3590
 5632TIP3    H138531   6.535   2.202   8.094 -0.8370 -2.6231  0.7626
 5632TIP3    H238532   6.661   2.135   8.044 -0.6321 -2.0299  0.4742
 5633TIP3   OH238533   5.915   0.297   1.970 -0.0804  0.3083  0.8546
 5633TIP3    H138534   6.007   0.318   1.951 -0.3699  0.5779 -0.3242
 5633TIP3    H238535   5.883   0.373   2.019  0.5349 -0.1535  2.0196
 5634TIP3   OH238536   1.179   5.636   0.098  0.5436 -0.0148  0.1236
 5634TIP3    H138537   1.156   5.714   0.047 -0.2176  0.5862  1.3322
 5634TIP3    H238538   1.107   5.575   0.082  0.7377 -0.1630 -0.1918
 5635TIP3   OH238539   1.452   2.172   1.481  0.1664  0.0116 -0.2670
 5635TIP3    H138540   1.469   2.240   1.546 -1.7703  2.5944 -2.2570
 5635TIP3    H238541   1.367   2.136   1.506 -0.3834  0.7164 -1.0600
 5636TIP3   OH238542   6.579   0.068   8.913  0.1787  0.2804 -0.2448
 5636TIP3    H138543   6.618   0.088   8.998 -1.7315 -2.5252  1.4480
 5636TIP3    H238544   6.641   0.007   8.873  1.1909  1.7744 -1.0711
 5637TIP3   OH238545   3.183   6.438   0.549 -0.1091 -0.0514  0.1339
 5637TIP3    H138546   3.167   6.531   0.531 -0.6411  0.0535  1.0659
 5637TIP3    H238547   3.169   6.430   0.644  1.2924 -0.8101  0.2992
 5638TIP3   OH238548   3.506   4.200   7.130 -0.2405  0.8949  0.2671
 5638TIP3    H138549   3.519   4.285   7.172  1.7878  1.4382 -1.3017
 5638TIP3    H238550   3.518   4.217   7.036 -2.1824 -0.7151 -0.3638
 5639TIP3   OH238551   4.789   5.896   1.925 -0.2133  0.0285 -0.0066
 5639TIP3    H138552   4.790   5.917   2.019 -0.1767  1.0610 -0.2355
 5639TIP3    H238553   4.697   5.883   1.904 -0.2148 -0.2984  0.1809
 5640TIP3   OH238554   1.866   3.390   1.111  0.0623  0.4430 -0.5399
 5640TIP3    H138555   1.909   3.430   1.035  0.3157 -1.0180 -1.2003
 5640TIP3    H238556   1.775   3.421   1.105  0.3146  1.1380 -0.8714
 5641TIP3   OH238557   1.300   2.950   1.204  0.1721 -0.6558 -0.2769
 5641TIP3    H138558   1.279   2.925   1.114  0.8432  0.1381 -0.6682
 5641TIP3    H238559   1.392   2.926   1.214  0.3434  0.0642 -0.0974
 5642TIP3   OH238560   2.008   5.651   1.056  0.0677  0.4869  0.3678
 5642TIP3    H138561   1.967   5.583   1.003  2.2217 -1.4000  0.9621
 5642TIP3    H238562   2.067   5.603   1.114  1.7533  2.9009  0.7621
 5643TIP3   OH238563   5.615   2.604   1.336 -0.1937  0.6425  0.2078
 5643TIP3    H138564   5.629   2.668   1.267 -0.9639  1.6852  0.9836
 5643TIP3    H238565   5.611   2.656   1.417 -0.0696 -0.4616  0.9506
 5644TIP3   OH238566   0.132   6.581   8.914 -0.5120 -0.0381  0.1656
 5644TIP3    H138567   0.178   6.503   8.881 -1.6501 -0.9051  0.5650
 5644TIP3    H238568   0.190   6.617   8.980  1.6544  1.5038 -2.3660
 5645TIP3   OH238569   0.212   0.474   7.095  0.2093  0.4673 -0.1167
 5645TIP3    H138570   0.303   0.447   7.103  0.3142  0.6663 -0.5815
 5645TIP3    H238571   0.199   0.486   7.001 -0.5552 -0.4490 -0.1412
 5646TIP3   OH238572   2.000   1.815   1.469 -0.0174  0.0854 -0.7436
 5646TIP3    H138573   1.931   1.879   1.452 -0.3274 -0.1407 -0.3550
 5646TIP3    H238574   2.042   1.802   1.384 -0.8390 -0.2261 -1.1107
 5647TIP3   OH238575   6.031   5.568   7.714  0.0337 -0.0856  0.0490
 5647TIP3    H138576   6.120   5.543   7.687  0.3699  1.8360 -0.7667
 5647TIP3    H238577   5.975   5.538   7.642  0.2850  0.5184 -0.4014
 5648TIP3   OH238578   6.258   3.781   7.315 -0.3528 -1.0583  0.0809
 5648TIP3    H138579   6.348   3.796   7.285 -0.6486  1.0081  0.0568
 5648TIP3    H238580   6.204   3.827   7.251 -1.4249 -2.0171  0.2726
 5649TIP3   OH238581   6.666   0.394   0.120  0.3825  0.4175  0.1511
 5649TIP3    H138582   6.719   0.336   0.065 -0.9662  1.6458 -2.6320
 5649TIP3    H238583   6.705   0.481   0.107 -0.0026  0.7525  1.1517
 5650TIP3   OH238584   2.048   4.051   1.534  0.1642  0.4210 -0.1065
 5650TIP3    H138585   2.066   4.143   1.549 -0.0549  0.3399  0.7041
 5650TIP3    H238586   2.032   4.015   1.622  1.8628 -0.7207 -0.2142
 5651TIP3   OH238587   2.956   3.856   1.543  0.0049 -0.3103 -0.6837
 5651TIP3    H138588   3.037   3.817   1.574  0.3518 -0.4642 -1.7169
 5651TIP3    H238589   2.955   3.837   1.449 -0.2083  1.4779 -1.0779
 5652TIP3   OH238590   3.474   6.485   0.503  0.0495 -0.1222  0.0949
 5652TIP3    H138591   3.387   6.474   0.540  0.2522 -1.5413  0.2071
 5652TIP3    H238592   3.461   6.478   0.408 -0.2321  1.8296 -0.0500
 5653TIP3   OH238593   2.389   3.426   8.596  0.2316 -0.4968  0.3542
 5653TIP3    H138594   2.449   3.357   8.623 -2.3641 -2.7098  0.8706
 5653TIP3    H238595   2.394   3.426   8.500  1.3188 -0.3207  0.3950
 5654TIP3   OH238596   6.066   3.779   0.916 -0.5290 -0.1893  1.0238
 5654TIP3    H138597   6.102   3.866   0.934 -1.2467  0.4135 -0.3158
 5654TIP3    H238598   6.101   3.756   0.829 -2.4886 -0.0207  0.1345
 5655TIP3   OH238599   4.899   3.802   0.353  0.0313  0.2077 -0.5461
 5655TIP3    H138600   4.855   3.721   0.379 -0.6879  0.8671  0.3511
 5655TIP3    H238601   4.977   3.805   0.409  0.5177 -0.2950 -1.1933
 5656TIP3   OH238602   5.329   2.157   0.727  0.0782  0.5574  0.1385
 5656TIP3    H138603   5.390   2.164   0.653  0.7029  0.6623  0.6555
 5656TIP3    H238604   5.259   2.219   0.706 -1.0699 -1.2118 -1.5817
 5657TIP3   OH238605   3.938   3.473   0.662  0.1164 -0.0815  0.2347
 5657TIP3    H138606   3.876   3.536   0.698 -0.3745 -1.0374  1.0964
 5657TIP3    H238607   3.939   3.492   0.568 -1.1562  0.2306  0.2672
 5658TIP3   OH238608   3.089   5.411   7.235  0.1280  0.9348 -0.8861
 5658TIP3    H138609   3.073   5.327   7.192  0.1100 -0.0193  0.8824
 5658TIP3    H238610   3.162   5.450   7.186  0.1331 -0.1086 -1.7401
 5659TIP3   OH238611   3.938   6.078   6.950  0.6023 -0.4528 -0.0124
 5659TIP3    H138612   3.869   6.070   6.884  0.2643 -0.2477  0.3159
 5659TIP3    H238613   4.010   6.024   6.916  0.2832 -0.6625 -0.3583
 5660TIP3   OH238614   3.127   4.127   8.803 -0.2283  0.4235  0.6812
 5660TIP3    H138615   3.111   4.104   8.711 -0.7431 -0.6651  1.0211
 5660TIP3    H238616   3.216   4.095   8.820  0.0412  1.0349  0.4449
 5661TIP3   OH238617   0.759   6.312   2.178  0.2264  0.4967 -0.4329
 5661TIP3    H138618   0.775   6.276   2.265 -2.0476  0.4786  0.0323
 5661TIP3    H238619   0.792   6.245   2.118 -3.0198 -2.1247  0.4160
 5662TIP3   OH238620   2.738   3.030   8.575  0.2131 -0.3058  0.2424
 5662TIP3    H138621   2.765   3.112   8.532 -0.1260 -0.5704 -0.5065
 5662TIP3    H238622   2.818   2.979   8.583  0.1507 -0.6456 -0.9862
 5663TIP3   OH238623   3.453   0.815   1.015  0.0884 -0.2170  0.0742
 5663TIP3    H138624   3.363   0.824   0.984  0.1555 -1.1275 -0.4241
 5663TIP3    H238625   3.459   0.724   1.044  0.9741 -0.2845 -0.3115
 5664TIP3   OH238626   5.231   0.234   1.130 -0.2583  0.1087 -0.0710
 5664TIP3    H138627   5.268   0.300   1.071  1.3050 -0.3471  0.3432
 5664TIP3    H238628   5.268   0.255   1.216  0.2581 -1.2622  0.0733
 5665TIP3   OH238629   2.338   4.529   7.511 -0.7332 -0.3697  0.3848
 5665TIP3    H138630   2.375   4.547   7.598  0.4753 -0.1375 -0.1621
 5665TIP3    H238631   2.330   4.433   7.508  2.2070 -0.6687 -0.3870
 5666TIP3   OH238632   6.609   2.419   8.490  0.1813  0.1542  0.1919
 5666TIP3    H138633   6.625   2.472   8.412  0.7353  0.7150  0.6703
 5666TIP3    H238634   6.654   2.336   8.472 -1.0678 -0.3484 -0.7466
 5667TIP3   OH238635   0.461   2.239   1.573  0.1806  0.2866  0.2109
 5667TIP3    H138636   0.514   2.293   1.515 -0.5176  0.2586 -0.4692
 5667TIP3    H238637   0.394   2.298   1.608 -0.8191 -0.1793 -0.8296
 5668TIP3   OH238638   1.811   5.911   8.626  0.9471  0.0740 -0.7854
 5668TIP3    H138639   1.783   5.831   8.581 -0.1555  0.1532 -0.2768
 5668TIP3    H238640   1.768   5.907   8.712 -0.9645  2.2568 -1.5404
 5669TIP3   OH238641   6.659   5.264   2.185 -0.1364  0.2675  0.1000
 5669TIP3    H138642   6.753   5.265   2.203 -0.2832  1.3593  0.9032
 5669TIP3    H238643   6.649   5.199   2.115  1.3470  0.9274 -0.7809
 5670TIP3   OH238644   1.761   0.701   2.017 -0.1974  0.1421 -0.1047
 5670TIP3    H138645   1.820   0.630   2.043 -3.0189 -1.5849  2.1899
 5670TIP3    H238646   1.771   0.767   2.086 -0.9240 -0.1641  0.3012
 5671TIP3   OH238647   1.501   4.176   7.874 -0.5237  0.2769  0.1423
 5671TIP3    H138648   1.421   4.192   7.823 -1.6643  2.6299  2.4309
 5671TIP3    H238649   1.544   4.262   7.878  0.5193 -0.2800  1.5073
 5672TIP3   OH238650   5.651   3.301   0.244 -0.2387  0.3920 -0.1544
 5672TIP3    H138651   5.629   3.352   0.166 -2.2307  0.1649  0.2175
 5672TIP3    H238652   5.711   3.357   0.293  1.4964  0.3238 -2.0538
 5673TIP3   OH238653   3.998   5.084   1.157  0.0041  0.2652  0.4172
 5673TIP3    H138654   4.003   5.149   1.227 -0.5247  0.1577  0.5575
 5673TIP3    H238655   4.089   5.073   1.129  0.1958  0.4771  0.9332
 5674TIP3   OH238656   0.983   6.062   1.272  0.1252 -0.0808 -1.1174
 5674TIP3    H138657   1.036   6.002   1.219 -0.8086  0.3623 -2.6203
 5674TIP3    H238658   0.896   6.060   1.231 -0.5781  0.4777  0.2734
 5675TIP3   OH238659   0.994   2.996   8.622  0.3697  0.3853 -0.5988
 5675TIP3    H138660   1.070   3.006   8.680  1.8288  1.8008 -2.6099
 5675TIP3    H238661   0.971   3.086   8.597 -1.1569 -0.1073 -1.0597
 5676TIP3   OH238662   4.851   2.187   8.129  0.2924  0.7523 -0.3374
 5676TIP3    H138663   4.789   2.115   8.114  1.7467 -0.1310 -2.7856
 5676TIP3    H238664   4.935   2.143   8.142  0.7695  1.9708  0.8398
 5677TIP3   OH238665   0.375   1.406   7.707 -0.3023  0.1348  0.2971
 5677TIP3    H138666   0.428   1.329   7.728 -0.0410 -0.0298 -0.8984
 5677TIP3    H238667   0.310   1.410   7.778  0.0675 -0.8095  0.7149
 5678TIP3   OH238668   1.083   4.855   0.220 -0.1181  0.1132 -0.7003
 5678TIP3    H138669   1.152   4.791   0.200 -0.5074 -0.3443 -0.6036
 5678TIP3    H238670   1.029   4.812   0.286 -1.2785 -0.0934 -1.7601
 5679TIP3   OH238671   2.300   1.503   8.270  0.0690 -0.1113  0.6697
 5679TIP3    H138672   2.246   1.510   8.348 -0.7616  0.7047  0.0437
 5679TIP3    H238673   2.247   1.542   8.200  2.0290  2.1337  0.3114
 5680TIP3   OH238674   2.663   4.474   7.520 -0.0065 -0.0244  0.4326
 5680TIP3    H138675   2.678   4.477   7.426  3.8552  0.3159  0.8888
 5680TIP3    H238676   2.632   4.562   7.543 -0.5302  0.0286 -0.4688
 5681TIP3   OH238677   4.571   6.686   8.362 -0.0457  0.2608 -0.2034
 5681TIP3    H138678   4.658   6.657   8.334 -0.0664 -1.5934  1.4313
 5681TIP3    H238679   4.512   6.651   8.295  0.4051  1.0982 -1.0532
 5682TIP3   OH238680   3.649   5.755   1.914 -0.2277 -0.2142 -0.6128
 5682TIP3    H138681   3.739   5.725   1.919 -0.1330  0.0804 -0.4953
 5682TIP3    H238682   3.598   5.689   1.961 -0.3904 -1.5686 -2.5411
 5683TIP3   OH238683   6.513   5.120   0.102  0.1821  0.1614 -0.1245
 5683TIP3    H138684   6.580   5.139   0.167 -0.4396 -0.3392  0.6770
 5683TIP3    H238685   6.434   5.161   0.135 -0.1839 -0.2397 -0.4770
 5684TIP3   OH238686   4.297   5.660   1.846 -0.2002  0.0560 -0.0411
 5684TIP3    H138687   4.219   5.699   1.808 -0.3892  1.5680  1.7234
 5684TIP3    H238688   4.312   5.710   1.926  0.7109 -2.2820  1.3660
 5685TIP3   OH238689   2.682   4.494   7.236  0.1230  0.4791  0.0631
 5685TIP3    H138690   2.711   4.407   7.208 -1.1230 -0.6311  1.9732
 5685TIP3    H238691   2.637   4.530   7.160 -0.7796 -1.2626 -0.2811
 5686TIP3   OH238692   4.779   3.653   7.502  0.1412 -0.1474  0.0255
 5686TIP3    H138693   4.751   3.603   7.425 -0.5098  0.0553  0.1269
 5686TIP3    H238694   4.824   3.588   7.557  1.5397 -0.0812 -0.9784
 5687TIP3   OH238695   3.373   3.138   0.655 -0.7018 -0.1090 -0.1455
 5687TIP3    H138696   3.410   3.195   0.723 -1.6612 -0.2974  0.5619
 5687TIP3    H238697   3.444   3.076   0.635 -0.6894 -0.6401  1.3810
 5688TIP3   OH238698   0.668   6.739   1.976  0.1390 -0.8060 -0.6094
 5688TIP3    H138699   0.716   6.798   1.919  1.5847  1.5356  2.7201
 5688TIP3    H238700   0.733   6.676   2.007  0.4516  0.4906  1.5400
 5689TIP3   OH238701   2.751   6.239   1.561 -0.0240  0.0964  0.1554
 5689TIP3    H138702   2.776   6.159   1.607  0.6173 -0.3586 -0.9567
 5689TIP3    H238703   2.689   6.211   1.494  0.9840  0.3584 -0.9129
 5690TIP3   OH238704   2.527   5.786   0.196 -0.4667  0.4804 -0.0982
 5690TIP3    H138705   2.565   5.757   0.279 -0.9611  0.8441  0.2669
 5690TIP3    H238706   2.602   5.801   0.139 -0.1136  0.3499  0.3248
 5691TIP3   OH238707   6.747   1.455   7.319 -0.1298  0.2182  0.2607
 5691TIP3    H138708   6.803   1.382   7.346  0.5159  0.0754 -1.3530
 5691TIP3    H238709   6.802   1.532   7.329  0.3455  0.1007 -1.1085
 5692TIP3   OH238710   6.551   2.420   0.471  0.2222  0.6138 -0.0793
 5692TIP3    H138711   6.563   2.395   0.379 -2.5004  2.2007 -0.9799
 5692TIP3    H238712   6.460   2.399   0.490 -0.1121  2.9522  1.3104
 5693TIP3   OH238713   5.997   1.465   2.243  0.0904 -0.4135  0.8831
 5693TIP3    H138714   5.953   1.527   2.184  0.3036 -0.9471  0.1537
 5693TIP3    H238715   5.964   1.488   2.330  0.1370  0.7069  0.6232
 5694TIP3   OH238716   2.300   0.354   8.455 -0.1577  0.5459  0.5183
 5694TIP3    H138717   2.257   0.434   8.485  0.3239  0.8134  0.5072
 5694TIP3    H238718   2.388   0.382   8.431  0.2779 -0.1242  1.2782
 5695TIP3   OH238719   6.497   4.838   1.564 -0.6456  0.3317 -0.2450
 5695TIP3    H138720   6.426   4.835   1.499  0.5461 -1.1459 -1.5661
 5695TIP3    H238721   6.503   4.748   1.597 -0.2821  0.7516  0.8825
 5696TIP3   OH238722   4.558   6.009   7.761 -0.2401 -0.1608  0.3582
 5696TIP3    H138723   4.622   5.939   7.753 -1.1052 -1.2561  2.3985
 5696TIP3    H238724   4.610   6.087   7.778  0.6432 -0.6041 -0.2229
 5697TIP3   OH238725   3.036   3.943   0.007 -0.0262  0.4700 -0.1758
 5697TIP3    H138726   3.064   3.857  -0.025  0.2500  0.3019  0.4814
 5697TIP3    H238727   3.081   4.006  -0.048  0.4428  0.1917 -0.1157
 5698TIP3   OH238728   5.553   1.336   1.650 -0.0027  0.2334 -0.1493
 5698TIP3    H138729   5.543   1.337   1.555  0.9614  0.5005 -0.2553
 5698TIP3    H238730   5.647   1.326   1.664 -0.2028 -0.5407  0.7817
 5699TIP3   OH238731   2.293   2.907   0.052  0.4348 -0.1616 -0.2643
 5699TIP3    H138732   2.225   2.964   0.089  1.2023  1.3650 -1.1196
 5699TIP3    H238733   2.373   2.960   0.054  1.1689 -1.1858 -1.1754
 5700TIP3   OH238734   1.782   6.456   8.866 -0.0815 -0.5564  0.9019
 5700TIP3    H138735   1.804   6.405   8.788  1.4832  1.1242  0.1746
 5700TIP3    H238736   1.805   6.398   8.939  0.7226 -1.2667  0.1222
 5701TIP3   OH238737   4.919   3.106   1.813 -0.0826 -0.0853 -0.0496
 5701TIP3    H138738   4.939   3.191   1.850 -1.8004 -0.6967  2.4746
 5701TIP3    H238739   4.967   3.104   1.730  1.7335  2.4452  0.8437
 5702TIP3   OH238740   4.313   6.701   7.871  0.1504  0.1827 -0.1632
 5702TIP3    H138741   4.247   6.642   7.909 -0.6062  2.0852  1.6338
 5702TIP3    H238742   4.269   6.738   7.794  0.7406 -1.7068 -1.4997
 5703TIP3   OH238743   2.485   6.004   5.786  0.0580 -0.5671  0.2113
 5703TIP3    H138744   2.478   6.035   5.877  2.0157  0.0773  0.1742
 5703TIP3    H238745   2.577   6.015   5.764 -0.5945  0.4525 -2.2872
 5704TIP3   OH238746   4.571   4.028   6.983  0.8487  0.2876 -0.3919
 5704TIP3    H138747   4.496   4.088   6.982  0.2217 -0.4806  0.1172
 5704TIP3    H238748   4.638   4.074   6.932  0.0387  0.9847 -0.8574
 5705TIP3   OH238749   2.580   0.395   0.533  0.5296 -0.4147 -0.2959
 5705TIP3    H138750   2.620   0.425   0.615  0.0992  0.0813 -0.2627
 5705TIP3    H238751   2.655   0.373   0.477  0.8635  0.7107 -0.3189
 5706TIP3   OH238752   3.255   1.856   1.729  0.0570 -0.1608 -0.2702
 5706TIP3    H138753   3.184   1.820   1.781 -0.6919  0.5204 -0.7971
 5706TIP3    H238754   3.294   1.923   1.785 -0.9580  0.8017 -0.6819
 5707TIP3   OH238755   4.728   4.948   2.768 -0.0312  0.0493  0.5616
 5707TIP3    H138756   4.760   4.866   2.730  0.0869  0.7658 -0.9268
 5707TIP3    H238757   4.633   4.939   2.767 -0.1005  0.6101 -1.2595
 5708TIP3   OH238758   2.802   6.308   6.733 -0.4372 -0.1246 -0.2363
 5708TIP3    H138759   2.813   6.221   6.772  0.4211 -0.1267 -0.4517
 5708TIP3    H238760   2.802   6.292   6.639  3.7383  0.3823 -0.5447
 5709TIP3   OH238761   3.705   3.133   0.487 -0.4981  0.3836  0.0580
 5709TIP3    H138762   3.643   3.076   0.534 -1.8761  1.1004 -0.8056
 5709TIP3    H238763   3.744   3.188   0.554 -2.4717  1.4337  0.4094
 5710TIP3   OH238764   1.647   3.293   7.691  0.1435 -0.3155  0.6545
 5710TIP3    H138765   1.728   3.332   7.658  0.1856  1.0111  2.2015
 5710TIP3    H238766   1.579   3.354   7.662 -0.1926 -0.9222  0.1666
 5711TIP3   OH238767   3.420   2.284   0.610 -0.3486 -0.3226 -0.1640
 5711TIP3    H138768   3.496   2.275   0.667 -0.4048 -0.3893 -0.0986
 5711TIP3    H238769   3.355   2.330   0.663 -0.2691 -0.0507 -0.3012
 5712TIP3   OH238770   1.345   1.224   6.937  0.2005 -0.4071 -0.2298
 5712TIP3    H138771   1.263   1.272   6.925  0.5379 -0.1509 -1.5895
 5712TIP3    H238772   1.380   1.214   6.849  1.4696 -0.8161  0.3070
 5713TIP3   OH238773   4.942   5.330   7.205 -0.5106  0.0736 -0.0728
 5713TIP3    H138774   5.007   5.292   7.146  0.7917 -1.1238  2.0089
 5713TIP3    H238775   4.938   5.268   7.279 -2.6706  1.0700  0.7184
 5714TIP3   OH238776   4.718   3.433   1.965 -0.2672 -0.4034 -0.3710
 5714TIP3    H138777   4.763   3.514   1.990 -1.5694 -0.1175  1.1939
 5714TIP3    H238778   4.773   3.363   2.001  0.0443 -0.1476 -0.3454
 5715TIP3   OH238779   1.306   4.322   1.337 -0.1440  0.0544 -0.4414
 5715TIP3    H138780   1.337   4.232   1.331  3.1720  1.0402 -0.2218
 5715TIP3    H238781   1.314   4.356   1.248 -0.9753  0.2695 -0.4405
 5716TIP3   OH238782   1.954   4.719   2.186  0.1308  0.4370 -0.4927
 5716TIP3    H138783   2.030   4.707   2.129  0.8358 -1.9859  0.8360
 5716TIP3    H238784   1.907   4.793   2.147  3.0891  2.0011 -1.4190
 5717TIP3   OH238785   4.696   1.054   0.491 -0.5583 -0.5669 -0.5209
 5717TIP3    H138786   4.693   0.971   0.538 -0.3603 -2.2629 -3.2877
 5717TIP3    H238787   4.631   1.108   0.535 -2.2351 -2.9378  0.1326
 5718TIP3   OH238788   0.869   0.573   6.445 -0.0664 -0.0203 -0.4433
 5718TIP3    H138789   0.815   0.651   6.430 -1.7591 -0.9893  0.3758
 5718TIP3    H238790   0.947   0.588   6.390 -0.5881  1.9686 -0.7424
 5719TIP3   OH238791   5.299   4.476   7.568  0.2625  0.3105 -0.1196
 5719TIP3    H138792   5.293   4.571   7.555  0.3321  0.2548 -0.5633
 5719TIP3    H238793   5.279   4.439   7.483  0.9119 -0.0538 -0.1183
 5720TIP3   OH238794   1.549   1.729   0.341  0.0085  0.4319 -0.2419
 5720TIP3    H138795   1.569   1.820   0.320  2.4537  0.5604  2.0433
 5720TIP3    H238796   1.595   1.678   0.275  2.4359  0.8841  0.9869
 5721TIP3   OH238797   6.734   1.027   1.157 -0.0499  0.0117  0.2384
 5721TIP3    H138798   6.813   1.080   1.171  0.2120 -0.1363 -0.6004
 5721TIP3    H238799   6.737   0.961   1.225  1.1214 -0.6375 -0.4102
 5722TIP3   OH238800   2.094   4.815   7.235 -0.2322 -0.4349  0.0847
 5722TIP3    H138801   2.120   4.785   7.322  1.2221  3.4945  1.2075
 5722TIP3    H238802   2.176   4.837   7.191 -1.0958  0.6773 -1.0401
 5723TIP3   OH238803   4.812   0.357   7.824  0.0967  0.2029 -0.0945
 5723TIP3    H138804   4.819   0.347   7.729 -1.7463  1.8787 -0.4680
 5723TIP3    H238805   4.719   0.351   7.843  0.5528 -1.9934  1.9240
 5724TIP3   OH238806   5.796   2.927   0.093  0.2965  0.8244  0.9199
 5724TIP3    H138807   5.870   2.939   0.034  0.4512 -0.2950  0.8652
 5724TIP3    H238808   5.731   2.990   0.063  0.0513 -0.2784 -0.9929
 5725TIP3   OH238809   5.752   1.856   6.564 -0.8383  0.5244 -0.4000
 5725TIP3    H138810   5.689   1.826   6.498 -2.2037  2.2577  0.0525
 5725TIP3    H238811   5.761   1.949   6.548  0.5159  0.5839  0.5022
 5726TIP3   OH238812   4.948   6.324   8.391  0.4888  0.3112  0.1518
 5726TIP3    H138813   4.962   6.330   8.297 -0.1517 -1.6161 -0.1079
 5726TIP3    H238814   5.030   6.287   8.425 -0.3428 -1.9445 -0.1155
 5727TIP3   OH238815   3.631   5.837   7.259 -0.3941 -0.5119  0.6968
 5727TIP3    H138816   3.631   5.748   7.223 -0.5146  0.2067 -1.2359
 5727TIP3    H238817   3.605   5.892   7.185 -1.3163  1.0496  2.1083
 5728TIP3   OH238818   1.475   3.247   8.337 -0.2252  0.1796 -0.3800
 5728TIP3    H138819   1.538   3.320   8.332 -1.6143  1.5057  0.5022
 5728TIP3    H238820   1.443   3.237   8.247  0.1399  0.5006 -0.5501
 5729TIP3   OH238821   0.820   0.850   1.457  0.3011  0.6291 -0.4491
 5729TIP3    H138822   0.834   0.874   1.548 -1.4226  1.2900 -0.3079
 5729TIP3    H238823   0.756   0.914   1.425 -0.0844 -0.3494 -1.7455
 5730TIP3   OH238824   4.069   1.728   8.286  0.5410  0.1653 -0.2376
 5730TIP3    H138825   4.098   1.809   8.243  0.5804 -0.1516 -0.8099
 5730TIP3    H238826   4.043   1.671   8.214 -0.9843  0.2323  0.2167
 5731TIP3   OH238827   5.743   1.184   8.192 -0.1581 -0.1268 -0.3781
 5731TIP3    H138828   5.765   1.091   8.193  1.2894  0.1623 -2.1797
 5731TIP3    H238829   5.647   1.186   8.191 -0.2021 -1.5867 -0.3920
 5732TIP3   OH238830   0.023   2.008   7.536  0.1919  0.2157 -0.0449
 5732TIP3    H138831  -0.032   1.974   7.466 -1.4082  0.9735  0.7826
 5732TIP3    H238832  -0.010   2.096   7.552  1.4509  0.5757  0.7067
 5733TIP3   OH238833   1.742   2.583   0.033  0.2102 -0.0180  0.1053
 5733TIP3    H138834   1.713   2.631  -0.045 -1.3107 -0.5818  0.2878
 5733TIP3    H238835   1.747   2.650   0.102 -2.2765 -0.0911  0.4563
 5734TIP3   OH238836   6.358   2.778   1.579  0.2286 -0.3560 -0.1186
 5734TIP3    H138837   6.271   2.741   1.562  1.0622 -2.0049 -1.1649
 5734TIP3    H238838   6.349   2.871   1.562 -1.2392 -0.5730 -0.6269
 5735TIP3   OH238839   3.887   2.186   0.384 -0.0139  0.0537 -0.0470
 5735TIP3    H138840   3.860   2.109   0.433  0.1836  1.6905  2.8582
 5735TIP3    H238841   3.820   2.196   0.316 -0.5690 -2.0670  0.1259
 5736TIP3   OH238842   6.248   1.802   0.756 -0.0476  0.5291 -0.3199
 5736TIP3    H138843   6.284   1.724   0.713 -2.7758 -0.9687 -0.1176
 5736TIP3    H238844   6.271   1.790   0.848 -0.9711 -0.4339 -0.1862
 5737TIP3   OH238845   6.543   1.606   0.768 -0.4597 -0.2146 -0.4138
 5737TIP3    H138846   6.532   1.661   0.691 -0.0363 -1.4113 -1.3645
 5737TIP3    H238847   6.471   1.543   0.763 -1.7378  1.0000  1.3809
 5738TIP3   OH238848   2.506   3.068   8.239  0.2805  0.9298 -0.0965
 5738TIP3    H138849   2.518   3.006   8.167  0.8037 -0.0996  0.8581
 5738TIP3    H238850   2.588   3.065   8.287 -0.2730  1.1589  0.8828
 5739TIP3   OH238851   0.467   1.933   7.196  0.6438 -0.0863  0.1816
 5739TIP3    H138852   0.492   1.891   7.114 -0.0096 -0.4030  0.1421
 5739TIP3    H238853   0.536   1.997   7.212 -0.4463  1.7492 -1.8998
 5740TIP3   OH238854   3.975   2.455   7.227 -0.4293  0.0198  0.0266
 5740TIP3    H138855   3.952   2.529   7.170 -2.4494 -0.7111 -0.1866
 5740TIP3    H238856   3.975   2.492   7.315  3.0995  1.2543 -0.3440
 5741TIP3   OH238857   3.233   5.057   6.942  0.1144  0.4597 -0.0915
 5741TIP3    H138858   3.200   5.101   7.020 -0.7474 -0.8647  0.3076
 5741TIP3    H238859   3.310   5.009   6.973 -0.3357 -0.2149 -0.0027
 5742TIP3   OH238860   2.114   4.745   0.178  0.2205 -0.3397 -0.0439
 5742TIP3    H138861   2.078   4.670   0.224 -0.8199  0.7517  0.9927
 5742TIP3    H238862   2.198   4.714   0.144  0.0738 -1.7928  0.8142
 5743TIP3   OH238863   5.593   0.942   8.464 -0.2288  0.0216 -0.0511
 5743TIP3    H138864   5.686   0.919   8.468 -0.3084 -0.1524  1.2314
 5743TIP3    H238865   5.549   0.875   8.517 -1.0663  0.1977 -0.5062
 5744TIP3   OH238866   3.749   5.936   8.664  0.2820 -0.0561 -0.4676
 5744TIP3    H138867   3.733   5.960   8.573  0.9534  1.1652 -0.2916
 5744TIP3    H238868   3.665   5.950   8.708 -0.2820 -1.4808 -1.0380
 5745TIP3   OH238869   2.981   3.890   2.202  0.3454 -0.2627  0.2980
 5745TIP3    H138870   2.973   3.811   2.149 -0.2472  0.4136 -0.6320
 5745TIP3    H238871   3.048   3.867   2.267  2.6560 -0.4515 -1.9699
 5746TIP3   OH238872   4.793   4.596   0.412  0.0783 -0.4689 -0.7990
 5746TIP3    H138873   4.853   4.523   0.426 -0.1475 -0.5250 -0.1093
 5746TIP3    H238874   4.710   4.567   0.449  0.3343  0.6518  0.7463
 5747TIP3   OH238875   3.845   5.948   7.406  0.5240  0.5073  0.2620
 5747TIP3    H138876   3.770   5.900   7.371  2.8852 -1.6628 -2.3377
 5747TIP3    H238877   3.857   6.021   7.345  0.7447  0.6525  0.4771
 5748TIP3   OH238878   1.768   4.241   7.622 -0.2620  0.2395  0.2374
 5748TIP3    H138879   1.754   4.274   7.710 -1.7236  0.7049 -0.1379
 5748TIP3    H238880   1.704   4.288   7.568 -0.3114 -0.9930 -0.8374
 5749TIP3   OH238881   5.877   1.849   7.483  0.1675  0.6934 -0.0373
 5749TIP3    H138882   5.908   1.939   7.480  1.0598  0.4170  0.7170
 5749TIP3    H238883   5.852   1.835   7.574 -0.6128  0.3832 -0.2898
 5750TIP3   OH238884   3.610   0.158   6.342 -0.3771 -0.1415 -0.2167
 5750TIP3    H138885   3.616   0.246   6.303 -1.9341  0.4274  0.7578
 5750TIP3    H238886   3.591   0.101   6.267 -1.1269  0.6126 -0.6196
 5751TIP3   OH238887   4.343   0.779   8.977 -0.0594  0.0483  0.0501
 5751TIP3    H138888   4.391   0.859   8.996  2.5408 -1.6029  0.9692
 5751TIP3    H238889   4.273   0.806   8.918  1.3574  2.7923 -0.5138
 5752TIP3   OH238890   4.507   6.119   0.233 -0.0110 -0.3118  0.0035
 5752TIP3    H138891   4.596   6.136   0.264 -0.5667  1.7618  0.5908
 5752TIP3    H238892   4.477   6.203   0.198 -1.3847 -1.2267 -1.1374
 5753TIP3   OH238893   5.182   1.378   6.673  0.2584  0.0305  0.0222
 5753TIP3    H138894   5.204   1.300   6.622  0.0096 -0.8917  1.2814
 5753TIP3    H238895   5.116   1.424   6.621  1.4994  0.2199 -1.4448
 5754TIP3   OH238896   2.602   6.021   1.080 -0.5595  0.8162 -0.1418
 5754TIP3    H138897   2.510   6.026   1.108 -0.5447  2.2686 -0.2620
 5754TIP3    H238898   2.646   6.086   1.135  0.1071  1.2151 -1.1367
 5755TIP3   OH238899   0.671   0.174   7.870 -0.3672  0.1082  0.7257
 5755TIP3    H138900   0.588   0.206   7.836 -0.2552  1.3074  1.5129
 5755TIP3    H238901   0.732   0.180   7.797 -0.7361  0.1567  0.4216
 5756TIP3   OH238902   1.244   4.831   8.560 -0.3934  0.3777 -0.4065
 5756TIP3    H138903   1.194   4.862   8.636 -0.2813  1.1716 -0.6476
 5756TIP3    H238904   1.195   4.754   8.529 -1.1190  0.7714 -0.2614
 5757TIP3   OH238905   0.625   6.479   8.010 -0.5404  0.5845  0.2082
 5757TIP3    H138906   0.600   6.387   8.006 -2.0498  0.9906 -1.4111
 5757TIP3    H238907   0.664   6.497   7.924 -0.3600  1.4712  0.4623
 5758TIP3   OH238908   3.250   4.232   8.335 -0.5072 -0.0076 -0.2282
 5758TIP3    H138909   3.244   4.217   8.241 -1.3721  1.6725 -0.4822
 5758TIP3    H238910   3.328   4.287   8.345 -0.2008 -0.4898  0.0961
 5759TIP3   OH238911   6.382   5.989   0.200  0.0106  0.1798 -0.4357
 5759TIP3    H138912   6.455   5.933   0.175  0.1078  0.1990 -0.2026
 5759TIP3    H238913   6.417   6.078   0.191  0.0856  0.1850 -0.1251
 5760TIP3   OH238914   5.079   2.713   7.708  0.0205 -0.0713  0.5963
 5760TIP3    H138915   5.115   2.671   7.786 -0.2217 -4.3337 -1.2943
 5760TIP3    H238916   4.985   2.694   7.711 -0.3033  1.3100  0.1063
 5761TIP3   OH238917   6.581   6.281   8.164 -0.3694  0.4426 -0.2981
 5761TIP3    H138918   6.535   6.201   8.191 -0.7987  0.7907  0.0225
 5761TIP3    H238919   6.527   6.316   8.093  0.4347 -0.1524 -1.2232
 5762TIP3   OH238920   5.066   6.020   7.795 -0.0853  0.6074 -0.5349
 5762TIP3    H138921   5.155   6.057   7.793  0.1292  0.0989 -0.5105
 5762TIP3    H238922   5.045   6.010   7.887 -0.9704  2.6011 -0.4683
 5763TIP3   OH238923   0.481   3.705   1.036  0.1829  0.3385 -0.9609
 5763TIP3    H138924   0.413   3.695   0.970 -0.3021  0.0656 -0.4281
 5763TIP3    H238925   0.560   3.724   0.986  0.3553 -2.2299 -1.8025
 5764TIP3   OH238926   2.124   0.315   0.302  0.1035 -0.4024 -0.1822
 5764TIP3    H138927   2.193   0.345   0.360 -0.0456  1.0898 -0.7477
 5764TIP3    H238928   2.044   0.356   0.335 -0.1900 -0.5649 -0.6696
 5765TIP3   OH238929   5.897   2.821   7.365  0.2572  0.6285  0.6329
 5765TIP3    H138930   5.874   2.910   7.338  0.4441  0.8123  1.0708
 5765TIP3    H238931   5.818   2.770   7.348  0.4323  0.6890 -0.4612
 5766TIP3   OH238932   2.259   4.852   7.892 -1.0514 -0.4866 -0.3378
 5766TIP3    H138933   2.230   4.865   7.982  0.0198  1.0692 -0.1958
 5766TIP3    H238934   2.345   4.812   7.900  0.0651  1.7359 -0.5733
 5767TIP3   OH238935   3.968   1.326   0.107  0.2255  0.0490 -0.2068
 5767TIP3    H138936   3.890   1.336   0.052  0.7117 -0.6174 -1.0298
 5767TIP3    H238937   3.933   1.319   0.196 -0.6238  0.2334 -0.5146
 5768TIP3   OH238938   0.655   3.758   1.773 -0.7405 -0.0651  0.3722
 5768TIP3    H138939   0.690   3.758   1.684 -0.3352  0.1199  0.5279
 5768TIP3    H238940   0.727   3.725   1.827 -0.6804  0.6493  0.7425
 5769TIP3   OH238941   5.451   2.808   8.839  0.2870  0.1110  0.0288
 5769TIP3    H138942   5.530   2.796   8.891  0.5570  0.9559 -0.1710
 5769TIP3    H238943   5.452   2.901   8.815 -1.8740  0.7072  1.8522
 5770TIP3   OH238944   0.807   0.701   0.365  0.7462  0.1574  0.2230
 5770TIP3    H138945   0.821   0.735   0.453 -2.1528 -1.2056  1.3575
 5770TIP3    H238946   0.812   0.778   0.308  1.4885  1.2617  1.7120
 5771TIP3   OH238947   1.227   1.866   7.769 -0.6714 -0.0336 -0.5583
 5771TIP3    H138948   1.161   1.869   7.700 -2.8680  2.0799  1.4471
 5771TIP3    H238949   1.244   1.958   7.791 -0.8810 -0.5913  2.3876
 5772TIP3   OH238950   0.642   0.983   0.672  0.4327 -0.3847 -0.4022
 5772TIP3    H138951   0.623   0.890   0.676 -0.6853 -0.2051 -1.2467
 5772TIP3    H238952   0.571   1.024   0.722  1.2172 -0.0050  0.4391
 5773TIP3   OH238953   3.072   2.251   7.063  0.2764  0.8012 -0.0834
 5773TIP3    H138954   3.061   2.345   7.069 -0.8748  0.6053  1.0999
 5773TIP3    H238955   2.993   2.220   7.019 -0.1154  0.2380  0.9820
 5774TIP3   OH238956   4.440   3.663   8.042  0.2250  0.0705 -0.4755
 5774TIP3    H138957   4.496   3.585   8.040  0.3233  0.0954  0.5931
 5774TIP3    H238958   4.498   3.733   8.072 -0.4975 -0.0392  1.3258
 5775TIP3   OH238959   3.244   3.333   8.873 -0.3237  0.2093  0.1543
 5775TIP3    H138960   3.203   3.246   8.864 -1.6048  0.9211 -1.4641
 5775TIP3    H238961   3.252   3.346   8.967  0.0051 -1.7010  0.4384
 5776TIP3   OH238962   5.733   0.864   7.548  0.5054 -0.1230  0.3417
 5776TIP3    H138963   5.709   0.841   7.638 -0.8007  0.8086  0.2518
 5776TIP3    H238964   5.695   0.794   7.495  1.5335 -0.8367  0.5102
 5777TIP3   OH238965   2.152   3.569   8.611  0.4582  0.3229  0.6667
 5777TIP3    H138966   2.210   3.497   8.587 -0.3008  0.3565 -1.5417
 5777TIP3    H238967   2.066   3.528   8.618 -0.0114  0.9916 -0.7956
 5778TIP3   OH238968   5.013   6.728   0.976  0.8883  0.6618 -0.1441
 5778TIP3    H138969   4.925   6.733   0.940  0.5002 -1.5645  0.3091
 5778TIP3    H238970   5.001   6.700   1.067  2.0296 -1.8594 -0.6597
 5779TIP3   OH238971   5.694   1.437   7.051  0.3675  0.0769  0.4965
 5779TIP3    H138972   5.658   1.438   6.962  1.5640  0.2100 -0.0215
 5779TIP3    H238973   5.684   1.527   7.082  1.2075  0.3886 -0.0732
 5780TIP3   OH238974   1.903   2.762   7.408  0.1132  0.5312 -0.0069
 5780TIP3    H138975   1.970   2.799   7.466 -0.5336  0.6215  0.6961
 5780TIP3    H238976   1.900   2.821   7.333  0.8779  0.4806 -0.0802
 5781TIP3   OH238977   0.583   4.822   1.434 -0.0997  0.0006  0.0445
 5781TIP3    H138978   0.552   4.885   1.369 -0.5362 -1.4873 -1.2515
 5781TIP3    H238979   0.564   4.863   1.519 -1.5794  1.0248 -0.7449
 5782TIP3   OH238980   4.784   2.069   6.864  0.1277 -0.1726 -0.0462
 5782TIP3    H138981   4.725   2.008   6.820  1.0405 -1.5433  0.5287
 5782TIP3    H238982   4.760   2.155   6.831 -2.1156 -0.6933  0.1231
 5783TIP3   OH238983   1.570   1.478   0.876 -0.1611 -0.1632 -0.0343
 5783TIP3    H138984   1.561   1.570   0.852 -3.6961  0.2745  2.1096
 5783TIP3    H238985   1.552   1.430   0.796  0.7446  0.9907 -0.9654
 5784TIP3   OH238986   6.303   6.091   2.695  0.2694  0.2978 -0.4206
 5784TIP3    H138987   6.263   6.004   2.686  0.0123 -0.1745  3.4676
 5784TIP3    H238988   6.397   6.074   2.701  0.2139  0.2424  0.4073
 5785TIP3   OH238989   1.129   6.436   7.522 -0.5582 -0.6922  0.3147
 5785TIP3    H138990   1.047   6.472   7.488  0.1893  0.8096  0.0109
 5785TIP3    H238991   1.131   6.464   7.614  0.5704  1.1910 -0.2148
 5786TIP3   OH238992   2.651   5.771   6.030  0.7350 -0.5345  0.1111
 5786TIP3    H138993   2.628   5.694   5.977  2.1961 -0.7809 -0.2135
 5786TIP3    H238994   2.695   5.829   5.968 -1.8880  1.4186 -0.0969
 5787TIP3   OH238995   4.335   6.263   6.781 -0.4633 -0.6375 -0.6689
 5787TIP3    H138996   4.318   6.323   6.708 -0.8604 -0.0370 -0.0992
 5787TIP3    H238997   4.302   6.310   6.858  0.9350 -0.7836  0.0530
 5788TIP3   OH238998   1.404   0.798   8.019 -0.0407  0.2926 -0.2608
 5788TIP3    H138999   1.458   0.836   8.088  0.8789  1.0234 -1.3414
 5788TIP3    H239000   1.369   0.874   7.972 -1.3039 -0.1882 -0.1322
 5789TIP3   OH239001   5.790   2.312   8.821 -0.2095 -0.0344  0.3692
 5789TIP3    H139002   5.778   2.406   8.811  0.3849  0.0776  0.6775
 5789TIP3    H239003   5.760   2.275   8.737  2.8397  0.7248 -1.1995
 5790TIP3   OH239004   5.931   1.068   0.860 -0.4726  0.3136 -0.2621
 5790TIP3    H139005   5.980   1.027   0.932  0.3272 -1.1076 -1.5684
 5790TIP3    H239006   5.918   1.158   0.889  0.5361 -0.0071  1.3162
 5791TIP3   OH239007   4.639   3.876   8.022 -0.3198  0.4790  0.1383
 5791TIP3    H139008   4.719   3.823   8.025  0.7616  2.1088  1.1337
 5791TIP3    H239009   4.612   3.873   7.930  1.0070  0.0737 -0.2604
 5792TIP3   OH239010   0.544   4.388   0.292  0.5956 -0.1196  0.3793
 5792TIP3    H139011   0.485   4.448   0.338 -0.5476 -0.0702 -1.0591
 5792TIP3    H239012   0.568   4.323   0.358 -1.1996 -0.2065  1.0188
 5793TIP3   OH239013   0.972   2.927   1.595 -0.5768 -0.0904 -0.0462
 5793TIP3    H139014   1.025   2.998   1.558 -0.9905 -0.6220 -1.7822
 5793TIP3    H239015   0.882   2.952   1.574 -0.7436 -0.9613 -0.4107
 5794TIP3   OH239016   4.621   5.331   0.994 -0.2489  0.6211 -0.1619
 5794TIP3    H139017   4.672   5.299   0.920  0.4165  2.3890 -0.5034
 5794TIP3    H239018   4.584   5.252   1.033  0.7953 -0.4936 -1.3389
 5795TIP3   OH239019   6.632   3.997   1.286  0.1732  0.6596  0.2712
 5795TIP3    H139020   6.539   4.003   1.262  0.5454  0.9414 -1.1772
 5795TIP3    H239021   6.679   4.008   1.204  1.4882 -0.5922  0.8144
 5796TIP3   OH239022   2.176   0.609   7.615  0.2078  0.7086 -0.7876
 5796TIP3    H139023   2.245   0.546   7.633 -1.3442 -0.5678  1.0529
 5796TIP3    H239024   2.102   0.556   7.585 -0.8030  1.7372 -0.1913
 5797TIP3   OH239025   2.708   1.347   0.041 -0.6741 -0.1658  0.2549
 5797TIP3    H139026   2.746   1.416   0.094  1.8780 -0.5859 -0.8461
 5797TIP3    H239027   2.713   1.380  -0.049 -0.9124 -1.1142 -0.1219
 5798TIP3   OH239028   4.794   6.629   8.774 -0.1192  0.4796 -0.1575
 5798TIP3    H139029   4.706   6.623   8.811 -0.2175 -1.4581 -0.6081
 5798TIP3    H239030   4.781   6.662   8.686 -0.7934 -2.4697 -1.2867
 5799TIP3   OH239031   6.021   1.785   2.390 -0.1754 -0.4389 -0.1861
 5799TIP3    H139032   6.021   1.714   2.454 -2.7635 -0.9316 -0.6139
 5799TIP3    H239033   6.106   1.778   2.346  0.2680 -2.2530  0.8682
 5800TIP3   OH239034   5.069   4.267   0.852 -0.2694  0.1656  0.5907
 5800TIP3    H139035   5.098   4.191   0.901 -1.9503 -0.3622  0.8356
 5800TIP3    H239036   4.974   4.270   0.866 -0.6125  0.7774 -1.5353
 5801TIP3   OH239037   0.635   0.623   7.782  0.2124 -0.1065  0.1481
 5801TIP3    H139038   0.639   0.718   7.789  0.7389 -0.1672  0.8587
 5801TIP3    H239039   0.543   0.604   7.763  0.3170  0.5961 -1.1384
 5802TIP3   OH239040   5.210   6.195   7.524  0.6050  0.1927 -0.4422
 5802TIP3    H139041   5.235   6.124   7.465 -1.2008 -0.7617 -0.1485
 5802TIP3    H239042   5.292   6.236   7.549  1.5790 -0.7491 -1.9130
 5803TIP3   OH239043   5.296   1.715   7.059 -0.1131 -0.8450  0.2317
 5803TIP3    H139044   5.227   1.666   7.015 -1.0928  0.8098 -0.1842
 5803TIP3    H239045   5.366   1.723   6.994 -0.1726 -1.2126  0.1205
 5804TIP3   OH239046   5.079   6.363   0.718  0.8155 -0.7136  0.2733
 5804TIP3    H139047   5.037   6.430   0.664  1.7548 -0.7677 -0.5449
 5804TIP3    H239048   5.104   6.409   0.798  0.8442 -0.2531  0.0009
 5805TIP3   OH239049   3.988   5.295   6.968  0.1687  0.3329 -0.7037
 5805TIP3    H139050   3.936   5.215   6.979  1.4090 -0.1457  2.6679
 5805TIP3    H239051   4.078   5.263   6.959  0.3917  1.3200 -2.6172
 5806TIP3   OH239052   0.363   1.489   0.361 -0.1769 -0.1150  0.2315
 5806TIP3    H139053   0.393   1.431   0.291 -0.3841 -0.1515  0.1732
 5806TIP3    H239054   0.268   1.480   0.361 -0.1196 -0.8621  1.1622
 5807TIP3   OH239055   4.150   4.559   0.936  0.2294 -0.3498  0.1277
 5807TIP3    H139056   4.073   4.586   0.986  0.8897  2.3424 -0.1642
 5807TIP3    H239057   4.117   4.544   0.847 -0.0197  0.5071  0.0698
 5808TIP3   OH239058   5.900   2.377   7.400  0.3262 -0.7261 -0.2757
 5808TIP3    H139059   5.946   2.328   7.332 -0.6031 -1.6662 -0.2468
 5808TIP3    H239060   5.816   2.332   7.409 -0.0203  0.0890  0.6845
 5809TIP3   OH239061   6.098   1.444   6.971 -0.2964  0.1516 -0.1081
 5809TIP3    H139062   6.050   1.520   6.938 -0.2480  0.0017 -0.5308
 5809TIP3    H239063   6.068   1.371   6.916 -2.0888 -0.6159  1.7533
 5810TIP3   OH239064   5.069   0.089   6.337 -0.4068  1.0011  0.2357
 5810TIP3    H139065   5.073   0.185   6.338  0.7236  1.0276 -1.6065
 5810TIP3    H239066   5.120   0.062   6.413  0.7112  1.8857 -0.1659
 5811TIP3   OH239067   0.044   6.168   8.140 -0.1973  0.2505  0.1625
 5811TIP3    H139068   0.103   6.194   8.069 -0.7175  1.5130  0.1812
 5811TIP3    H239069  -0.044   6.185   8.106 -0.4716  0.3811  0.9244
 5812TIP3   OH239070   3.077   6.344   6.888  0.0416 -0.5258 -0.0274
 5812TIP3    H139071   3.007   6.360   6.952 -0.5868  0.1286 -0.8654
 5812TIP3    H239072   3.033   6.301   6.815  0.8005 -1.4811  0.0547
 5813TIP3   OH239073   0.066   5.846   0.160 -0.1353  0.4042  0.1373
 5813TIP3    H139074   0.052   5.836   0.066 -1.1029  1.9294  0.0773
 5813TIP3    H239075   0.158   5.871   0.169 -0.0589  0.3266 -0.4131
 5814TIP3   OH239076   4.234   5.275   1.020 -0.9275  0.3707 -0.2849
 5814TIP3    H139077   4.178   5.266   0.943 -1.1262  0.2158 -0.1231
 5814TIP3    H239078   4.245   5.185   1.052  2.2321 -0.1350 -2.3065
 5815TIP3   OH239079   6.345   1.855   7.813  0.0827 -0.7361 -0.4811
 5815TIP3    H139080   6.252   1.864   7.834  0.2533 -0.4110  0.1284
 5815TIP3    H239081   6.352   1.891   7.724 -0.2908 -0.3483 -0.3582
 5816TIP3   OH239082   5.338   2.785   1.308 -0.2073  0.3029 -0.2224
 5816TIP3    H139083   5.334   2.706   1.254 -2.2098 -0.2192  0.6027
 5816TIP3    H239084   5.385   2.849   1.254  0.5225 -1.1100 -1.3188
 5817TIP3   OH239085   6.489   4.762   0.976  0.3800 -0.2792  0.7839
 5817TIP3    H139086   6.501   4.741   0.883  0.3851 -1.0438  0.9495
 5817TIP3    H239087   6.568   4.810   1.000 -1.2404  3.3611 -0.5304
 5818TIP3   OH239088   0.798   0.043   0.214 -0.2866  0.0391  0.0738
 5818TIP3    H139089   0.842  -0.040   0.235  3.1139  1.2539 -1.5394
 5818TIP3    H239090   0.852   0.110   0.257 -0.7069  1.6449 -1.7721
 5819TIP3   OH239091   4.190   6.081   1.242 -0.0485  0.7818  0.5764
 5819TIP3    H139092   4.202   6.063   1.336  0.9920  0.9815  0.4946
 5819TIP3    H239093   4.168   6.174   1.238  0.2791  0.8635  0.6051
 5820TIP3   OH239094   2.624   4.709   7.645 -0.0649 -0.1970 -0.3255
 5820TIP3    H139095   2.553   4.772   7.630 -0.9010 -0.6017  1.5698
 5820TIP3    H239096   2.696   4.761   7.679 -0.3178 -0.0769  0.0379
 5821TIP3   OH239097   2.224   2.741   8.812 -0.6703  0.0228  0.1316
 5821TIP3    H139098   2.245   2.780   8.897 -2.2181 -0.6085  0.8610
 5821TIP3    H239099   2.170   2.664   8.835 -0.7848 -0.3780 -1.4059
 5822TIP3   OH239100   5.604   6.723   0.318 -0.1321 -0.0894  0.6791
 5822TIP3    H139101   5.674   6.762   0.266 -1.3087  0.1121 -0.8511
 5822TIP3    H239102   5.571   6.652   0.264 -0.6540 -0.6214  1.6713
 5823TIP3   OH239103   0.490   4.629   8.476 -0.0305  0.2477 -0.0964
 5823TIP3    H139104   0.444   4.703   8.517  1.4885  0.5679  1.1241
 5823TIP3    H239105   0.502   4.566   8.547  2.0092  0.4883 -0.1794
 5824TIP3   OH239106   6.055   2.361   8.208 -0.0168  0.1812  0.2051
 5824TIP3    H139107   6.084   2.337   8.296  2.1909  3.0892  0.3831
 5824TIP3    H239108   6.133   2.395   8.165 -1.3745  0.2291 -2.4147
 5825TIP3   OH239109   0.852   1.927   1.463  0.1121  0.2166  0.4308
 5825TIP3    H139110   0.831   1.944   1.372 -0.4798 -0.5951  0.4038
 5825TIP3    H239111   0.767   1.915   1.506  0.4166 -2.1445  0.5203
 5826TIP3   OH239112   1.340   0.383   8.003 -0.2348 -0.1773  0.0781
 5826TIP3    H139113   1.333   0.421   8.091 -2.3648 -1.1681  0.4192
 5826TIP3    H239114   1.343   0.288   8.019  1.0614 -0.3059 -0.8773
 5827TIP3   OH239115   0.683   0.385   8.299  0.0044 -0.4092  0.3379
 5827TIP3    H139116   0.631   0.465   8.308 -1.1646 -1.2454  1.2689
 5827TIP3    H239117   0.637   0.320   8.351  0.0517 -2.1367 -1.6383
 5828TIP3   OH239118   4.272   3.219   2.233 -0.5282 -0.1482 -0.2147
 5828TIP3    H139119   4.329   3.229   2.157  1.5692 -0.8657  1.1899
 5828TIP3    H239120   4.243   3.127   2.229  0.0022 -0.3315  0.1290
 5829TIP3   OH239121   0.803   4.238   2.031  0.5998 -0.3952 -0.3930
 5829TIP3    H139122   0.802   4.332   2.051 -0.2116 -0.7154  1.3157
 5829TIP3    H239123   0.744   4.229   1.956 -0.4851  0.3208  0.3307
 5830TIP3   OH239124   1.220   6.723   0.680 -0.0418  0.1887  0.2133
 5830TIP3    H139125   1.280   6.665   0.727  0.2099  0.1738 -0.1204
 5830TIP3    H239126   1.254   6.811   0.696  0.5533  0.1289 -0.6341
 5831TIP3   OH239127   3.471   3.633   0.246 -0.5089  0.2798  0.4495
 5831TIP3    H139128   3.538   3.611   0.311  0.7754  1.0477 -0.5614
 5831TIP3    H239129   3.392   3.651   0.297 -0.2395 -1.5925  1.6122
 5832TIP3   OH239130   3.804   3.776   1.612 -0.2736  0.3151 -0.2872
 5832TIP3    H139131   3.858   3.706   1.650 -1.5442 -1.8770 -2.2218
 5832TIP3    H239132   3.748   3.804   1.684 -1.4697 -2.5354  0.0576
 5833TIP3   OH239133   2.406   1.294   8.408  0.2153  0.1161 -0.0579
 5833TIP3    H139134   2.365   1.369   8.365  1.2644  1.2855  0.9219
 5833TIP3    H239135   2.339   1.226   8.405 -0.9892  1.2775 -0.4215
 5834TIP3   OH239136   0.779   0.234   0.590 -1.0362 -0.3985 -0.5282
 5834TIP3    H139137   0.691   0.203   0.565 -0.2787 -1.5555 -1.9761
 5834TIP3    H239138   0.831   0.154   0.597 -0.0447  0.2814  0.1130
 5835TIP3   OH239139   6.246   1.988   7.565 -0.6512  0.3627 -0.7747
 5835TIP3    H139140   6.183   1.920   7.589  0.6652 -0.4019  0.6968
 5835TIP3    H239141   6.193   2.059   7.528 -2.0517 -1.5702 -2.7373
 5836TIP3   OH239142   2.425   0.065   0.197 -0.4153  0.4886  0.1922
 5836TIP3    H139143   2.507   0.062   0.246 -0.0018 -1.0858 -0.5225
 5836TIP3    H239144   2.416   0.156   0.171  0.3559  0.9681  1.5026
 5837TIP3   OH239145   5.006   2.082   0.448 -0.3519 -0.6848  0.0069
 5837TIP3    H139146   5.000   2.089   0.543 -3.2752 -0.2176 -0.1055
 5837TIP3    H239147   5.018   1.989   0.431 -1.8206 -1.0530  0.8320
 5838TIP3   OH239148   4.108   0.949   0.210 -0.0343 -0.0252  0.0934
 5838TIP3    H139149   4.034   0.953   0.149 -0.6710 -0.1834  0.8376
 5838TIP3    H239150   4.184   0.931   0.154 -0.7342 -1.0909 -0.5595
 5839TIP3   OH239151   0.945   2.714   7.469  0.0268  0.1892  0.0518
 5839TIP3    H139152   0.968   2.690   7.559  0.3825 -0.6354 -0.2523
 5839TIP3    H239153   1.022   2.690   7.417  0.1113  1.3319 -0.3824
 5840TIP3   OH239154   3.182   4.681   2.009  0.6550 -0.3490 -0.8548
 5840TIP3    H139155   3.212   4.596   2.042  1.3487  0.2346  0.0632
 5840TIP3    H239156   3.215   4.744   2.072 -1.4258  0.4735 -0.5078
 5841TIP3   OH239157   4.248   0.396   7.761  0.2299  0.6120  0.6014
 5841TIP3    H139158   4.269   0.489   7.766 -0.3760  0.8080 -0.1996
 5841TIP3    H239159   4.326   0.351   7.794  1.2652  1.3484 -0.7450
 5842TIP3   OH239160   2.849   1.443   8.580 -0.0731 -0.2705  0.1085
 5842TIP3    H139161   2.857   1.479   8.492 -1.8836  0.9691  0.3747
 5842TIP3    H239162   2.791   1.367   8.571  0.6727 -0.8416  0.0794
 5843TIP3   OH239163   1.057   5.219   8.886  0.0468  0.8518 -0.3684
 5843TIP3    H139164   0.990   5.265   8.835 -0.2354 -2.2765 -3.1062
 5843TIP3    H239165   1.008   5.178   8.957 -0.2498  1.7209 -0.0504
 5844TIP3   OH239166   1.265   4.156   8.385  0.0570 -0.1777  0.0149
 5844TIP3    H139167   1.180   4.188   8.356  0.5624  1.4738  0.2195
 5844TIP3    H239168   1.304   4.117   8.307 -0.0293  1.0157 -0.6503
 5845TIP3   OH239169   4.652   1.449   2.362 -0.4031  0.3998 -0.1197
 5845TIP3    H139170   4.625   1.522   2.306  1.9702  0.3697 -1.4385
 5845TIP3    H239171   4.583   1.384   2.351 -1.5597  1.6314 -0.4964
 5846TIP3   OH239172   3.064   3.921   1.835 -0.0970  0.1720  0.2002
 5846TIP3    H139173   3.041   3.830   1.854  0.8514 -0.3154 -0.8592
 5846TIP3    H239174   3.144   3.915   1.783  1.4985  1.7423  2.3213
 5847TIP3   OH239175   2.339   0.946   6.986 -0.4750 -0.1530 -0.2280
 5847TIP3    H139176   2.302   0.858   6.977  1.4197 -0.7465 -4.0532
 5847TIP3    H239177   2.417   0.934   7.040 -0.8301 -0.5929  0.1974
 5848TIP3   OH239178   5.368   5.023   8.709 -0.1520  0.7867 -0.6196
 5848TIP3    H139179   5.433   5.081   8.749 -0.8768  1.5642 -0.5556
 5848TIP3    H239180   5.405   5.003   8.622  0.6816  0.3422 -0.1722
 5849TIP3   OH239181   2.881   6.319   7.090 -0.1362  0.4247 -0.3256
 5849TIP3    H139182   2.834   6.327   7.173  1.4213  1.1882  0.5216
 5849TIP3    H239183   2.857   6.232   7.057 -2.1455  0.7906  0.0174
 5850TIP3   OH239184   2.174   4.741   0.701 -0.2448 -0.0462  0.1791
 5850TIP3    H139185   2.218   4.693   0.771  0.3774  0.9494  0.4991
 5850TIP3    H239186   2.230   4.728   0.624 -0.0923  0.1270  0.2585
 5851TIP3   OH239187   1.045   4.274   8.898  0.7378  0.0505  0.2404
 5851TIP3    H139188   1.056   4.330   8.975  0.3239  0.5174 -0.0343
 5851TIP3    H239189   1.113   4.303   8.837 -0.5720  1.5009 -0.6149
 5852TIP3   OH239190   0.209   3.977   7.818  0.1059 -0.1001  0.3390
 5852TIP3    H139191   0.148   3.912   7.784  0.4906  0.5975 -1.8588
 5852TIP3    H239192   0.271   3.927   7.871  0.2891 -1.5309 -1.1490
 5853TIP3   OH239193   0.097   4.534   7.717 -0.3585  0.1113 -0.2807
 5853TIP3    H139194   0.043   4.599   7.762 -0.2611 -0.0038  0.0065
 5853TIP3    H239195   0.037   4.463   7.696 -0.3184 -0.0183  0.0408
 5854TIP3   OH239196   2.797   0.666   0.283 -0.2245  0.3465 -0.0345
 5854TIP3    H139197   2.801   0.727   0.209  0.2848  0.4105  0.0428
 5854TIP3    H239198   2.721   0.695   0.334 -0.6033  0.2784 -0.5492
 5855TIP3   OH239199   6.582   4.764   7.499  0.8776 -0.1161 -0.1514
 5855TIP3    H139200   6.660   4.748   7.551  0.0431  0.2676  1.2605
 5855TIP3    H239201   6.530   4.684   7.508  1.0187 -0.3133 -0.9643
 5856TIP3   OH239202   4.012   2.430   1.304  0.1372 -0.1588 -0.3934
 5856TIP3    H139203   3.986   2.343   1.333  1.7741 -0.5283  0.0682
 5856TIP3    H239204   3.932   2.483   1.312 -0.2338 -0.9624  1.9402
 5857TIP3   OH239205   6.334   0.496   8.057 -0.4578 -0.2467  0.3314
 5857TIP3    H139206   6.426   0.515   8.073 -0.8527  0.4482  1.9653
 5857TIP3    H239207   6.322   0.406   8.088 -0.0980 -0.7684 -0.9800
 5858TIP3   OH239208   5.095   0.495   0.166 -0.0812 -0.5380  0.0413
 5858TIP3    H139209   5.042   0.450   0.100 -0.9920  1.3293 -0.5705
 5858TIP3    H239210   5.037   0.500   0.243 -0.3506  0.3613 -0.2029
 5859TIP3   OH239211   2.406   4.958   2.300 -0.6646 -0.0771 -0.3601
 5859TIP3    H139212   2.462   4.952   2.223  3.0527 -1.5810  2.1441
 5859TIP3    H239213   2.390   4.866   2.324  2.5591  0.0191  3.1895
 5860TIP3   OH239214   1.792   1.442   0.044  0.5484  0.5415  0.7481
 5860TIP3    H139215   1.870   1.388   0.042  0.5587  0.5198 -1.8912
 5860TIP3    H239216   1.720   1.382   0.025  0.0099  0.7773  1.9367
 5861TIP3   OH239217   4.234   0.254   0.229 -0.3601 -0.0412 -0.1329
 5861TIP3    H139218   4.279   0.326   0.272  0.3738 -1.1808  1.0875
 5861TIP3    H239219   4.146   0.288   0.212  0.1058  1.2800 -0.0222
 5862TIP3   OH239220   3.259   5.819   8.213  0.4993  0.0506 -0.0459
 5862TIP3    H139221   3.203   5.761   8.264  1.5574 -0.7964  0.1898
 5862TIP3    H239222   3.246   5.791   8.122  2.8182 -2.3248  0.2150
 5863TIP3   OH239223   5.643   5.958   7.921  0.3206  0.7660 -0.1534
 5863TIP3    H139224   5.629   6.033   7.863 -0.0785  1.7437  1.1724
 5863TIP3    H239225   5.599   5.885   7.877 -1.8423  1.9480 -0.0765
 5864TIP3   OH239226   5.156   3.180   1.558  0.1292 -0.4502  0.1170
 5864TIP3    H139227   5.197   3.177   1.644 -0.1316 -1.5500  0.2267
 5864TIP3    H239228   5.225   3.211   1.499  0.0515  1.1524  0.8431
 5865TIP3   OH239229   2.640   4.837   0.113  0.7412  0.5722  0.3352
 5865TIP3    H139230   2.623   4.780   0.037 -0.7899 -1.5849  2.1705
 5865TIP3    H239231   2.713   4.795   0.158 -1.8584 -1.5804  2.9881
 5866TIP3   OH239232   0.590   3.463   8.960 -0.2985 -0.1944  0.3809
 5866TIP3    H139233   0.606   3.376   8.925  2.3794 -0.0290  0.9894
 5866TIP3    H239234   0.611   3.522   8.887  1.1395  0.0015  0.9181
 5867TIP3   OH239235   2.258   4.072   8.293 -0.2196 -0.4437  0.4662
 5867TIP3    H139236   2.165   4.067   8.313 -0.9282  2.0022 -1.6284
 5867TIP3    H239237   2.267   4.031   8.207  0.0242  1.7486 -0.6427
 5868TIP3   OH239238   4.647   2.200   7.128 -0.1425  0.2050  0.4630
 5868TIP3    H139239   4.579   2.268   7.127 -1.4022 -0.9609 -1.7904
 5868TIP3    H239240   4.722   2.241   7.086 -0.1634  0.8466  1.0376
 5869TIP3   OH239241   5.279   3.968   8.074  0.1671  0.4415 -0.1631
 5869TIP3    H139242   5.198   3.973   8.125 -0.3801 -0.0463 -0.9568
 5869TIP3    H239243   5.292   4.057   8.041 -1.4512  0.0567 -2.0891
 5870TIP3   OH239244   2.840   1.290   1.319 -0.2107  0.1267  0.0091
 5870TIP3    H139245   2.869   1.199   1.321  1.7816  0.6769 -1.3024
 5870TIP3    H239246   2.917   1.341   1.347 -0.2177  1.5818 -2.3361
 5871TIP3   OH239247   3.725   3.719   0.302 -0.3215  0.0849  0.1734
 5871TIP3    H139248   3.642   3.749   0.267 -0.1251  0.2330 -0.1743
 5871TIP3    H239249   3.766   3.798   0.339 -0.1674  0.0892 -0.0031
 5872TIP3   OH239250   0.396   0.751   7.077  0.1339  0.1879  0.3066
 5872TIP3    H139251   0.423   0.842   7.089 -0.3146  0.6661 -1.8632
 5872TIP3    H239252   0.354   0.750   6.991 -0.8217 -1.8685  0.7444
 5873TIP3   OH239253   1.296   3.066   8.717  0.4390  0.2592 -0.3499
 5873TIP3    H139254   1.328   3.037   8.632  0.1744 -1.5994  0.1417
 5873TIP3    H239255   1.369   3.051   8.777 -0.0804 -0.5130  0.1140
 5874TIP3   OH239256   4.939   0.369   1.987 -0.3084 -0.1483  0.0371
 5874TIP3    H139257   4.849   0.398   2.003 -0.9689 -1.6396 -0.7754
 5874TIP3    H239258   4.960   0.314   2.062 -0.3139 -0.3067 -0.0761
 5875TIP3   OH239259   2.357   5.373   1.140 -0.7096 -0.1959 -0.3433
 5875TIP3    H139260   2.295   5.405   1.075 -0.2421 -0.4135 -0.9041
 5875TIP3    H239261   2.372   5.448   1.198 -0.1633  0.4057 -1.2316
 5876TIP3   OH239262   6.278   0.145   1.454  0.1388  0.6613 -0.1503
 5876TIP3    H139263   6.187   0.175   1.446  0.1126  0.6374  0.0390
 5876TIP3    H239264   6.324   0.187   1.382  0.0570  0.9816 -0.0155
 5877TIP3   OH239265   4.263   6.233   1.485 -0.0447  0.1666  0.0736
 5877TIP3    H139266   4.298   6.309   1.533  0.2496  0.0431  0.0568
 5877TIP3    H239267   4.226   6.271   1.405 -1.2371  0.4656  0.7515
 5878TIP3   OH239268   6.121   5.858   7.900 -0.4525 -0.3533  0.3008
 5878TIP3    H139269   6.122   5.882   7.992 -0.9692  0.2612  0.1517
 5878TIP3    H239270   6.175   5.779   7.895 -0.2199 -0.2475  1.0844
 5879TIP3   OH239271   2.010   3.220   6.876 -0.1504  0.1281 -0.5602
 5879TIP3    H139272   2.004   3.198   6.969 -0.8968  1.0591 -0.3729
 5879TIP3    H239273   1.968   3.306   6.869  1.5117  0.8990 -1.4715
 5880TIP3   OH239274   1.372   2.507   6.761  0.6337  0.0608  0.2829
 5880TIP3    H139275   1.440   2.554   6.809  0.7683  1.4165 -1.1509
 5880TIP3    H239276   1.312   2.575   6.732  1.3873 -0.4359 -2.7674
 5881TIP3   OH239277   0.006   2.681   1.462  0.0876  0.0286  0.0634
 5881TIP3    H139278  -0.050   2.633   1.522 -1.4287  1.1263 -0.3956
 5881TIP3    H239279  -0.052   2.744   1.420  1.3294  0.0814 -1.7105
 5882TIP3   OH239280   3.884   5.281   7.232  0.1771 -0.1280  0.0778
 5882TIP3    H139281   3.912   5.320   7.149  0.6060 -0.4703  0.0533
 5882TIP3    H239282   3.963   5.281   7.286 -0.1964  0.4513  0.6304
 5883TIP3   OH239283   3.795   2.907   0.307 -0.1366 -0.3005 -0.5842
 5883TIP3    H139284   3.758   2.959   0.378 -0.1707  0.4220 -1.1219
 5883TIP3    H239285   3.805   2.968   0.234  1.4176 -0.6451 -0.6986
 5884TIP3   OH239286   5.733   5.314   0.961  0.8384 -0.0963 -0.0322
 5884TIP3    H139287   5.682   5.380   0.915  1.1462  0.2967  0.1874
 5884TIP3    H239288   5.808   5.362   0.996  1.2178 -0.6160 -0.1279
 5885TIP3   OH239289   0.830   3.256   0.323  0.4349 -0.2219 -1.1892
 5885TIP3    H139290   0.767   3.211   0.379  2.8349 -0.8544  1.2147
 5885TIP3    H239291   0.818   3.217   0.237 -2.9821  0.3366 -1.1027
 5886TIP3   OH239292   3.326   2.220   8.627 -0.0534  0.3905 -0.8213
 5886TIP3    H139293   3.395   2.155   8.616 -0.2533  0.0058  0.1455
 5886TIP3    H239294   3.373   2.303   8.640  0.2551  0.0050  0.6241
 5887TIP3   OH239295   0.554   4.083   2.097  0.0723  0.5688 -0.0998
 5887TIP3    H139296   0.471   4.131   2.103  0.0774  0.5459  0.1757
 5887TIP3    H239297   0.527   3.993   2.077  0.0576  0.6662 -0.5151
 5888TIP3   OH239298   3.902   0.726   0.357  0.0233  0.0944 -0.2843
 5888TIP3    H139299   3.942   0.640   0.365  0.8299  0.2930 -1.8345
 5888TIP3    H239300   3.938   0.762   0.276 -0.6790  1.6882  0.0680
 5889TIP3   OH239301   6.597   5.746   2.143 -0.1381 -0.0010  0.3083
 5889TIP3    H139302   6.562   5.753   2.232 -1.6534 -2.3414 -0.0184
 5889TIP3    H239303   6.535   5.794   2.089 -0.3807 -0.3763  0.2556
 5890TIP3   OH239304   0.467   0.726   7.457 -0.0904  0.1891 -0.2097
 5890TIP3    H139305   0.461   0.659   7.525 -2.3040  0.8820  0.3448
 5890TIP3    H239306   0.384   0.722   7.411  0.2287  1.7103 -0.9806
 5891TIP3   OH239307   1.603   1.988   8.451 -0.4619 -0.1866 -0.8417
 5891TIP3    H139308   1.559   2.061   8.408  0.9013  0.7991 -0.6218
 5891TIP3    H239309   1.639   2.025   8.531 -0.2189 -1.2429 -0.4411
 5892TIP3   OH239310   0.451   3.835   7.854  0.0248  0.1848 -0.0493
 5892TIP3    H139311   0.496   3.892   7.917  0.2823 -0.8265  0.7027
 5892TIP3    H239312   0.520   3.805   7.795 -0.2164  1.1312 -0.8410
 5893TIP3   OH239313   5.640   3.706   1.721  0.5520 -0.2078 -0.0666
 5893TIP3    H139314   5.594   3.766   1.779 -1.2902  0.6849 -2.3294
 5893TIP3    H239315   5.726   3.747   1.707  0.0123  0.9393 -0.1035
 5894TIP3   OH239316   1.117   0.180   7.330 -0.5695  0.5032  0.4798
 5894TIP3    H139317   1.140   0.091   7.355  1.1730  0.7305 -0.1767
 5894TIP3    H239318   1.115   0.228   7.413  0.6922  0.3075  0.6429
 5895TIP3   OH239319   0.403   5.008   1.307 -0.6587  0.1309 -0.1591
 5895TIP3    H139320   0.412   5.099   1.337  2.3848 -0.2611  0.5440
 5895TIP3    H239321   0.375   5.014   1.216 -1.4163  1.7185  0.1552
 5896TIP3   OH239322   5.072   1.399   6.396 -0.4258 -0.5970 -0.1701
 5896TIP3    H139323   5.078   1.317   6.445 -1.3550 -0.1729  0.6900
 5896TIP3    H239324   5.133   1.388   6.322  0.6547 -1.4322  0.8111
 5897TIP3   OH239325   5.680   0.393   8.314  0.1926  0.5659  0.2098
 5897TIP3    H139326   5.716   0.438   8.391  3.0111  1.1590 -1.3094
 5897TIP3    H239327   5.751   0.397   8.250 -1.6022 -1.0276 -1.9910
 5898TIP3   OH239328   0.042   5.134   7.964  0.7223 -0.2025  0.0625
 5898TIP3    H139329   0.030   5.078   8.040  1.8196 -0.1964  0.2578
 5898TIP3    H239330   0.072   5.217   8.000  1.9982 -0.4392 -0.4162
 5899TIP3   OH239331   4.352   1.464   6.576  0.5507 -0.2631 -0.1012
 5899TIP3    H139332   4.274   1.414   6.553  0.1856 -0.5738  1.6361
 5899TIP3    H239333   4.328   1.511   6.656  2.2675 -0.7680  0.7756
 5900TIP3   OH239334   2.597   4.310   6.692 -0.6366  0.3847  0.0747
 5900TIP3    H139335   2.513   4.265   6.685 -1.1504  1.1873  0.8361
 5900TIP3    H239336   2.635   4.304   6.605 -1.4736  0.0040 -0.2779
 5901TIP3   OH239337   5.621   3.105   2.244  0.4955 -0.2487  0.3279
 5901TIP3    H139338   5.675   3.132   2.319  1.3983 -0.4072 -0.2553
 5901TIP3    H239339   5.586   3.020   2.270  0.0187  0.1292  0.9609
 5902TIP3   OH239340   0.357   5.051   6.161  0.3774  0.0347  0.3099
 5902TIP3    H139341   0.274   5.041   6.116 -0.7829  0.2540  2.2911
 5902TIP3    H239342   0.390   5.136   6.132 -1.0302  0.8174  0.9037
 5903TIP3   OH239343   6.750   0.334   8.725 -0.4232 -0.0752  0.2696
 5903TIP3    H139344   6.803   0.342   8.805  1.6353  0.2772 -1.0451
 5903TIP3    H239345   6.773   0.410   8.673  1.6752 -2.3749 -2.4887
 5904TIP3   OH239346   4.646   0.917   0.246 -0.1002 -0.3660 -0.3660
 5904TIP3    H139347   4.622   0.990   0.188 -1.5619  0.0738  0.7386
 5904TIP3    H239348   4.702   0.957   0.313  1.1320 -0.7703 -1.1112
 5905TIP3   OH239349   1.814   2.359   1.443 -0.0602  0.4855 -0.6895
 5905TIP3    H139350   1.815   2.316   1.529  2.7886  0.3403 -0.7037
 5905TIP3    H239351   1.807   2.286   1.381  1.1274  0.3063 -0.6291
 5906TIP3   OH239352   6.355   4.906   0.041  0.1718  0.1271  0.6018
 5906TIP3    H139353   6.287   4.921   0.107 -0.1896  0.7676  0.0964
 5906TIP3    H239354   6.421   4.972   0.058  0.0329  0.3555  0.2686
 5907TIP3   OH239355   3.763   6.569   1.421 -0.1265 -0.1088  0.3161
 5907TIP3    H139356   3.780   6.490   1.369 -2.2613  0.4460 -1.3932
 5907TIP3    H239357   3.733   6.536   1.506  0.2302 -1.1095  0.0679
 5908TIP3   OH239358   0.106   4.525   0.879  0.2211  0.0166  0.8918
 5908TIP3    H139359   0.102   4.618   0.857 -0.3783 -0.5585 -1.7522
 5908TIP3    H239360   0.069   4.481   0.804  1.4445 -2.4578  1.6264
 5909TIP3   OH239361   5.236   5.171   0.004 -0.4278  0.7191 -0.4169
 5909TIP3    H139362   5.238   5.176  -0.091  1.2877 -0.4256 -0.4799
 5909TIP3    H239363   5.242   5.077   0.024  2.2076  1.0505  0.7919
 5910TIP3   OH239364   3.776   5.690   1.079  0.2328  0.8813 -0.6134
 5910TIP3    H139365   3.785   5.778   1.117  1.6231  0.7675 -0.6116
 5910TIP3    H239366   3.830   5.693   1.000 -2.2584  0.9794 -2.4156
 5911TIP3   OH239367   1.945   5.918   1.214 -0.5316  0.2569  0.5093
 5911TIP3    H139368   1.941   5.917   1.118 -0.9216  0.3849  0.5216
 5911TIP3    H239369   2.032   5.884   1.235 -1.4501 -2.4943  0.1739
 5912TIP3   OH239370   6.160   1.712   8.793 -0.2647  0.0627  0.6350
 5912TIP3    H139371   6.203   1.694   8.876 -0.0716  0.9266  0.7286
 5912TIP3    H239372   6.156   1.627   8.749  2.1760  0.0545  0.3241
 5913TIP3   OH239373   1.385   0.560   1.243  0.1715  0.4632  0.0919
 5913TIP3    H139374   1.450   0.549   1.312 -0.0889 -2.0263  0.0077
 5913TIP3    H239375   1.302   0.536   1.284 -0.2107  0.4461 -0.6654
 5914TIP3   OH239376   0.692   6.737   8.383  0.2450  0.1328  0.3492
 5914TIP3    H139377   0.787   6.753   8.385  0.2422  0.1724  0.2015
 5914TIP3    H239378   0.664   6.772   8.299  0.7343 -3.2852 -1.4513
 5915TIP3   OH239379   0.338   3.469   0.064 -0.3150 -0.1106  0.5621
 5915TIP3    H139380   0.311   3.561   0.057  1.8963  0.7437  2.1201
 5915TIP3    H239381   0.432   3.470   0.044 -0.2919 -2.0847  0.4139
 5916TIP3   OH239382   6.696   1.666   1.502  1.0017 -0.3338 -0.5372
 5916TIP3    H139383   6.703   1.609   1.579  0.0922 -0.1885 -0.3372
 5916TIP3    H239384   6.692   1.606   1.428  0.3323 -0.5297 -0.3483
 5917TIP3   OH239385   3.623   2.277   8.282  0.3486 -0.3324  0.0627
 5917TIP3    H139386   3.644   2.302   8.192  1.8393  1.0432  0.7411
 5917TIP3    H239387   3.625   2.360   8.330  1.3770 -1.2400  1.6630
 5918TIP3   OH239388   0.278   1.730   7.200 -0.1758 -0.7220  0.1199
 5918TIP3    H139389   0.337   1.805   7.205 -1.7901  0.5237  1.6485
 5918TIP3    H239390   0.313   1.677   7.128  0.7483  1.6904 -1.3185
 5919TIP3   OH239391   0.181   0.528   6.558 -0.0909 -0.4714 -0.1613
 5919TIP3    H139392   0.204   0.612   6.517  0.1092 -1.0400 -1.2562
 5919TIP3    H239393   0.239   0.464   6.515 -2.0042 -1.5807 -1.2386
 5920TIP3   OH239394   5.456   4.479   8.749  0.1423  0.0517 -0.0242
 5920TIP3    H139395   5.416   4.398   8.779 -1.5479  0.4771 -0.9962
 5920TIP3    H239396   5.497   4.457   8.666  0.1605  0.0620 -0.0178
 5921TIP3   OH239397   4.352   5.779   2.108  0.2365 -0.7925 -0.1201
 5921TIP3    H139398   4.283   5.829   2.151  0.9790 -0.6967  1.0023
 5921TIP3    H239399   4.345   5.691   2.145  0.2066 -0.9933 -0.5974
 5922TIP3   OH239400   6.134   6.091   1.764  0.4779  0.2881  0.1321
 5922TIP3    H139401   6.081   6.169   1.752  0.8154  0.2887 -1.5044
 5922TIP3    H239402   6.223   6.118   1.742  0.9904 -0.0123  1.7040
 5923TIP3   OH239403   4.149   5.583   7.862 -0.7778 -0.2116 -0.1106
 5923TIP3    H139404   4.129   5.642   7.935 -1.0133 -0.2504 -0.1430
 5923TIP3    H239405   4.171   5.641   7.789 -0.7795 -0.1682 -0.0762
 5924TIP3   OH239406   0.945   2.225   7.682  0.2894  0.2345 -0.2302
 5924TIP3    H139407   1.020   2.278   7.709  0.2248 -0.6584  1.8255
 5924TIP3    H239408   0.888   2.223   7.758 -0.3610 -1.6789 -0.7112
 5925TIP3   OH239409   5.754   5.179   6.615  0.0942  0.7343 -0.3040
 5925TIP3    H139410   5.687   5.137   6.561 -0.2753  1.4583 -0.4304
 5925TIP3    H239411   5.837   5.156   6.574  0.0107 -0.9699  0.3982
 5926TIP3   OH239412   0.336   5.566   8.119 -0.4352 -0.3378 -0.0847
 5926TIP3    H139413   0.288   5.647   8.104  0.3020  0.0372 -0.4561
 5926TIP3    H239414   0.371   5.542   8.034  0.2255 -0.4827  0.2185
 5927TIP3   OH239415   5.707   0.095   0.131 -0.3025  0.0296  0.0814
 5927TIP3    H139416   5.697   0.185   0.099  1.4642 -0.1179 -1.0784
 5927TIP3    H239417   5.785   0.063   0.085 -0.6132 -1.9371  0.8470
 5928TIP3   OH239418   5.544   0.393   6.362 -0.1872  0.0974  0.1139
 5928TIP3    H139419   5.614   0.385   6.427  0.4108  0.2088 -0.5116
 5928TIP3    H239420   5.540   0.307   6.320  0.0494  0.2990 -0.3280
 5929TIP3   OH239421   2.136   5.679   6.906 -0.5395  0.1590  0.1932
 5929TIP3    H139422   2.150   5.596   6.952  0.1116 -0.9643 -1.8945
 5929TIP3    H239423   2.063   5.720   6.952 -0.0655 -0.9686  2.0458
 5930TIP3   OH239424   1.429   0.797   0.088 -0.9740 -0.0480 -0.4908
 5930TIP3    H139425   1.365   0.842   0.142  0.9972  0.4197  1.6346
 5930TIP3    H239426   1.413   0.704   0.103 -0.7527  0.0710  0.6166
 5931TIP3   OH239427   5.556   4.708   0.746 -0.2916  0.0345 -0.3548
 5931TIP3    H139428   5.505   4.785   0.772 -0.4122 -0.8141  2.1308
 5931TIP3    H239429   5.517   4.635   0.794  0.2745 -1.5075 -2.0932
 5932TIP3   OH239430   1.902   0.036   7.626 -0.2263 -0.1806 -0.1386
 5932TIP3    H139431   1.930   0.124   7.600  0.5883 -0.4836 -0.2909
 5932TIP3    H239432   1.811   0.031   7.598 -0.3499  0.6937  0.0705
 5933TIP3   OH239433   0.651   5.626   3.049  0.0485  0.8284 -0.3364
 5933TIP3    H139434   0.603   5.640   2.968  1.8880 -2.3438 -2.1791
 5933TIP3    H239435   0.591   5.577   3.105 -0.1407  0.0645 -1.1867
 5934TIP3   OH239436   0.950   4.910   2.049 -0.2381 -0.3861  0.1928
 5934TIP3    H139437   0.916   4.913   1.959 -1.0700  0.1962  0.5196
 5934TIP3    H239438   0.873   4.893   2.103 -0.2405  2.0371  1.0505
 5935TIP3   OH239439   0.841   1.098   7.645  0.2835  0.2647  0.1191
 5935TIP3    H139440   0.784   1.063   7.577 -0.4299  2.4130 -0.4707
 5935TIP3    H239441   0.860   1.187   7.617  0.7022  0.9210  2.2743
 5936TIP3   OH239442   4.061   2.857   1.054  0.0939 -0.0609 -0.2272
 5936TIP3    H139443   4.128   2.828   1.116 -0.0901 -0.3692 -0.1719
 5936TIP3    H239444   4.016   2.777   1.027 -0.1048  0.1182 -0.4369
 5937TIP3   OH239445   1.462   1.237   7.923 -0.9817  0.4386 -0.3066
 5937TIP3    H139446   1.447   1.332   7.915  0.0418  0.5459 -1.2245
 5937TIP3    H239447   1.489   1.226   8.014  2.0433  1.5774 -0.9327
 5938TIP3   OH239448   5.184   4.792   7.273 -1.2167 -0.3854 -0.0173
 5938TIP3    H139449   5.102   4.746   7.292 -1.7942 -0.2698 -1.9878
 5938TIP3    H239450   5.204   4.769   7.183  0.9066 -0.3171  0.3934
 5939TIP3   OH239451   0.537   5.458   7.274  0.1562 -0.3501  0.2249
 5939TIP3    H139452   0.501   5.516   7.340 -3.0335  0.8697 -2.3038
 5939TIP3    H239453   0.613   5.505   7.240 -0.4012  0.7963  0.5024
 5940TIP3   OH239454   2.706   3.268   1.059 -0.0882  0.6862  0.0831
 5940TIP3    H139455   2.737   3.178   1.043  0.4011  0.4740  1.9967
 5940TIP3    H239456   2.747   3.320   0.990  0.6649 -0.3560 -0.2836
 5941TIP3   OH239457   4.111   0.207   8.375 -0.7460  0.0356 -0.3873
 5941TIP3    H139458   4.088   0.288   8.419  0.4084  1.4637 -2.2561
 5941TIP3    H239459   4.062   0.209   8.293  0.3330 -0.4810 -1.0725
 5942TIP3   OH239460   2.762   1.791   8.095  0.2089  0.0148  0.3709
 5942TIP3    H139461   2.849   1.802   8.056  1.2120  0.0289  2.4587
 5942TIP3    H239462   2.751   1.696   8.102 -0.3491 -0.0086 -0.7005
 5943TIP3   OH239463   4.577   1.500   0.817  0.2843 -0.7474  0.5757
 5943TIP3    H139464   4.579   1.568   0.884 -0.2460 -1.7689  1.6463
 5943TIP3    H239465   4.496   1.516   0.768  1.3562  0.8578 -0.7822
 5944TIP3   OH239466   4.874   6.202   0.809 -0.0026 -0.6645  0.2120
 5944TIP3    H139467   4.948   6.255   0.782  0.1151 -0.5359  0.7642
 5944TIP3    H239468   4.904   6.111   0.797 -0.4618 -0.6321 -1.4165
 5945TIP3   OH239469   1.742   1.579   8.200  0.4507 -0.5354 -0.2360
 5945TIP3    H139470   1.743   1.663   8.247  0.9820 -0.0191 -1.1322
 5945TIP3    H239471   1.651   1.568   8.172  0.3243 -0.3921  0.1170
 5946TIP3   OH239472   1.742   2.434   7.744  0.7472 -0.2505 -0.1480
 5946TIP3    H139473   1.808   2.416   7.677 -0.2996 -1.1394 -0.9812
 5946TIP3    H239474   1.662   2.452   7.694 -0.1232 -1.2113  0.8458
 5947TIP3   OH239475   6.660   0.974   7.279  0.7486  0.1972  0.6514
 5947TIP3    H139476   6.727   0.951   7.344  1.7280  0.5609 -0.2060
 5947TIP3    H239477   6.660   1.070   7.277  0.5202  0.1939  0.3243
 5948TIP3   OH239478   1.875   4.619   7.142 -0.5591 -0.3330  0.0663
 5948TIP3    H139479   1.786   4.638   7.173 -0.9860 -1.3111 -0.5171
 5948TIP3    H239480   1.929   4.689   7.180 -1.7598  0.9532 -0.4876
 5949TIP3   OH239481   0.750   4.290   6.577  0.0741  0.0055 -0.1869
 5949TIP3    H139482   0.694   4.367   6.575  1.0655  0.8005  1.1484
 5949TIP3    H239483   0.804   4.301   6.656  2.0119 -0.7859 -1.3314
 5950TIP3   OH239484   5.703   6.136   8.983 -0.2856  0.3598  0.4345
 5950TIP3    H139485   5.700   6.044   9.011 -0.7249  0.1781 -0.1983
 5950TIP3    H239486   5.760   6.135   8.907  1.5354  0.9729  1.7130
 5951TIP3   OH239487   6.785   2.208   8.791 -0.3832  0.0740  0.6867
 5951TIP3    H139488   6.752   2.118   8.796 -0.0846 -0.1240 -0.4911
 5951TIP3    H239489   6.707   2.261   8.777 -0.3391 -0.3508 -1.6619
 5952TIP3   OH239490   5.865   5.007   7.877  0.2486  0.1242  0.3992
 5952TIP3    H139491   5.907   5.041   7.798  0.1552  1.3123  0.8327
 5952TIP3    H239492   5.863   4.913   7.865 -0.3201  0.3270 -1.2983
 5953TIP3   OH239493   2.017   1.626   8.207  0.5435  0.0880  0.0071
 5953TIP3    H139494   1.932   1.581   8.208  0.0819  0.9230 -0.6892
 5953TIP3    H239495   2.040   1.636   8.299  1.4975 -3.0821  0.2527
 5954TIP3   OH239496   1.170   4.164   6.971  0.8224 -0.4493 -0.7614
 5954TIP3    H139497   1.236   4.139   7.036 -0.2662 -1.7453 -0.1054
 5954TIP3    H239498   1.110   4.221   7.019  1.0672  0.1610 -1.1695
 5955TIP3   OH239499   3.936   5.103   1.734 -0.5086 -0.8652  0.1138
 5955TIP3    H139500   3.860   5.046   1.727 -0.5132 -0.8045 -0.3979
 5955TIP3    H239501   3.929   5.142   1.821 -1.8682  0.2524 -0.4401
 5956TIP3   OH239502   2.528   5.620   6.541 -0.5311  0.1855  0.2883
 5956TIP3    H139503   2.484   5.562   6.479 -0.5458  0.0384  0.4348
 5956TIP3    H239504   2.544   5.700   6.492  0.3311 -0.2743 -0.2030
 5957TIP3   OH239505   3.147   4.955   0.777 -0.2078  0.2413 -0.4934
 5957TIP3    H139506   3.112   4.877   0.821  0.2736 -0.5058 -1.4092
 5957TIP3    H239507   3.232   4.928   0.743  0.2042  1.3298 -0.3786
 5958TIP3   OH239508   3.967   5.269   1.949  0.2774 -0.2322  0.0927
 5958TIP3    H139509   4.047   5.243   1.994 -0.0827  0.6403  1.2898
 5958TIP3    H239510   3.908   5.298   2.020 -1.3355 -1.4582 -0.6746
 5959TIP3   OH239511   1.667   4.156   0.682  0.2805 -0.4894 -0.4146
 5959TIP3    H139512   1.732   4.102   0.727 -1.0312 -0.4808  1.6116
 5959TIP3    H239513   1.614   4.093   0.633 -0.1528 -0.8769  0.5249
 5960TIP3   OH239514   3.407   5.497   8.127 -0.2078 -0.3242 -0.2694
 5960TIP3    H139515   3.323   5.452   8.125 -0.8564  0.7892  0.8320
 5960TIP3    H239516   3.417   5.528   8.217  0.3727  1.3808 -0.8678
 5961TIP3   OH239517   2.147   5.192   1.081 -0.6228  0.2474 -0.4984
 5961TIP3    H139518   2.222   5.166   1.134 -1.8422 -1.5872  0.4712
 5961TIP3    H239519   2.149   5.132   1.006 -2.1889 -1.3070  0.5921
 5962TIP3   OH239520   6.143   2.565   1.502  0.5764 -0.6381  0.2272
 5962TIP3    H139521   6.074   2.566   1.568  1.2261  1.0751  0.9166
 5962TIP3    H239522   6.097   2.580   1.419 -0.0149 -0.8295  0.5144
 5963TIP3   OH239523   4.243   5.536   1.542 -1.0753 -0.7484 -0.0976
 5963TIP3    H139524   4.201   5.521   1.627 -2.0441 -1.8268 -0.7334
 5963TIP3    H239525   4.315   5.473   1.540 -2.6393 -2.6180 -1.0875
 5964TIP3   OH239526   5.388   6.657   7.356 -0.1896  0.4361  0.2631
 5964TIP3    H139527   5.382   6.562   7.363 -3.5086  0.4784 -0.4873
 5964TIP3    H239528   5.443   6.672   7.279 -0.0553 -0.8627  0.0887
 5965TIP3   OH239529   6.749   4.649   8.591 -0.6728  0.4593 -0.1858
 5965TIP3    H139530   6.765   4.728   8.642 -0.4630  0.5002 -0.3165
 5965TIP3    H239531   6.654   4.636   8.598 -1.0270  1.8132 -1.7514
 5966TIP3   OH239532   3.629   4.740   1.459 -0.2121  0.5156  1.0310
 5966TIP3    H139533   3.706   4.686   1.477  1.7417  2.6418 -0.3885
 5966TIP3    H239534   3.646   4.822   1.506 -0.2517  2.0098 -1.3661
 5967TIP3   OH239535   5.489   0.764   7.324  0.0192 -0.1962  0.1434
 5967TIP3    H139536   5.451   0.799   7.404  0.1440  0.9687 -0.2863
 5967TIP3    H239537   5.546   0.834   7.291 -0.6177 -0.3399 -1.3696
 5968TIP3   OH239538   2.688   3.191   8.850 -0.0498 -0.5395  0.4964
 5968TIP3    H139539   2.701   3.277   8.889  0.6846 -0.5738  0.3430
 5968TIP3    H239540   2.762   3.138   8.881 -0.1834 -0.9469  0.1368
 5969TIP3   OH239541   6.345   5.581   2.238 -1.1279  0.2144  0.3034
 5969TIP3    H139542   6.422   5.529   2.262 -1.1058 -1.0791 -2.2549
 5969TIP3    H239543   6.336   5.645   2.309  0.6152 -1.3869  2.0874
 5970TIP3   OH239544   0.609   0.265   8.960  0.3493  0.4666 -0.3353
 5970TIP3    H139545   0.637   0.174   8.972 -2.2090 -0.3300  0.4012
 5970TIP3    H239546   0.642   0.310   9.038 -0.6208 -0.5052  0.6919
 5971TIP3   OH239547   3.292   2.484   1.575 -0.3417 -0.0763 -0.7139
 5971TIP3    H139548   3.274   2.578   1.572  0.7704  0.1877  0.1345
 5971TIP3    H239549   3.206   2.444   1.587 -0.7448  0.8927 -0.2057
 5972TIP3   OH239550   2.002   3.786   2.352 -0.2700 -0.3668  0.1204
 5972TIP3    H139551   2.090   3.775   2.388  0.1251  1.1599 -0.3019
 5972TIP3    H239552   2.016   3.821   2.264 -1.2982  0.2510  0.1772
 5973TIP3   OH239553   3.721   4.365   0.452  0.3250 -0.3861  0.1279
 5973TIP3    H139554   3.807   4.332   0.427  0.1935 -0.1481 -0.6664
 5973TIP3    H239555   3.676   4.381   0.369  0.4455  1.9260  0.4327
 5974TIP3   OH239556   2.848   2.411   2.376  0.0944  0.5698  0.0434
 5974TIP3    H139557   2.831   2.319   2.395 -0.6122  0.4375 -1.1322
 5974TIP3    H239558   2.767   2.443   2.336  0.8416  1.3053 -0.9304
 5975TIP3   OH239559   1.964   2.163   6.673  0.3886  0.9586 -0.5631
 5975TIP3    H139560   1.889   2.183   6.617 -0.5216  1.2189  0.7280
 5975TIP3    H239561   1.970   2.237   6.733  1.1401  0.5062 -0.0613
 5976TIP3   OH239562   6.209   4.035   7.841 -0.5311 -0.4520  0.6672
 5976TIP3    H139563   6.272   4.004   7.776 -0.4647 -0.8925  0.9333
 5976TIP3    H239564   6.213   3.969   7.911  2.0940  1.8538  2.8897
 5977TIP3   OH239565   1.203   4.281   6.697 -0.2738 -0.3475  0.2046
 5977TIP3    H139566   1.115   4.270   6.733 -0.1744  0.4705  0.7269
 5977TIP3    H239567   1.221   4.375   6.706  0.5500 -0.4637 -0.1327
 5978TIP3   OH239568   4.775   5.544   7.256  0.0740  0.4076 -0.5389
 5978TIP3    H139569   4.836   5.602   7.300 -0.2128 -1.2853  2.3392
 5978TIP3    H239570   4.827   5.466   7.234 -0.7197 -0.5561  0.8554
 5979TIP3   OH239571   1.788   3.507   7.164  0.1407 -0.4060 -0.3271
 5979TIP3    H139572   1.760   3.598   7.154 -0.2492 -0.4504  0.3452
 5979TIP3    H239573   1.761   3.464   7.082 -0.1718 -0.0512 -0.4113
 5980TIP3   OH239574   1.947   0.729   0.660  0.3441 -0.7562 -0.5151
 5980TIP3    H139575   1.979   0.662   0.721  0.1841 -0.6285 -0.2871
 5980TIP3    H239576   1.876   0.772   0.708  0.5971 -0.2713 -0.5741
 5981TIP3   OH239577   4.537   5.289   8.178 -0.4128  0.3163  0.5437
 5981TIP3    H139578   4.606   5.342   8.217  0.6227 -0.4885 -0.1373
 5981TIP3    H239579   4.560   5.283   8.086 -2.2163  1.2561 -0.0029
 5982TIP3   OH239580   5.639   4.090   1.406  0.3209  0.5369 -0.7520
 5982TIP3    H139581   5.649   4.013   1.350 -0.9800 -2.3423  2.5964
 5982TIP3    H239582   5.716   4.089   1.463  0.0271  1.4118 -0.3241
 5983TIP3   OH239583   2.242   2.863   1.352 -0.0241 -0.2119 -0.1179
 5983TIP3    H139584   2.247   2.946   1.306 -0.1126 -0.4140 -0.4962
 5983TIP3    H239585   2.252   2.797   1.284 -0.0328 -0.5143  0.1683
 5984TIP3   OH239586   0.388   5.359   7.829 -0.5747 -0.7266  0.2358
 5984TIP3    H139587   0.467   5.356   7.774 -0.4759  1.0836  0.2089
 5984TIP3    H239588   0.406   5.299   7.901  0.0958 -1.6614 -0.6799
 5985TIP3   OH239589   5.394   3.903   8.750  0.2058  0.0223 -0.0331
 5985TIP3    H139590   5.475   3.890   8.700  0.4604 -0.9347  0.5856
 5985TIP3    H239591   5.332   3.937   8.686  0.8576 -0.0458 -0.7257
 5986TIP3   OH239592   4.809   5.315   1.663  0.0588  0.5056 -0.0477
 5986TIP3    H139593   4.787   5.357   1.746 -0.9066 -0.6453  0.3086
 5986TIP3    H239594   4.804   5.221   1.681 -2.0004  0.1995 -1.8397
 5987TIP3   OH239595   5.065   1.590   6.898 -0.5140  0.3799 -0.6727
 5987TIP3    H139596   5.018   1.591   6.815  0.7616  0.1352 -1.4229
 5987TIP3    H239597   5.023   1.519   6.948 -0.3016 -0.5094 -1.7164
 5988TIP3   OH239598   2.706   1.278   1.548 -0.2188 -0.6087  1.2826
 5988TIP3    H139599   2.759   1.354   1.574 -0.2013 -0.5749  1.1474
 5988TIP3    H239600   2.718   1.271   1.454 -1.1632 -0.0634  1.1107
 5989TIP3   OH239601   0.595   5.595   0.026  0.0598 -0.9019  0.0088
 5989TIP3    H139602   0.607   5.668  -0.035  1.0123 -1.1373 -0.1009
 5989TIP3    H239603   0.676   5.593   0.077  0.2067 -2.1202 -0.2484
 5990TIP3   OH239604   4.853   0.288   0.771  0.1830  0.2909 -0.0040
 5990TIP3    H139605   4.795   0.247   0.707  1.0511 -3.0802  1.1567
 5990TIP3    H239606   4.935   0.301   0.723  0.5925 -1.5261  0.1260
 5991TIP3   OH239607   2.457   2.448   8.767 -0.3891  0.2585 -0.2258
 5991TIP3    H139608   2.471   2.538   8.737 -1.5861  0.6084  0.2127
 5991TIP3    H239609   2.523   2.434   8.834  1.0863  0.1164 -1.6529
 5992TIP3   OH239610   3.299   4.326   6.634  0.1395  0.4335  0.3070
 5992TIP3    H139611   3.221   4.332   6.579  0.0006  1.1108  0.5795
 5992TIP3    H239612   3.360   4.272   6.583 -0.6615 -0.4750  0.2867
 5993TIP3   OH239613   4.302   6.420   8.433 -0.2856  0.4799 -0.0842
 5993TIP3    H139614   4.231   6.458   8.485 -1.0825  0.2713 -0.9985
 5993TIP3    H239615   4.382   6.443   8.482 -1.0938 -1.6988  2.4853
 5994TIP3   OH239616   1.201   6.273   8.035  0.1612 -0.6223 -0.1243
 5994TIP3    H139617   1.251   6.353   8.022 -1.5581  0.4976 -0.2476
 5994TIP3    H239618   1.261   6.213   8.079  0.8766  1.4887  1.9509
 5995TIP3   OH239619   1.607   6.677   6.808 -0.3783 -0.4801 -0.4035
 5995TIP3    H139620   1.556   6.643   6.735 -1.9107  0.7246  0.0473
 5995TIP3    H239621   1.689   6.706   6.768 -1.1945  0.1765 -1.6941
 5996TIP3   OH239622   2.854   4.872   7.432 -0.0927  0.6388  0.3894
 5996TIP3    H139623   2.857   4.776   7.423  1.6118  0.6840  0.1721
 5996TIP3    H239624   2.831   4.886   7.523  2.2322 -0.0470  1.1498
 5997TIP3   OH239625   2.183   0.615   6.349 -0.2461  0.2380 -0.7101
 5997TIP3    H139626   2.098   0.601   6.307  0.2710  0.2068 -1.7630
 5997TIP3    H239627   2.185   0.709   6.368 -0.6963  0.1628 -0.2671
 5998TIP3   OH239628   0.062   5.362   0.050 -0.5163  0.1975  0.8154
 5998TIP3    H139629   0.109   5.445   0.053  0.5402 -0.3116 -0.5157
 5998TIP3    H239630   0.122   5.303   0.004 -1.9004 -0.8649  0.3239
 5999TIP3   OH239631   2.909   6.107   7.398  0.3159  0.3694  0.0314
 5999TIP3    H139632   2.832   6.073   7.445  0.8937 -1.4425 -0.2658
 5999TIP3    H239633   2.963   6.030   7.382  0.4728  0.9992 -3.0384
 6000TIP3   OH239634   0.791   3.805   1.485  0.3965  0.1190 -0.4254
 6000TIP3    H139635   0.718   3.867   1.483 -1.8215 -2.3035 -1.0805
 6000TIP3    H239636   0.801   3.777   1.394  0.5038 -1.2960 -0.0127
 6001TIP3   OH239637   5.512   2.470   2.013 -0.2221 -0.4095  0.6063
 6001TIP3    H139638   5.474   2.489   2.099  1.4512  0.9032  1.1138
 6001TIP3    H239639   5.597   2.431   2.033  1.1298  1.8305 -0.3471
 6002TIP3   OH239640   0.267   6.438   8.711 -0.0742  0.1788 -0.1912
 6002TIP3    H139641   0.233   6.445   8.621 -0.8430  2.7379  0.2205
 6002TIP3    H239642   0.351   6.393   8.701 -1.1994 -1.7658 -1.8621
 6003TIP3   OH239643   2.471   6.071   6.039  0.0020  0.6927  0.4952
 6003TIP3    H139644   2.422   6.034   6.112  2.2299  0.2171  1.8437
 6003TIP3    H239645   2.518   6.146   6.077 -0.0417  1.4410 -0.8463
 6004TIP3   OH239646   0.378   2.503   1.378  0.2370  0.0066 -0.5706
 6004TIP3    H139647   0.358   2.516   1.471  0.2402  0.9650 -0.6892
 6004TIP3    H239648   0.455   2.558   1.362  0.3280 -0.2671 -1.1035
 6005TIP3   OH239649   2.890   6.470   8.911  0.0598  0.3485  0.0178
 6005TIP3    H139650   2.912   6.497   8.821  2.4032 -0.4609  0.2729
 6005TIP3    H239651   2.867   6.378   8.903  2.5186 -0.3774  0.4571
 6006TIP3   OH239652   5.055   1.815   7.943 -0.4842 -0.2274 -0.2068
 6006TIP3    H139653   4.967   1.793   7.913 -0.4918 -0.8324  0.2406
 6006TIP3    H239654   5.042   1.871   8.019 -0.4823 -0.4411 -0.0496
 6007TIP3   OH239655   0.151   4.858   0.926  0.3074 -0.4446 -0.1319
 6007TIP3    H139656   0.100   4.841   1.005  0.4171  0.9705  0.2639
 6007TIP3    H239657   0.143   4.953   0.912 -1.1690 -0.8513 -2.8026
 6008TIP3   OH239658   2.985   0.817   5.826  0.0934 -0.5318  0.4993
 6008TIP3    H139659   3.067   0.789   5.787  0.1465 -1.2670  1.1145
 6008TIP3    H239660   2.952   0.740   5.872 -1.4074 -0.5090 -0.4821
 6009TIP3   OH239661   0.362   5.392   0.101  0.2325 -0.2271 -0.1158
 6009TIP3    H139662   0.365   5.488   0.097  1.6604 -0.2953 -2.3671
 6009TIP3    H239663   0.347   5.365   0.011  0.9995 -2.1541  0.2944
 6010TIP3   OH239664   0.570   2.200   8.563  0.1742 -0.6063  0.3820
 6010TIP3    H139665   0.634   2.130   8.555 -0.7795 -1.6107  1.1739
 6010TIP3    H239666   0.620   2.281   8.551  1.1486 -1.4228 -1.5438
 6011TIP3   OH239667   1.676   5.345   7.798 -0.0735  0.3635  0.1613
 6011TIP3    H139668   1.644   5.258   7.773  1.0786 -0.1409  0.3550
 6011TIP3    H239669   1.598   5.399   7.804 -0.7008 -0.3457 -1.1976
 6012TIP3   OH239670   6.477   6.360   7.679 -0.1952 -0.1303 -0.1612
 6012TIP3    H139671   6.465   6.453   7.695 -1.9472 -0.0714 -1.5494
 6012TIP3    H239672   6.393   6.329   7.646  0.6124 -2.0070 -0.6485
 6013TIP3   OH239673   3.732   2.244   0.728 -0.0659  0.2215  0.2596
 6013TIP3    H139674   3.749   2.169   0.672 -1.7927  0.3635 -0.5368
 6013TIP3    H239675   3.818   2.274   0.756  0.7052 -1.3794 -0.2860
 6014TIP3   OH239676   5.659   2.806   6.661 -0.2327  0.3131 -0.2055
 6014TIP3    H139677   5.625   2.794   6.573  1.1384 -1.1843 -0.5852
 6014TIP3    H239678   5.606   2.748   6.716 -0.8117  0.9237 -0.1226
 6015TIP3   OH239679   2.393   2.274   7.640  0.2746  0.0223 -0.4050
 6015TIP3    H139680   2.437   2.245   7.561  0.6215  0.5025 -0.3941
 6015TIP3    H239681   2.423   2.213   7.708  0.0751 -0.3110 -0.6157
 6016TIP3   OH239682   1.575   4.010   8.315 -0.1150  0.0345 -0.4217
 6016TIP3    H139683   1.553   3.917   8.310 -1.8302  0.4461 -2.5367
 6016TIP3    H239684   1.566   4.032   8.407 -1.1258 -1.5851 -0.0828
 6017TIP3   OH239685   0.832   5.963   0.920 -0.6947  0.4974  0.4211
 6017TIP3    H139686   0.791   5.980   0.835 -0.8531  1.5207  0.6903
 6017TIP3    H239687   0.906   6.024   0.924  0.5024 -0.8957  0.2106
 6018TIP3   OH239688   6.231   5.334   6.920  0.6992  0.1087 -0.0519
 6018TIP3    H139689   6.279   5.334   6.837 -0.2896  1.8771 -0.6877
 6018TIP3    H239690   6.254   5.418   6.960  2.2020 -1.2544  2.1492
 6019TIP3   OH239691   3.228   3.027   7.892 -0.0409  0.5875  0.5572
 6019TIP3    H139692   3.226   3.112   7.847  0.1506 -0.6825 -2.0726
 6019TIP3    H239693   3.203   2.964   7.824 -1.0806 -1.4032  2.6462
 6020TIP3   OH239694   5.124   1.574   8.052  0.0251  0.1021  0.0474
 6020TIP3    H139695   5.153   1.654   8.009 -0.6005  0.8385  0.9820
 6020TIP3    H239696   5.029   1.571   8.037  0.1916 -1.1058 -1.0133
 6021TIP3   OH239697   3.659   1.981   1.618 -0.0401 -0.4291  0.4458
 6021TIP3    H139698   3.711   1.959   1.540 -0.8101  0.1883 -0.2624
 6021TIP3    H239699   3.677   1.911   1.680  1.4252 -0.3805  0.1168
 6022TIP3   OH239700   3.444   6.551   8.791  0.0751  0.3394  0.0470
 6022TIP3    H139701   3.357   6.516   8.812 -0.4936  0.6419 -1.6959
 6022TIP3    H239702   3.502   6.475   8.793 -1.0797 -0.7976 -3.3121
 6023TIP3   OH239703   1.716   6.005   7.221  0.5683  0.1273  0.5660
 6023TIP3    H139704   1.766   6.073   7.175  0.0518 -0.3102 -0.6913
 6023TIP3    H239705   1.652   5.976   7.157 -0.3009 -0.3957  1.6468
 6024TIP3   OH239706   5.216   0.465   7.980 -0.2510 -0.0531 -0.3570
 6024TIP3    H139707   5.237   0.495   7.892 -0.6801  0.5319 -0.2599
 6024TIP3    H239708   5.299   0.428   8.013 -0.9602 -4.1406 -2.4994
 6025TIP3   OH239709   1.523   1.401   6.631 -0.8731 -0.0422  0.4522
 6025TIP3    H139710   1.442   1.451   6.639 -0.7943 -0.1364  2.3724
 6025TIP3    H239711   1.499   1.311   6.651 -0.5251 -0.3182 -0.3164
 6026TIP3   OH239712   1.710   5.511   1.195  0.5264 -0.0753 -0.0566
 6026TIP3    H139713   1.775   5.444   1.175  1.0267  0.4876 -0.3493
 6026TIP3    H239714   1.757   5.572   1.253  0.0422 -0.0400  0.3012
 6027TIP3   OH239715   5.918   1.439   1.288 -0.1422  0.2461  0.2217
 6027TIP3    H139716   5.906   1.451   1.382  0.0761 -1.8838  0.5758
 6027TIP3    H239717   5.931   1.345   1.278 -1.6656  0.2122 -2.1080
 6028TIP3   OH239718   5.132   4.262   1.427  0.0258  0.1875  0.3025
 6028TIP3    H139719   5.104   4.354   1.432  0.5352  0.3113  0.9483
 6028TIP3    H239720   5.090   4.221   1.502  1.0054  0.2215  0.8760
 6029TIP3   OH239721   5.357   3.226   0.595 -0.3088  0.4113 -0.2814
 6029TIP3    H139722   5.357   3.153   0.658 -3.0182 -0.8452 -1.5741
 6029TIP3    H239723   5.448   3.253   0.590  0.3539 -0.8991  2.4779
 6030TIP3   OH239724   5.876   4.872   6.557 -0.6991 -0.3212 -0.0997
 6030TIP3    H139725   5.796   4.869   6.503 -0.5252 -0.8767 -0.3279
 6030TIP3    H239726   5.860   4.809   6.627 -2.1589  2.4261  2.2660
 6031TIP3   OH239727   3.208   3.794   1.235 -0.2360 -0.2433  0.0789
 6031TIP3    H139728   3.279   3.755   1.285  0.0410  1.2630  0.8993
 6031TIP3    H239729   3.129   3.752   1.268  0.0792 -0.3057  0.7633
 6032TIP3   OH239730   5.146   3.244   8.304 -0.1555 -0.5976  0.7190
 6032TIP3    H139731   5.101   3.209   8.381 -1.1511  0.9285  0.8718
 6032TIP3    H239732   5.076   3.275   8.247  0.6308  0.5011  0.3079
 6033TIP3   OH239733   2.118   1.479   7.031  0.1098  0.2908 -0.5927
 6033TIP3    H139734   2.109   1.523   6.946 -1.9940  1.2841  0.0510
 6033TIP3    H239735   2.031   1.489   7.071  0.9768 -0.3665  1.5702
 6034TIP3   OH239736   3.191   5.271   7.924  0.0252  0.1215 -0.1612
 6034TIP3    H139737   3.139   5.208   7.874 -0.6206  0.3806  0.1661
 6034TIP3    H239738   3.194   5.349   7.868  1.3522 -0.3936 -0.8392
 6035TIP3   OH239739   3.160   0.583   0.013 -0.0604  0.5920  0.2329
 6035TIP3    H139740   3.113   0.601  -0.068  0.9591 -0.8077 -0.7279
 6035TIP3    H239741   3.197   0.496   0.000 -0.4312  0.0332  2.4966
 6036TIP3   OH239742   4.624   5.634   0.370  0.1082  0.5698 -0.1645
 6036TIP3    H139743   4.653   5.719   0.403  1.7601 -0.8147  2.2123
 6036TIP3    H239744   4.559   5.605   0.433  0.1411 -0.2985 -0.5129
 6037TIP3   OH239745   1.305   3.478   7.353 -0.0721 -0.7570  0.0679
 6037TIP3    H139746   1.283   3.543   7.286 -0.2188 -1.0245 -0.1497
 6037TIP3    H239747   1.372   3.423   7.312  0.5308 -0.3438  0.4909
 6038TIP3   OH239748   6.366   2.706   0.073 -0.5636  0.5024 -0.0829
 6038TIP3    H139749   6.328   2.792   0.090  1.6187  1.1378  2.0806
 6038TIP3    H239750   6.320   2.647   0.133 -1.2581  0.3631 -0.7408
 6039TIP3   OH239751   5.519   2.187   8.027  0.4624  0.7596 -0.7191
 6039TIP3    H139752   5.457   2.114   8.020  0.8334  0.1145  1.6052
 6039TIP3    H239753   5.479   2.258   7.977 -1.2714 -0.1945 -0.7600
 6040TIP3   OH239754   1.955   6.591   1.165  0.0363  0.4930 -0.7258
 6040TIP3    H139755   1.896   6.517   1.154  1.0953 -0.2418 -1.5847
 6040TIP3    H239756   2.035   6.554   1.202  0.1207  1.4185  0.0729
 6041TIP3   OH239757   5.532   5.781   7.711 -0.3675 -0.2404 -0.1533
 6041TIP3    H139758   5.445   5.762   7.676 -0.6993 -0.6650  0.8740
 6041TIP3    H239759   5.551   5.708   7.769  0.0381  0.5801  0.7770
 6042TIP3   OH239760   1.968   0.522   6.671  0.1745 -0.3378 -0.1847
 6042TIP3    H139761   2.009   0.466   6.605  0.7016 -0.5533  0.3183
 6042TIP3    H239762   1.888   0.553   6.629  0.9960  0.3584 -1.3131
 6043TIP3   OH239763   0.029   1.608   0.824 -0.0270 -0.4443  0.6988
 6043TIP3    H139764  -0.062   1.582   0.808 -0.6600  1.5529  0.7801
 6043TIP3    H239765   0.027   1.657   0.906  0.7705  1.1135 -0.1507
 6044TIP3   OH239766   3.545   2.100   7.180  0.0876  0.2509  0.6711
 6044TIP3    H139767   3.459   2.125   7.148  0.8012 -0.7805 -2.4249
 6044TIP3    H239768   3.605   2.164   7.142  1.2464 -2.3850 -2.5071
 6045TIP3   OH239769   2.886   4.673   1.342 -0.0757  0.1669  0.7652
 6045TIP3    H139770   2.840   4.748   1.305  1.0912  0.4420 -0.1950
 6045TIP3    H239771   2.931   4.708   1.419 -0.4952  0.1722  1.0088
 6046TIP3   OH239772   1.314   3.311   1.590 -0.8722  0.4396 -0.3148
 6046TIP3    H139773   1.324   3.391   1.538 -0.0793 -1.2866 -3.0540
 6046TIP3    H239774   1.404   3.289   1.618 -0.8931 -0.1517 -0.6878
 6047TIP3   OH239775   2.032   0.130   7.008  0.2253  0.5901 -0.2667
 6047TIP3    H139776   2.113   0.157   7.050 -0.4597  1.4094  0.5694
 6047TIP3    H239777   1.994   0.066   7.067  1.6469 -2.0991 -2.0546
 6048TIP3   OH239778   3.259   5.863   0.359 -0.0894 -0.3975  0.0354
 6048TIP3    H139779   3.178   5.839   0.316  0.8755  0.1079 -2.2185
 6048TIP3    H239780   3.280   5.950   0.325  0.6164  0.1640  1.7736
 6049TIP3   OH239781   2.569   4.798   6.510  0.4950  0.0467  0.1337
 6049TIP3    H139782   2.477   4.817   6.492  0.2411 -1.4764 -0.3276
 6049TIP3    H239783   2.615   4.880   6.492 -0.2467 -0.2049 -3.7042
 6050TIP3   OH239784   0.341   0.804   8.178  0.0417  0.0711  0.1673
 6050TIP3    H139785   0.409   0.738   8.193 -0.9502 -1.0649 -0.1835
 6050TIP3    H239786   0.389   0.884   8.157  1.3502 -1.5316 -3.8274
 6051TIP3   OH239787   3.865   4.377   0.830 -0.1235  0.1613  0.8281
 6051TIP3    H139788   3.883   4.289   0.865 -0.0414  1.1143  3.4248
 6051TIP3    H239789   3.799   4.413   0.890 -1.8023  1.1274 -1.4507
 6052TIP3   OH239790   1.544   2.665   7.651 -0.2153  0.5806 -0.1348
 6052TIP3    H139791   1.611   2.719   7.693  1.2795 -1.6426  0.5773
 6052TIP3    H239792   1.574   2.657   7.560 -0.2899  0.7143 -0.1719
 6053TIP3   OH239793   3.586   0.172   7.303 -0.1830 -0.9591  0.3206
 6053TIP3    H139794   3.525   0.110   7.341 -2.5144  1.1029  0.1922
 6053TIP3    H239795   3.537   0.215   7.233  1.9204 -0.2246 -0.7923
 6054TIP3   OH239796   1.773   3.734   7.813 -0.2344  0.1011 -0.2394
 6054TIP3    H139797   1.736   3.809   7.860  0.1763 -0.0669  0.3639
 6054TIP3    H239798   1.739   3.657   7.860  1.1561 -0.0535  0.5742
 6055TIP3   OH239799   0.131   0.667   0.652  0.3599 -0.5549 -0.4963
 6055TIP3    H139800   0.135   0.763   0.649 -1.5027 -0.4636 -2.5363
 6055TIP3    H239801   0.146   0.646   0.744  1.0055  1.6798 -0.0195
 6056TIP3   OH239802   5.389   3.130   7.922 -0.1038  0.2742  0.5040
 6056TIP3    H139803   5.413   3.061   7.984 -0.0517  0.6643  0.9267
 6056TIP3    H239804   5.370   3.206   7.977 -1.1993  0.2983  0.0993
 6057TIP3   OH239805   4.658   5.596   0.704  0.4029 -0.3476 -0.4205
 6057TIP3    H139806   4.573   5.569   0.667 -0.2522  0.5213  0.3938
 6057TIP3    H239807   4.668   5.687   0.677  1.4230 -0.6464 -1.0937
 6058TIP3   OH239808   5.095   0.513   8.367  0.3441  0.3391 -0.1057
 6058TIP3    H139809   5.030   0.571   8.326  1.6000  1.5540 -0.4581
 6058TIP3    H239810   5.049   0.475   8.441 -1.1605  0.1636 -1.0909
 6059TIP3   OH239811   6.466   1.627   0.497  0.2761  0.7205  0.0986
 6059TIP3    H139812   6.386   1.576   0.482  0.6552  0.0067  0.4503
 6059TIP3    H239813   6.513   1.623   0.414  0.7886 -0.3915  0.4224
 6060TIP3   OH239814   4.878   2.565   7.361  0.1607  0.3197  0.0166
 6060TIP3    H139815   4.966   2.602   7.351  0.5893 -1.0900 -2.1278
 6060TIP3    H239816   4.885   2.505   7.435  1.2007 -0.2147 -0.4928
 6061TIP3   OH239817   0.788   4.596   2.063 -0.2154 -0.4972  0.2142
 6061TIP3    H139818   0.852   4.596   2.134 -1.2249 -1.3166  1.1708
 6061TIP3    H239819   0.833   4.637   1.990  0.5500  1.3144  1.6162
 6062TIP3   OH239820   3.134   1.241   8.755 -0.3058  0.0740  0.2215
 6062TIP3    H139821   3.156   1.285   8.673 -0.1633 -0.8317 -0.2380
 6062TIP3    H239822   3.141   1.309   8.822 -2.9317  1.4853 -0.8207
 6063TIP3   OH239823   3.070   6.216   8.924  0.3867 -0.0624  0.2389
 6063TIP3    H139824   3.142   6.156   8.942  0.3243 -0.1737  0.1200
 6063TIP3    H239825   3.108   6.303   8.933  0.7197 -0.1170 -0.5338
 6064TIP3   OH239826   1.285   4.582   7.284  0.3230 -0.3499  0.8133
 6064TIP3    H139827   1.320   4.524   7.352 -0.1519  0.5508  1.8487
 6064TIP3    H239828   1.195   4.554   7.273  0.3749 -0.4394  0.5998
 6065TIP3   OH239829   4.964   6.687   8.145 -0.1857  0.6680 -0.0045
 6065TIP3    H139830   4.979   6.774   8.107  0.0090  0.6055 -0.0687
 6065TIP3    H239831   4.886   6.655   8.101 -0.7279  1.1381  0.5792
 6066TIP3   OH239832   3.036   2.806   8.063 -0.3244 -0.2820  0.2118
 6066TIP3    H139833   3.066   2.895   8.043 -2.8145  0.5781  0.0086
 6066TIP3    H239834   3.041   2.759   7.980  1.3217 -0.4926  0.3892
 6067TIP3   OH239835   0.988   5.406   1.911 -0.2246  0.2250 -0.1794
 6067TIP3    H139836   1.019   5.425   2.000  0.6069 -0.6842 -0.2582
 6067TIP3    H239837   0.938   5.484   1.887 -1.7365 -0.1150  1.6247
 6068TIP3   OH239838   2.157   4.103   7.934  0.3563  0.2369  0.1565
 6068TIP3    H139839   2.223   4.041   7.965 -0.3680 -0.1507  0.9774
 6068TIP3    H239840   2.074   4.059   7.952 -0.3064  2.3974  2.9710
 6069TIP3   OH239841   2.887   2.236   1.431 -0.3202 -0.0768 -0.7291
 6069TIP3    H139842   2.912   2.164   1.373  0.4038 -0.8389  0.5002
 6069TIP3    H239843   2.840   2.193   1.503 -0.5355  0.7700 -0.3539
 6070TIP3   OH239844   6.064   4.295   8.530  0.0826 -0.2370 -0.0061
 6070TIP3    H139845   5.993   4.360   8.529 -0.2941 -0.6315 -1.4531
 6070TIP3    H239846   6.027   4.219   8.484  0.7042 -1.2719  1.1605
 6071TIP3   OH239847   0.959   0.083   8.973  0.3753 -0.4326  0.3447
 6071TIP3    H139848   0.876   0.077   9.020 -0.5644 -1.3060 -1.3467
 6071TIP3    H239849   1.011   0.011   9.007 -0.4240 -1.2614 -0.1491
 6072TIP3   OH239850   0.134   3.205   0.504  0.2252  0.3458  0.1826
 6072TIP3    H139851   0.196   3.245   0.443  0.2924 -0.7941 -0.5202
 6072TIP3    H239852   0.049   3.215   0.461  0.0107  1.1440  0.7545
 6073TIP3   OH239853   5.163   4.511   8.021 -0.0345  0.2109  1.4046
 6073TIP3    H139854   5.208   4.503   8.105  0.2993  1.1202  1.3166
 6073TIP3    H239855   5.075   4.479   8.038  0.1458  0.0193  2.0017
 6074TIP3   OH239856   1.805   1.162   7.920 -0.2863 -0.2543  0.2222
 6074TIP3    H139857   1.741   1.218   7.876 -0.4854 -1.0892 -0.5660
 6074TIP3    H239858   1.757   1.083   7.943  0.7156 -1.3807 -1.4010
 6075TIP3   OH239859   0.041   6.236   1.332  0.6375  0.1458 -0.4211
 6075TIP3    H139860   0.081   6.322   1.325 -0.7156  0.7592 -1.1637
 6075TIP3    H239861   0.086   6.183   1.266 -0.0155  0.9415 -1.5524
 6076TIP3   OH239862   0.663   6.070   0.030 -0.4493 -0.2599  0.6511
 6076TIP3    H139863   0.569   6.077   0.012 -0.4495  0.1462  0.8002
 6076TIP3    H239864   0.672   6.107   0.118 -0.0171  0.5651  0.2719
 6077TIP3   OH239865   5.411   6.436   7.661  0.0170  0.2144 -0.0202
 6077TIP3    H139866   5.431   6.452   7.569  0.6725 -0.5190 -0.0242
 6077TIP3    H239867   5.478   6.485   7.709 -0.0400  0.2255  0.0487
 6078TIP3   OH239868   5.411   5.630   1.772  0.2004 -0.7884  0.1704
 6078TIP3    H139869   5.433   5.723   1.773 -1.3967 -0.3616 -0.7251
 6078TIP3    H239870   5.494   5.585   1.788  1.2629  0.7460 -0.8051
 6079TIP3   OH239871   2.439   4.113   1.645  0.3369  0.0898  0.1128
 6079TIP3    H139872   2.418   4.156   1.562  0.2417  1.0236  0.6049
 6079TIP3    H239873   2.468   4.184   1.702 -2.1026 -0.0577  1.7286
 6080TIP3   OH239874   4.214   0.433   1.407 -0.3158 -0.4359  0.3732
 6080TIP3    H139875   4.299   0.470   1.431  0.1215 -0.6599 -0.7637
 6080TIP3    H239876   4.235   0.362   1.347 -1.3316 -0.0504 -0.4735
 6081TIP3   OH239877   3.092   3.697   8.530  0.1267  0.6514  0.1251
 6081TIP3    H139878   3.186   3.678   8.534  0.0702  0.3116 -0.0542
 6081TIP3    H239879   3.053   3.615   8.500 -0.0508  1.2568 -1.4198
 6082TIP3   OH239880   4.303   6.041   6.430 -0.5126  0.6097 -0.0353
 6082TIP3    H139881   4.283   5.993   6.350 -1.0032 -0.0359  0.4615
 6082TIP3    H239882   4.243   6.004   6.496  0.4870  0.5232  0.8455
 6083TIP3   OH239883   3.173   6.728   8.670  0.2074 -0.0932 -0.0873
 6083TIP3    H139884   3.222   6.809   8.661 -0.8104  0.6405  0.6414
 6083TIP3    H239885   3.237   6.659   8.655  1.3590  0.8298  0.3898
 6084TIP3   OH239886   0.012   1.838   1.032  0.2773 -0.4141  0.1667
 6084TIP3    H139887   0.100   1.872   1.019 -0.0654  0.2350 -0.5680
 6084TIP3    H239888  -0.044   1.896   0.980 -0.8650  0.5650  2.3445
 6085TIP3   OH239889   6.084   4.441   8.852  0.0628 -0.0933 -0.0096
 6085TIP3    H139890   6.098   4.349   8.875 -1.9548 -0.1233  1.2396
 6085TIP3    H239891   6.164   4.465   8.804  1.2889 -2.0512  0.9136
 6086TIP3   OH239892   0.989   0.715   1.294  0.4336  0.4705 -0.2652
 6086TIP3    H139893   0.934   0.738   1.369  0.4199 -1.0896  0.2350
 6086TIP3    H239894   1.067   0.770   1.303  0.1271  0.7960  0.5003
 6087TIP3   OH239895   0.455   1.477   1.314 -0.3467  0.1867 -0.1421
 6087TIP3    H139896   0.382   1.466   1.375 -0.1783  2.0475  0.4793
 6087TIP3    H239897   0.524   1.519   1.367 -0.0500  1.4857 -1.4945
 6088TIP3   OH239898   4.398   0.273   0.852  0.0284 -0.1797 -0.1600
 6088TIP3    H139899   4.436   0.258   0.939  1.3064 -1.1793 -0.8480
 6088TIP3    H239900   4.304   0.276   0.866  0.2611  0.5564  1.3787
 6089TIP3   OH239901   6.760   3.902   1.527 -0.6292  0.2553  0.4288
 6089TIP3    H139902   6.724   3.937   1.445 -0.1546 -1.0938 -0.3840
 6089TIP3    H239903   6.757   3.976   1.587 -2.8481  0.7520 -0.1948
 6090TIP3   OH239904   3.648   0.823   0.335  0.2595 -0.0498 -0.0357
 6090TIP3    H139905   3.733   0.780   0.346 -0.0180 -0.8728 -0.9724
 6090TIP3    H239906   3.627   0.858   0.422  0.9816 -0.9129  0.4964
 6091TIP3   OH239907   1.884   0.405   0.357  0.2718  0.0896 -0.7546
 6091TIP3    H139908   1.883   0.499   0.344  1.0624  0.1054 -0.7316
 6091TIP3    H239909   1.815   0.390   0.423 -1.6338  0.3302 -2.5810
 6092TIP3   OH239910   0.305   4.658   8.810 -0.3061  0.0143  0.4992
 6092TIP3    H139911   0.390   4.616   8.825 -0.1492  0.4177  0.7464
 6092TIP3    H239912   0.308   4.685   8.718  0.6211  1.7713  1.0043
 6093TIP3   OH239913   0.789   2.727   8.696  0.0602 -0.1817 -0.0491
 6093TIP3    H139914   0.694   2.732   8.684  0.3721  1.8917 -2.6485
 6093TIP3    H239915   0.823   2.713   8.608  2.2138  0.1699  0.6801
 6094TIP3   OH239916   5.672   0.666   8.254  0.4062  0.5019 -0.8973
 6094TIP3    H139917   5.735   0.616   8.306 -0.4102 -0.1241 -0.4809
 6094TIP3    H239918   5.675   0.625   8.167 -1.0595 -1.0718 -0.2718
 6095TIP3   OH239919   6.190   0.700   1.804  0.3521 -1.0243 -0.8454
 6095TIP3    H139920   6.196   0.642   1.880  0.5267  0.9981  0.7766
 6095TIP3    H239921   6.106   0.743   1.813  0.7478 -0.1308 -1.3378
 6096TIP3   OH239922   3.310   5.595   6.634  0.5013  0.3849 -0.7593
 6096TIP3    H139923   3.303   5.504   6.661  2.2155  0.7926  1.3756
 6096TIP3    H239924   3.224   5.617   6.599 -1.1566 -1.0064  2.1267
 6097TIP3   OH239925   3.718   5.586   0.541 -0.1817  0.4832  0.5046
 6097TIP3    H139926   3.673   5.603   0.624 -0.7005  0.0663  0.3152
 6097TIP3    H239927   3.681   5.650   0.480 -2.2300 -1.2861 -0.2423
 6098TIP3   OH239928   2.713   4.116   1.336  0.4107 -0.4294 -0.0959
 6098TIP3    H139929   2.652   4.189   1.344  2.4045  1.3214  0.1731
 6098TIP3    H239930   2.693   4.059   1.410 -0.5188  0.3960  0.2997
 6099TIP3   OH239931   6.307   1.584   7.813 -0.3556 -0.1063  0.2963
 6099TIP3    H139932   6.250   1.570   7.888 -0.9466  0.1336 -0.0999
 6099TIP3    H239933   6.328   1.677   7.815  0.5268 -0.2973  0.7814
 6100TIP3   OH239934   3.073   6.475   8.012  1.0240 -0.1382 -0.2213
 6100TIP3    H139935   3.033   6.428   7.939 -0.9142  0.6346  0.2821
 6100TIP3    H239936   3.167   6.460   8.001  0.6696 -1.5282 -1.8236
 6101TIP3   OH239937   3.540   5.277   0.459 -0.0298  0.8058  0.7115
 6101TIP3    H139938   3.569   5.227   0.383  0.0457 -1.0494  1.9017
 6101TIP3    H239939   3.445   5.263   0.462 -0.0714  1.0920  0.8116
 6102TIP3   OH239940   5.633   0.816   0.596  0.0338  0.4483 -0.0775
 6102TIP3    H139941   5.597   0.733   0.565  1.3167 -0.0458 -0.3216
 6102TIP3    H239942   5.558   0.864   0.630 -0.9514 -0.2372 -1.2053
 6103TIP3   OH239943   6.688   2.101   0.187  0.0091  0.2302  0.1058
 6103TIP3    H139944   6.699   2.175   0.248  1.3572  0.5864 -0.5415
 6103TIP3    H239945   6.757   2.113   0.122 -0.0660 -1.3387 -0.2941
 6104TIP3   OH239946   4.272   5.935   0.978  0.0607  0.4842  0.2199
 6104TIP3    H139947   4.192   5.897   0.940  1.1707 -0.6261 -1.0800
 6104TIP3    H239948   4.240   5.984   1.054 -1.6083 -1.8785  1.1769
 6105TIP3   OH239949   3.747   5.259   1.202 -0.2806 -0.6753  0.3233
 6105TIP3    H139950   3.754   5.255   1.298 -0.8255  0.5653  0.4352
 6105TIP3    H239951   3.821   5.207   1.171  0.1565 -0.7540  1.4239
 6106TIP3   OH239952   6.532   3.586   0.988 -0.2097 -0.4632 -0.0596
 6106TIP3    H139953   6.453   3.557   0.942  0.3350 -0.7198 -0.8609
 6106TIP3    H239954   6.604   3.548   0.938  0.5711  2.4648 -1.3906
 6107TIP3   OH239955   1.263   6.513   1.095  0.3458 -0.1398 -0.2605
 6107TIP3    H139956   1.206   6.448   1.136  0.3953  0.1231  0.2378
 6107TIP3    H239957   1.204   6.586   1.075  0.1545 -0.5992 -1.4510
 6108TIP3   OH239958   4.043   4.246   7.545  0.0064 -0.6627  0.2137
 6108TIP3    H139959   3.978   4.274   7.609 -2.2640 -1.2355 -1.6814
 6108TIP3    H239960   4.006   4.166   7.507  2.4577 -1.7161 -0.1031
 6109TIP3   OH239961   1.857   1.764   7.908  0.7344 -0.0630 -0.5954
 6109TIP3    H139962   1.898   1.829   7.852 -1.6312  0.7837 -1.5033
 6109TIP3    H239963   1.842   1.809   7.991  0.9444 -0.1375 -0.5154
 6110TIP3   OH239964   5.246   6.735   1.416  0.6374  0.7738 -0.3795
 6110TIP3    H139965   5.322   6.712   1.469  0.7597 -1.6188 -1.4700
 6110TIP3    H239966   5.263   6.695   1.330 -1.0889  1.6267 -1.1808
 6111TIP3   OH239967   6.395   4.541   7.543  0.0353  0.0711 -0.7137
 6111TIP3    H139968   6.433   4.454   7.535 -1.5117 -0.9253  1.6279
 6111TIP3    H239969   6.301   4.527   7.538 -0.5727  0.7774  4.2250
 6112TIP3   OH239970   1.986   3.992   2.122 -0.7950  0.1059 -0.8163
 6112TIP3    H139971   1.942   4.060   2.173  0.7931 -0.1792  1.0430
 6112TIP3    H239972   2.076   4.021   2.115 -0.1070 -1.6685 -0.1051
 6113TIP3   OH239973   2.809   0.849   7.955 -0.4157 -0.1320  0.2004
 6113TIP3    H139974   2.758   0.810   8.027 -0.2613  0.0910  0.4337
 6113TIP3    H239975   2.776   0.938   7.948 -0.4901 -0.1814 -0.0643
 6114TIP3   OH239976   5.724   6.598   1.453  0.2924  0.4601 -0.1165
 6114TIP3    H139977   5.727   6.646   1.536 -0.5008  1.8957 -0.8909
 6114TIP3    H239978   5.814   6.599   1.421  0.9405 -1.5285  1.4790
 6115TIP3   OH239979   5.424   5.310   0.137 -0.8206  0.4273 -0.1013
 6115TIP3    H139980   5.398   5.328   0.227  0.0040 -1.0058  0.4642
 6115TIP3    H239981   5.372   5.233   0.112  1.0179 -0.9896  0.2141
 6116TIP3   OH239982   0.937   4.887   8.006 -0.2112  0.1703 -0.0326
 6116TIP3    H139983   0.868   4.926   8.060 -1.8565 -2.5667  0.0246
 6116TIP3    H239984   0.987   4.832   8.066 -0.4778 -0.9270 -0.7760
 6117TIP3   OH239985   4.298   0.497   0.312 -0.3654  0.3749  0.2050
 6117TIP3    H139986   4.295   0.586   0.347  0.6068  0.3299  0.4396
 6117TIP3    H239987   4.345   0.507   0.229  0.1849  0.0177  0.4675
 6118TIP3   OH239988   2.429   4.913   0.283 -0.2186  0.4354 -0.0043
 6118TIP3    H139989   2.383   4.973   0.223 -1.5224 -1.3581 -0.9109
 6118TIP3    H239990   2.492   4.867   0.227  0.3238  0.5004  0.5456
 6119TIP3   OH239991   0.090   4.713   0.450  0.0052  0.5052 -0.3492
 6119TIP3    H139992   0.133   4.789   0.489  0.0806 -1.0111  2.8534
 6119TIP3    H239993   0.013   4.698   0.505 -2.1226  0.3544 -3.1237
 6120TIP3   OH239994   4.078   1.690   1.582  0.5949  0.6431 -0.0687
 6120TIP3    H139995   4.090   1.775   1.541  0.8221  1.0806  0.8780
 6120TIP3    H239996   4.141   1.633   1.539 -0.3209  0.6487 -1.4990
 6121TIP3   OH239997   3.089   6.315   1.448 -0.2943  0.2879 -0.5777
 6121TIP3    H139998   3.040   6.333   1.528 -0.6389  0.5396 -0.8462
 6121TIP3    H239999   3.179   6.299   1.478 -0.5080 -0.0396 -0.1009
 6122TIP3   OH240000   6.545   4.699   0.225  0.8944 -1.0914  0.6972
 6122TIP3    H140001   6.639   4.714   0.214  0.8740 -1.7404 -0.4945
 6122TIP3    H240002   6.517   4.656   0.144 -0.9325  1.4343 -0.1773
 6123TIP3   OH240003   0.461   6.567   7.403 -0.1346 -0.0274  0.9242
 6123TIP3    H140004   0.529   6.555   7.469 -0.4073 -1.9259  0.9090
 6123TIP3    H240005   0.380   6.579   7.453 -0.6740 -3.3390  1.0902
 6124TIP3   OH240006   0.866   1.445   8.259 -0.0745 -0.7615  0.4913
 6124TIP3    H140007   0.820   1.476   8.337 -1.6207 -0.6268 -0.4257
 6124TIP3    H240008   0.927   1.516   8.238  0.9624 -1.1469  2.0065
 6125TIP3   OH240009   2.366   1.815   6.599 -0.0642  0.1208  0.5896
 6125TIP3    H140010   2.451   1.786   6.631  0.5969  3.1229  1.9263
 6125TIP3    H240011   2.383   1.847   6.510  0.2995  1.0367  0.9831
 6126TIP3   OH240012   3.552   2.468   1.597 -0.3984  0.8781 -0.2401
 6126TIP3    H140013   3.555   2.394   1.658  2.1547  0.3723 -0.8431
 6126TIP3    H240014   3.459   2.481   1.580 -0.9786 -2.8665 -0.8665
 6127TIP3   OH240015   1.402   2.644   7.115 -0.0634 -0.2720 -0.1199
 6127TIP3    H140016   1.494   2.660   7.098 -0.0923 -0.3196 -0.3223
 6127TIP3    H240017   1.401   2.566   7.171  0.1695  1.3877  2.3387
 6128TIP3   OH240018   5.542   3.079   0.350  0.2984  0.4509  0.8268
 6128TIP3    H140019   5.614   3.017   0.336 -0.0731  0.5853 -2.4152
 6128TIP3    H240020   5.582   3.165   0.339  0.3549  0.7726  3.0614
 6129TIP3   OH240021   0.924   6.432   8.503  0.5693 -0.2736 -0.0401
 6129TIP3    H140022   0.980   6.451   8.428  1.1341  0.1482  0.4765
 6129TIP3    H240023   0.840   6.408   8.465  0.4869  1.1009 -0.8025
 6130TIP3   OH240024   0.317   0.829   1.880  0.3581 -0.0476  0.1148
 6130TIP3    H140025   0.246   0.861   1.824 -0.7533 -0.7455  1.0832
 6130TIP3    H240026   0.338   0.742   1.846  1.4037  0.5038 -0.7274
 6131TIP3   OH240027   0.477   1.138   0.869 -0.1936 -0.4816  0.0453
 6131TIP3    H140028   0.437   1.220   0.838 -0.4574 -0.4277  0.5213
 6131TIP3    H240029   0.479   1.147   0.964 -1.0333 -1.4088  0.1576
 6132TIP3   OH240030   6.320   0.225   8.150 -0.4662 -0.5493  0.3676
 6132TIP3    H140031   6.411   0.198   8.162 -0.5104 -0.9882 -0.2284
 6132TIP3    H240032   6.278   0.205   8.234  0.4556  1.7387  1.4696
 6133TIP3   OH240033   3.218   4.249   7.222 -0.0831  0.3343  0.0606
 6133TIP3    H140034   3.280   4.272   7.290 -1.6138 -1.8603  2.3800
 6133TIP3    H240035   3.272   4.235   7.144  2.1445 -0.0701  1.5834
 6134TIP3   OH240036   0.802   0.153   6.737 -0.0450  0.2066 -0.1186
 6134TIP3    H140037   0.862   0.219   6.702  0.1689 -0.3412 -0.8165
 6134TIP3    H240038   0.843   0.070   6.715 -0.8622 -0.1731 -0.2603
 6135TIP3   OH240039   5.151   5.893   1.903 -0.7598  0.1124  0.1280
 6135TIP3    H140040   5.173   5.945   1.981  0.3791 -2.6595  1.8429
 6135TIP3    H240041   5.233   5.888   1.855 -0.9710  0.2205 -0.2441
 6136TIP3   OH240042   5.165   2.178   1.422  0.0625 -0.6540  0.3457
 6136TIP3    H140043   5.237   2.120   1.397  1.5489  1.1143  0.3171
 6136TIP3    H240044   5.185   2.202   1.513  0.1260  0.7087 -0.0185
 6137TIP3   OH240045   2.237   1.031   2.120 -0.4016 -0.5348 -0.1107
 6137TIP3    H140046   2.152   1.068   2.096  0.0983  0.9672  0.3616
 6137TIP3    H240047   2.215   0.949   2.163 -1.5089 -1.1292 -1.6933
 6138TIP3   OH240048   0.818   0.115   8.719  0.6545 -0.0413 -0.2770
 6138TIP3    H140049   0.848   0.119   8.810 -1.5097 -1.1378  0.5675
 6138TIP3    H240050   0.865   0.041   8.681  0.4007 -0.5727  0.4367
 6139TIP3   OH240051   1.908   2.532   8.024 -0.0502  0.1375 -0.3345
 6139TIP3    H140052   1.925   2.618   8.062  1.3295  0.1746 -0.9700
 6139TIP3    H240053   1.938   2.539   7.933 -1.7640 -0.4365 -1.0005
 6140TIP3   OH240054   1.163   4.592   8.407  0.0021 -0.1000 -0.4554
 6140TIP3    H140055   1.139   4.515   8.458  1.9457 -0.8113 -0.5283
 6140TIP3    H240056   1.215   4.557   8.334 -0.3530  1.1572 -1.3431
 6141TIP3   OH240057   3.172   4.055   1.175 -0.1550 -0.0837 -0.3792
 6141TIP3    H140058   3.158   3.962   1.194  0.2601  0.1931  1.5495
 6141TIP3    H240059   3.086   4.089   1.153 -0.6770 -0.5608  0.8260
 6142TIP3   OH240060   0.980   2.666   8.905 -0.2842 -0.0123  0.4438
 6142TIP3    H140061   0.903   2.665   8.848  0.8883  2.0798 -1.3473
 6142TIP3    H240062   1.029   2.587   8.881  0.3988  1.0308 -1.8906
 6143TIP3   OH240063   4.871   1.337   2.210  0.3590 -0.4038 -0.6765
 6143TIP3    H140064   4.821   1.410   2.247 -2.5155 -1.9989 -1.1021
 6143TIP3    H240065   4.945   1.325   2.270 -0.1109  1.6789  0.3888
 6144TIP3   OH240066   4.002   3.267   1.428  0.0793  0.1473  0.0289
 6144TIP3    H140067   4.017   3.361   1.437  1.0640 -0.0648  0.8775
 6144TIP3    H240068   3.997   3.235   1.518  1.4061 -0.8424 -0.2193
 6145TIP3   OH240069   5.837   6.145   8.719  0.1724 -0.0275 -0.1699
 6145TIP3    H140070   5.800   6.195   8.646 -0.1220  0.5824  0.3838
 6145TIP3    H240071   5.905   6.202   8.755 -1.1181  0.6464  1.3626
 6146TIP3   OH240072   3.339   0.789   6.232 -0.0362  0.0774 -0.0246
 6146TIP3    H140073   3.338   0.707   6.281  0.3792  0.3543  0.4547
 6146TIP3    H240074   3.256   0.790   6.184 -0.1802 -0.4716  0.2104
 6147TIP3   OH240075   3.002   1.997   7.337  1.1427  0.3733  0.5794
 6147TIP3    H140076   2.947   1.919   7.340 -0.0203  1.1574  0.3194
 6147TIP3    H240077   3.090   1.964   7.324  0.6439 -0.8921  0.2869
 6148TIP3   OH240078   6.030   5.782   1.479 -0.8170 -0.4235 -0.0171
 6148TIP3    H140079   6.111   5.762   1.430 -0.6435 -1.3306  0.6165
 6148TIP3    H240080   6.061   5.824   1.559 -0.9578 -0.9838  0.3319
 6149TIP3   OH240081   6.688   2.782   2.363 -0.0339  0.0038  0.3799
 6149TIP3    H140082   6.763   2.841   2.353 -0.3647  0.4604  0.5602
 6149TIP3    H240083   6.727   2.694   2.367  0.5235  0.2692  0.9291
 6150TIP3   OH240084   3.243   0.758   0.508  0.3348  0.1725  0.1861
 6150TIP3    H140085   3.157   0.747   0.466  0.2738 -2.1667  0.7954
 6150TIP3    H240086   3.300   0.790   0.438 -0.6556  0.1579 -0.6508
 6151TIP3   OH240087   2.886   0.524   1.769 -0.3735  0.0122 -0.2145
 6151TIP3    H140088   2.892   0.455   1.835  0.7816 -0.8633 -1.1994
 6151TIP3    H240089   2.931   0.599   1.808 -1.0456  0.0165  0.5876
 6152TIP3   OH240090   3.083   3.961   7.132  0.0104 -0.0889  0.0426
 6152TIP3    H140091   2.997   3.980   7.094 -1.6226 -1.0162  2.9950
 6152TIP3    H240092   3.076   3.871   7.163  1.2288  0.5506  2.3525
 6153TIP3   OH240093   4.162   5.687   0.138 -0.7974 -0.1489 -0.0483
 6153TIP3    H140094   4.102   5.644   0.077  0.4250 -0.4518 -1.0715
 6153TIP3    H240095   4.172   5.776   0.102 -1.0048  0.0590  0.3987
 6154TIP3   OH240096   0.541   5.786   7.923  0.1887  0.0472 -0.2134
 6154TIP3    H140097   0.609   5.736   7.969 -0.8921 -1.3127 -0.0667
 6154TIP3    H240098   0.587   5.825   7.849  1.5275  0.6346  0.8578
 6155TIP3   OH240099   1.399   5.116   8.463 -0.0784  0.1394 -0.3885
 6155TIP3    H140100   1.335   5.052   8.493  0.2201  0.4505  1.0047
 6155TIP3    H240101   1.356   5.162   8.391 -1.5125  0.4972  0.6562
 6156TIP3   OH240102   0.991   5.258   7.778 -0.1778 -0.2244 -0.1294
 6156TIP3    H140103   1.082   5.260   7.749  0.0565  0.2398  0.6057
 6156TIP3    H240104   0.975   5.166   7.800  0.5912 -0.0826  1.1489
 6157TIP3   OH240105   3.142   2.528   7.349 -0.2732  0.0206  0.4560
 6157TIP3    H140106   3.193   2.591   7.299 -1.0229 -0.1495 -0.5551
 6157TIP3    H240107   3.147   2.559   7.440 -0.8786  1.6997 -0.0479
 6158TIP3   OH240108   4.526   4.686   2.460  0.1114 -0.3414 -0.1601
 6158TIP3    H140109   4.575   4.607   2.482  0.4601 -0.1797 -0.3409
 6158TIP3    H240110   4.540   4.698   2.366 -2.0920 -1.5243 -0.6981
 6159TIP3   OH240111   3.613   5.530   6.878 -0.8576  0.1654 -0.0206
 6159TIP3    H140112   3.574   5.469   6.816  1.2967 -1.3466  0.0030
 6159TIP3    H240113   3.541   5.589   6.902 -2.4893 -1.0379 -1.6488
 6160TIP3   OH240114   1.052   2.550   1.394  0.0912  0.4851 -0.0277
 6160TIP3    H140115   1.093   2.470   1.425  1.6559  1.4099  0.4076
 6160TIP3    H240116   1.005   2.585   1.470 -4.1633 -1.9904 -1.1664
 6161TIP3   OH240117   4.958   2.135   7.354  0.3422 -0.4925  0.2388
 6161TIP3    H140118   5.045   2.169   7.334  0.5969 -1.8524 -1.2492
 6161TIP3    H240119   4.933   2.087   7.275 -1.5873 -0.4925  0.8012
 6162TIP3   OH240120   5.865   0.842   8.495  0.2361 -0.2468 -0.0152
 6162TIP3    H140121   5.875   0.747   8.504  0.3456 -0.2164  0.1786
 6162TIP3    H240122   5.954   0.874   8.481  0.2379 -0.1345  0.2595
 6163TIP3   OH240123   2.724   4.207   0.608  0.2653 -0.3076  0.4473
 6163TIP3    H140124   2.770   4.141   0.556  0.7002  1.3681 -1.4156
 6163TIP3    H240125   2.782   4.224   0.682  1.6838  0.2346 -0.7395
 6164TIP3   OH240126   5.467   6.666   0.852 -0.2212  0.6897  0.0088
 6164TIP3    H140127   5.503   6.592   0.900 -2.4669 -0.9372 -0.6481
 6164TIP3    H240128   5.408   6.709   0.914 -0.8490  0.3792 -0.3629
 6165TIP3   OH240129   4.761   4.569   8.633  0.4403 -0.6396  0.0586
 6165TIP3    H140130   4.680   4.611   8.604  0.9020  0.4486  0.2965
 6165TIP3    H240131   4.733   4.486   8.671 -0.6107 -0.1178  0.4661
 6166TIP3   OH240132   0.931   5.004   0.044 -0.6089 -0.6069 -0.0565
 6166TIP3    H140133   0.961   4.962   0.125 -2.9638 -1.8329  0.2485
 6166TIP3    H240134   0.973   4.954  -0.026  1.1126  0.2022  0.3321
 6167TIP3   OH240135   2.577   1.169   2.383 -0.3230  0.4126  0.3181
 6167TIP3    H140136   2.507   1.194   2.322 -1.3052 -0.3281  1.0878
 6167TIP3    H240137   2.614   1.089   2.345  0.2524  0.9130 -0.1911
 6168TIP3   OH240138   2.814   1.780   1.683 -0.1126 -0.3132  0.2071
 6168TIP3    H140139   2.777   1.837   1.750 -2.2532  0.0168 -1.1490
 6168TIP3    H240140   2.743   1.770   1.619  1.1708 -2.2160 -1.0060
 6169TIP3   OH240141   2.555   1.779   0.282 -0.5528  0.9092  0.0600
 6169TIP3    H140142   2.508   1.747   0.205 -0.3635  0.9529 -0.0726
 6169TIP3    H240143   2.600   1.702   0.316  0.4902  1.1746 -0.6765
 6170TIP3   OH240144   0.592   4.942   1.684  0.4482 -0.2278 -0.9041
 6170TIP3    H140145   0.658   4.923   1.751 -0.2823 -0.3514 -0.2146
 6170TIP3    H240146   0.593   5.037   1.676  0.2052 -0.1816 -0.3782
 6171TIP3   OH240147   5.647   1.215   7.848 -0.7716  0.0873 -0.1684
 6171TIP3    H140148   5.596   1.231   7.927 -0.3687  0.6855 -0.0216
 6171TIP3    H240149   5.737   1.233   7.873 -0.4835 -0.8993 -0.4441
 6172TIP3   OH240150   3.371   6.716   1.208 -0.4470 -0.2789  1.1484
 6172TIP3    H140151   3.405   6.646   1.152 -2.6522 -1.5457  1.2947
 6172TIP3    H240152   3.440   6.730   1.273  1.8055  0.6014 -1.2385
 6173TIP3   OH240153   5.475   6.556   8.902 -0.1822 -0.1955 -0.5055
 6173TIP3    H140154   5.514   6.603   8.828  1.0671 -0.0071  0.2266
 6173TIP3    H240155   5.551   6.522   8.951 -0.8703  0.9446  1.4974
 6174TIP3   OH240156   5.349   1.821   7.459  0.2219  0.1214  0.1121
 6174TIP3    H140157   5.402   1.795   7.534  2.6828  0.0168 -1.5498
 6174TIP3    H240158   5.315   1.908   7.482 -0.6553 -0.6780  2.0497
 6175TIP3   OH240159   1.742   5.700   6.520  0.8634 -0.0628 -0.1276
 6175TIP3    H140160   1.666   5.683   6.464  2.1589  1.6592 -2.6153
 6175TIP3    H240161   1.795   5.621   6.515  0.0462 -0.6447  0.2700
 6176TIP3   OH240162   2.626   3.779   0.834  0.4935 -0.1738 -0.2550
 6176TIP3    H140163   2.624   3.875   0.828 -0.2722 -0.1060  0.8205
 6176TIP3    H240164   2.580   3.749   0.755 -0.0905  0.3785 -0.1358
 6177TIP3   OH240165   5.828   1.985   7.196  0.3426  0.2235 -0.7903
 6177TIP3    H140166   5.796   1.970   7.107 -1.0568  0.1984 -0.2997
 6177TIP3    H240167   5.755   1.961   7.253  0.9711  0.9162  0.3493
 6178TIP3   OH240168   2.676   2.314   7.216 -0.3243 -0.0442  0.0893
 6178TIP3    H140169   2.685   2.305   7.121  1.9251 -0.3384  0.2746
 6178TIP3    H240170   2.762   2.342   7.246 -1.3182  1.2628  1.9421
 6179TIP3   OH240171   2.056   3.556   6.615  0.3965  0.0855  0.0243
 6179TIP3    H140172   2.142   3.582   6.648  0.6775 -0.8299  0.0298
 6179TIP3    H240173   2.060   3.571   6.521  0.3063  0.7165  0.1126
 6180TIP3   OH240174   1.470   2.222   8.362  0.9076 -0.3519 -0.0789
 6180TIP3    H140175   1.477   2.303   8.310 -4.5558 -0.9780 -2.4910
 6180TIP3    H240176   1.435   2.251   8.446  1.5955 -0.0521  0.1154
 6181TIP3   OH240177   2.232   6.658   7.741 -0.3826 -0.2849 -0.1029
 6181TIP3    H140178   2.299   6.601   7.779  0.8641  0.8240 -0.5483
 6181TIP3    H240179   2.199   6.709   7.814  0.9012  0.7452 -0.1969
 6182TIP3   OH240180   6.347   6.630   8.832  0.1244  0.2091  0.0518
 6182TIP3    H140181   6.349   6.616   8.738 -0.9254  1.0518 -0.1183
 6182TIP3    H240182   6.420   6.690   8.849 -0.6530  1.3398 -0.4771
 6183TIP3   OH240183   1.832   5.178   0.209  0.4223  0.2571  0.0474
 6183TIP3    H140184   1.777   5.172   0.131  1.4168  0.8430 -0.7239
 6183TIP3    H240185   1.781   5.135   0.278 -1.3771  1.5024 -0.4141
 6184TIP3   OH240186   4.136   2.181   6.387 -0.1932 -0.5731  0.1729
 6184TIP3    H140187   4.069   2.139   6.443  1.0309 -1.9014  0.7164
 6184TIP3    H240188   4.144   2.122   6.312  0.7876 -0.7787  0.4228
 6185TIP3   OH240189   2.144   0.070   6.373  0.1806 -0.9866 -0.0323
 6185TIP3    H140190   2.173   0.020   6.450 -2.3538  1.1917  2.5713
 6185TIP3    H240191   2.056   0.038   6.354 -0.3283  0.4117 -0.1751
 6186TIP3   OH240192   0.442   5.908   2.723 -0.3518  0.2698 -0.2856
 6186TIP3    H140193   0.427   5.987   2.671 -0.2664 -0.3410 -1.2570
 6186TIP3    H240194   0.498   5.853   2.668 -1.9016 -1.2505 -0.4443
 6187TIP3   OH240195   0.221   1.069   0.308  0.4767 -0.4873 -0.6446
 6187TIP3    H140196   0.184   1.152   0.279  1.8717  0.5167  0.3146
 6187TIP3    H240197   0.271   1.090   0.386  1.6055 -2.0756 -0.8761
 6188TIP3   OH240198   4.140   5.593   2.430 -0.4156  0.3901 -0.1541
 6188TIP3    H140199   4.209   5.561   2.372 -0.5579 -0.1824 -0.0171
 6188TIP3    H240200   4.183   5.660   2.484  0.8365 -1.8893  1.8959
 6189TIP3   OH240201   3.887   5.545   2.370 -0.0748 -0.5267  0.0209
 6189TIP3    H140202   3.845   5.601   2.436 -0.1768 -1.0726  0.4301
 6189TIP3    H240203   3.977   5.535   2.402  0.3756  0.6089 -0.8316
 6190TIP3   OH240204   5.951   3.410   2.204 -0.0586  0.4204 -0.1115
 6190TIP3    H140205   6.041   3.382   2.219 -0.8587 -1.4312  1.8314
 6190TIP3    H240206   5.951   3.504   2.222  1.5140  0.5165 -0.4652
 6191TIP3   OH240207   2.948   2.962   1.394 -0.0811  0.3934  0.5695
 6191TIP3    H140208   2.995   2.999   1.468 -0.9017  2.9764 -0.0856
 6191TIP3    H240209   2.957   3.028   1.325  0.8800 -2.0143 -1.7675
 6192TIP3   OH240210   1.952   0.532   8.694 -0.0169 -0.0533  0.1211
 6192TIP3    H140211   1.953   0.627   8.679  0.1362  0.2027  1.6265
 6192TIP3    H240212   1.993   0.521   8.779 -1.9350 -1.2970  0.9454
 6193TIP3   OH240213   3.195   1.775   0.324 -0.0079  0.4114 -0.0167
 6193TIP3    H140214   3.227   1.834   0.393 -0.8308  2.2824 -1.1614
 6193TIP3    H240215   3.238   1.805   0.244 -0.6881 -0.3504 -0.6947
 6194TIP3   OH240216   4.324   1.601   7.237  0.2533  0.1067  0.2256
 6194TIP3    H140217   4.341   1.672   7.299 -1.7419  1.1263 -0.3125
 6194TIP3    H240218   4.301   1.645   7.155 -1.1943 -1.1033 -0.0804
 6195TIP3   OH240219   4.494   4.165   1.308  0.5015 -0.2156  0.2731
 6195TIP3    H140220   4.536   4.216   1.239 -1.2547  0.8481 -0.0663
 6195TIP3    H240221   4.417   4.216   1.332 -0.8308 -2.2802  0.5984
 6196TIP3   OH240222   3.305   1.494   0.612  0.0501  0.1907 -0.0122
 6196TIP3    H140223   3.349   1.411   0.632  3.8667  2.2869  1.4368
 6196TIP3    H240224   3.376   1.558   0.610 -2.7648  3.5839 -0.3750
 6197TIP3   OH240225   3.670   2.791   8.062  0.5973  0.3136 -0.0820
 6197TIP3    H140226   3.761   2.797   8.092  0.1625  0.2705  1.3594
 6197TIP3    H240227   3.645   2.882   8.044  0.5234  0.4944  0.8703
 6198TIP3   OH240228   5.825   1.231   8.483 -0.2458  0.0630 -0.0453
 6198TIP3    H140229   5.894   1.276   8.433 -0.8619  1.3869  0.2609
 6198TIP3    H240230   5.749   1.232   8.425 -0.4966  0.1553  0.2807
 6199TIP3   OH240231   5.855   0.728   0.790  0.1982  0.7543 -0.5703
 6199TIP3    H140232   5.899   0.659   0.740  0.0879  0.9430 -0.9285
 6199TIP3    H240233   5.849   0.693   0.879  1.2204  0.7898 -0.4730
 6200TIP3   OH240234   3.397   0.031   8.139 -0.1973 -0.2705 -0.3477
 6200TIP3    H140235   3.430   0.059   8.224 -0.6186  0.0526 -0.2857
 6200TIP3    H240236   3.418  -0.062   8.134  0.6706 -0.0862 -0.2912
 6201TIP3   OH240237   6.086   4.703   1.944  0.3332  0.1959 -0.0046
 6201TIP3    H140238   6.146   4.771   1.914 -0.7006 -0.0489 -2.8985
 6201TIP3    H240239   6.141   4.642   1.993  1.3163  2.9401  2.5875
 6202TIP3   OH240240   0.959   6.494   8.062  0.7136  0.2246  0.6965
 6202TIP3    H140241   0.989   6.439   8.134 -1.1454 -2.7712 -0.6308
 6202TIP3    H240242   0.897   6.440   8.014 -1.0016  3.3970 -1.0299
 6203TIP3   OH240243   1.351   4.571   8.693 -0.0961  0.1114  0.0199
 6203TIP3    H140244   1.440   4.605   8.705 -0.1167  0.2456 -0.2077
 6203TIP3    H240245   1.358   4.513   8.617 -0.0475 -0.4439  0.4370
 6204TIP3   OH240246   0.687   1.948   8.515  0.4044  0.5345 -0.0937
 6204TIP3    H140247   0.677   1.921   8.606  0.7448 -1.6331 -0.6400
 6204TIP3    H240248   0.631   1.888   8.466  4.0656 -1.9052 -1.7378
 6205TIP3   OH240249   4.817   0.325   1.030 -0.0058  0.2955  0.3764
 6205TIP3    H140250   4.837   0.309   0.938 -1.7118 -1.3048  0.2099
 6205TIP3    H240251   4.767   0.406   1.030  1.0864  0.9890  0.0788
 6206TIP3   OH240252   6.094   0.014   2.134  0.0601 -0.5804 -0.2391
 6206TIP3    H140253   6.023  -0.036   2.176 -0.0898  1.7665  2.6268
 6206TIP3    H240254   6.173  -0.014   2.180  0.1208  0.9161  0.6315
 6207TIP3   OH240255   1.546   2.843   0.851 -0.1412 -0.0509 -0.4463
 6207TIP3    H140256   1.624   2.803   0.891 -0.1720  0.6102  0.3167
 6207TIP3    H240257   1.534   2.796   0.769  1.2155 -0.0096 -0.6988
 6208TIP3   OH240258   3.750   5.174   7.444 -0.0471  0.1148 -0.2258
 6208TIP3    H140259   3.662   5.208   7.459 -0.9672 -1.1749 -2.2694
 6208TIP3    H240260   3.782   5.219   7.366  0.1563 -1.0480 -0.8450
 6209TIP3   OH240261   5.278   4.051   7.742 -0.1989  0.3600 -0.4431
 6209TIP3    H140262   5.317   4.100   7.814 -0.3319 -2.5195  1.7827
 6209TIP3    H240263   5.192   4.026   7.775  0.4623 -2.6388 -0.6831
 6210TIP3   OH240264   4.643   3.682   8.497  0.2111 -0.2349 -0.4091
 6210TIP3    H140265   4.735   3.689   8.471  0.1539  1.4075 -0.3098
 6210TIP3    H240266   4.638   3.727   8.581 -1.0798  1.9334 -1.5529
 6211TIP3   OH240267   4.627   5.919   7.160 -0.4214  0.0510 -0.2898
 6211TIP3    H140268   4.584   5.861   7.098 -1.5276 -0.3141  0.7786
 6211TIP3    H240269   4.561   5.986   7.180 -0.5548 -0.5348  1.4045
 6212TIP3   OH240270   5.614   1.550   0.214  0.1831  0.4053 -0.0001
 6212TIP3    H140271   5.619   1.487   0.286 -1.1104  0.7434  0.4142
 6212TIP3    H240272   5.578   1.500   0.141  2.6104 -0.2560 -0.8506
 6213TIP3   OH240273   1.202   0.661   8.861  0.2943  0.4744  0.2638
 6213TIP3    H140274   1.188   0.755   8.845 -0.2871  0.3075 -0.1790
 6213TIP3    H240275   1.117   0.621   8.848  0.5117 -0.1043  0.6024
 6214TIP3   OH240276   2.368   1.572   2.208  0.4819 -0.5074  0.2477
 6214TIP3    H140277   2.450   1.598   2.250  0.0958  1.1690  0.0578
 6214TIP3    H240278   2.382   1.592   2.115 -0.0729 -0.3825  0.1896
 6215TIP3   OH240279   1.399   3.010   8.471 -0.0177  0.5483  0.3033
 6215TIP3    H140280   1.336   2.994   8.400  0.0578 -1.3602  0.6298
 6215TIP3    H240281   1.454   3.081   8.438 -1.0807  0.8919 -0.8155
 6216TIP3   OH240282   6.257   6.748   6.970  0.0592  0.2835 -0.5656
 6216TIP3    H140283   6.342   6.709   6.951  0.6492  1.0698  0.3670
 6216TIP3    H240284   6.247   6.740   7.065 -0.9099  0.1941 -0.6623
 6217TIP3   OH240285   6.634   2.000   0.915  0.0356 -0.1647 -0.2236
 6217TIP3    H140286   6.627   2.093   0.892 -1.2718  0.0520  0.9239
 6217TIP3    H240287   6.607   1.954   0.836 -0.7916  0.4703 -0.3234
 6218TIP3   OH240288   0.627   3.430   1.906  0.1507 -0.1603  0.9877
 6218TIP3    H140289   0.639   3.424   2.001 -0.9830  0.3603  1.1756
 6218TIP3    H240290   0.711   3.465   1.874 -0.5997  3.1688  2.2241
 6219TIP3   OH240291   0.846   0.119   7.384 -0.1337 -0.8008  0.4769
 6219TIP3    H140292   0.784   0.160   7.325 -1.5689  0.2810  2.6039
 6219TIP3    H240293   0.925   0.173   7.378 -0.1839 -0.8294 -0.5601
 6220TIP3   OH240294   2.697   5.636   7.748  0.0597 -0.2774  0.4154
 6220TIP3    H140295   2.639   5.615   7.675 -0.7898  0.8368  0.7581
 6220TIP3    H240296   2.763   5.566   7.746  0.0587 -0.2856 -1.4064
 6221TIP3   OH240297   2.481   4.979   8.203 -0.1569  0.2582 -0.5046
 6221TIP3    H140298   2.460   5.002   8.112 -0.2519 -2.5702 -1.2990
 6221TIP3    H240299   2.577   4.981   8.206 -0.1707  1.1424 -0.4142
 6222TIP3   OH240300   2.604   3.426   8.206  0.4353 -0.7642  0.5802
 6222TIP3    H140301   2.654   3.396   8.130 -1.1900  1.0449 -1.3144
 6222TIP3    H240302   2.666   3.479   8.256  0.9112 -0.0063 -0.7717
 6223TIP3   OH240303   3.893   1.474   0.580  0.1488 -0.5817 -0.4835
 6223TIP3    H140304   3.827   1.506   0.519 -2.0629 -1.1058  1.4549
 6223TIP3    H240305   3.856   1.393   0.615  2.3277 -1.4643 -0.0449
 6224TIP3   OH240306   4.690   4.618   1.741 -0.8036 -0.2038 -0.0956
 6224TIP3    H140307   4.693   4.657   1.828 -2.8695 -0.6746  0.2325
 6224TIP3    H240308   4.719   4.528   1.754  1.2187  0.3602 -0.3630
 6225TIP3   OH240309   6.742   5.562   7.319  0.1046 -0.3367 -0.4677
 6225TIP3    H140310   6.836   5.575   7.304 -0.2385  0.1914 -2.4327
 6225TIP3    H240311   6.702   5.573   7.233 -1.9850  1.4368  0.6365
 6226TIP3   OH240312   0.616   0.842   8.809  0.7149  0.4116 -0.1497
 6226TIP3    H140313   0.657   0.766   8.850 -0.9904 -0.5395 -0.1130
 6226TIP3    H240314   0.598   0.814   8.719 -0.3031  0.5885 -0.0192
 6227TIP3   OH240315   4.914   0.785   8.719 -0.3383  0.3776  0.1952
 6227TIP3    H140316   4.858   0.710   8.698 -0.8114  1.6216 -3.8224
 6227TIP3    H240317   4.992   0.772   8.666  0.5060  1.6948  1.0716
 6228TIP3   OH240318   4.960   5.452   1.474 -0.7771  0.1638  0.1114
 6228TIP3    H140319   4.924   5.419   1.556 -2.0858 -0.0660 -0.5147
 6228TIP3    H240320   5.043   5.493   1.498 -1.0453 -0.0671  1.5088
 6229TIP3   OH240321   3.310   4.618   7.096  0.0831 -0.3961  0.0149
 6229TIP3    H140322   3.288   4.703   7.133  3.1875  0.4528  0.1894
 6229TIP3    H240323   3.266   4.617   7.011  0.2993  1.5736 -0.1628
 6230TIP3   OH240324   6.014   1.170   1.351 -0.1560  0.5966 -0.0603
 6230TIP3    H140325   6.006   1.090   1.404 -1.5716  0.9026  0.2545
 6230TIP3    H240326   6.024   1.139   1.261  1.5272  0.0709  0.2732
 6231TIP3   OH240327   4.589   6.331   1.548  0.7125 -0.0669  0.2484
 6231TIP3    H140328   4.591   6.245   1.591 -1.7706 -1.2863 -1.7950
 6231TIP3    H240329   4.533   6.317   1.471 -0.9951  3.7216  0.6001
 6232TIP3   OH240330   4.460   2.904   0.387 -0.0474  0.0463  0.3332
 6232TIP3    H140331   4.491   2.907   0.296  1.3879  1.2169  0.8318
 6232TIP3    H240332   4.429   2.993   0.404 -2.2175 -0.6495  0.4048
 6233TIP3   OH240333   0.231   0.021   0.799  0.1273 -0.3101 -0.2879
 6233TIP3    H140334   0.194   0.093   0.748  2.4719 -0.6788 -2.7356
 6233TIP3    H240335   0.315   0.003   0.758  1.0699 -2.3735  2.2443
 6234TIP3   OH240336   2.285   2.428   7.991 -0.6994  0.2435  0.5973
 6234TIP3    H140337   2.268   2.516   8.025 -2.0849 -0.2186  1.1486
 6234TIP3    H240338   2.331   2.383   8.061 -0.2963  0.4072  0.4443
 6235TIP3   OH240339   4.746   1.458   0.316 -0.3609 -0.2258 -0.3569
 6235TIP3    H140340   4.678   1.478   0.251  0.5494  0.0361 -1.2641
 6235TIP3    H240341   4.746   1.534   0.374  0.1439  0.4784 -1.2418
 6236TIP3   OH240342   5.688   3.203   7.802  0.0410  0.4931 -0.2899
 6236TIP3    H140343   5.616   3.239   7.750 -0.6437  0.0720  0.3473
 6236TIP3    H240344   5.753   3.175   7.737 -0.8235 -0.0816 -0.9331
 6237TIP3   OH240345   0.282   5.040   7.134 -0.7476 -0.1638 -0.7985
 6237TIP3    H140346   0.345   5.066   7.067  0.5904  0.9404  0.8242
 6237TIP3    H240347   0.306   4.950   7.156  0.0201  0.1125 -0.4808
 6238TIP3   OH240348   3.868   3.989   8.429  0.6292 -0.2058  0.5191
 6238TIP3    H140349   3.801   3.952   8.372  0.4829  0.5023  0.2259
 6238TIP3    H240350   3.820   4.045   8.490  0.5392 -2.4795  2.6586
 6239TIP3   OH240351   4.475   5.946   8.660 -0.4473  0.1169 -0.0579
 6239TIP3    H140352   4.407   5.968   8.723  0.7474  1.6226  0.7897
 6239TIP3    H240353   4.486   6.024   8.607  0.6652 -0.0429 -0.1028
 6240TIP3   OH240354   0.135   2.170   6.802  0.6186 -0.5719 -0.0734
 6240TIP3    H140355   0.095   2.237   6.747  0.8285 -1.8856 -1.9423
 6240TIP3    H240356   0.223   2.201   6.820  0.1430  0.4401  0.5881
 6241TIP3   OH240357   5.660   2.509   0.671 -0.0509 -0.0551  0.5542
 6241TIP3    H140358   5.690   2.441   0.730 -0.5369  0.1540  1.0568
 6241TIP3    H240359   5.597   2.465   0.614 -0.0120 -0.1293  0.5680
 6242TIP3   OH240360   4.168   5.090   0.365 -0.3471  0.4151 -0.0059
 6242TIP3    H140361   4.208   5.080   0.279  1.1341 -2.7131  0.9157
 6242TIP3    H240362   4.094   5.029   0.364 -1.2181  1.4344  0.4753
 6243TIP3   OH240363   3.059   0.765   0.780  0.0717  0.5552 -0.3902
 6243TIP3    H140364   3.026   0.689   0.826  2.4067  0.6460  1.6247
 6243TIP3    H240365   3.085   0.732   0.694  2.3867 -1.3680  0.9169
 6244TIP3   OH240366   2.583   0.427   7.670  0.4404 -0.2485 -0.2305
 6244TIP3    H140367   2.671   0.436   7.707  0.0109  1.8477  0.4197
 6244TIP3    H240368   2.564   0.513   7.632 -1.8753 -0.1777  0.9394
 6245TIP3   OH240369   2.035   5.563   8.519  0.5254  0.5527  0.0963
 6245TIP3    H140370   1.971   5.509   8.564  0.3667 -1.2221 -2.0401
 6245TIP3    H240371   2.062   5.628   8.583  0.4893 -1.8821  2.7634
 6246TIP3   OH240372   1.657   2.861   0.215  0.1191  0.1173 -0.4316
 6246TIP3    H140373   1.673   2.909   0.297 -0.6408  0.8777 -0.7118
 6246TIP3    H240374   1.666   2.927   0.147 -0.3038 -0.2852 -0.8809
 6247TIP3   OH240375   1.712   2.708   8.765  0.1841 -0.0658  0.7763
 6247TIP3    H140376   1.805   2.702   8.741  0.5135 -0.6437  2.0489
 6247TIP3    H240377   1.665   2.693   8.684  1.2052  0.4070  0.0715
 6248TIP3   OH240378   5.382   3.458   1.179 -0.0686  0.0588 -0.6018
 6248TIP3    H140379   5.396   3.541   1.225 -0.4976  0.5044 -1.2652
 6248TIP3    H240380   5.323   3.409   1.237  2.4586 -1.0488  1.2679
 6249TIP3   OH240381   4.571   1.373   7.149 -0.1554 -0.5979  0.8409
 6249TIP3    H140382   4.497   1.376   7.210 -1.0031  0.2475 -0.2029
 6249TIP3    H240383   4.638   1.428   7.190  0.3232 -2.1468  2.2699
 6250TIP3   OH240384   3.452   4.403   0.563  0.1397 -0.6207 -0.2180
 6250TIP3    H140385   3.484   4.458   0.634  3.4539  0.3337 -2.2024
 6250TIP3    H240386   3.525   4.344   0.542 -1.5004 -2.3685 -1.4385
 6251TIP3   OH240387   1.625   4.711   7.196  0.4020 -1.0739 -0.5784
 6251TIP3    H140388   1.632   4.685   7.287  1.4466 -0.1525 -0.3797
 6251TIP3    H240389   1.531   4.722   7.181  0.2875 -0.2466  0.6723
 6252TIP3   OH240390   2.186   6.576   1.322  0.1153 -0.2872 -0.2268
 6252TIP3    H140391   2.177   6.583   1.417 -1.5039  1.2420 -0.4388
 6252TIP3    H240392   2.233   6.656   1.297 -2.6536  1.2280 -0.9970
 6253TIP3   OH240393   3.015   5.097   1.909 -0.1918  0.0237  0.1957
 6253TIP3    H140394   2.937   5.142   1.877  0.6571  0.2533 -1.7163
 6253TIP3    H240395   2.993   5.004   1.906 -0.6376  0.1213  0.3991
 6254TIP3   OH240396   1.294   3.601   8.497 -0.2802 -0.3965  0.1762
 6254TIP3    H140397   1.294   3.511   8.467 -0.6338 -0.3675  0.0803
 6254TIP3    H240398   1.253   3.598   8.584  0.0957 -0.3843  0.3572
 6255TIP3   OH240399   3.724   6.642   1.111  0.2977 -0.4328  0.5486
 6255TIP3    H140400   3.749   6.578   1.177 -0.2272 -0.8379  0.3600
 6255TIP3    H240401   3.648   6.604   1.069  0.3373  0.0488  0.0362
 6256TIP3   OH240402   1.756   1.343   1.581  0.7143  0.1526 -0.3282
 6256TIP3    H140403   1.705   1.279   1.532  0.1996  1.2041 -1.2080
 6256TIP3    H240404   1.771   1.414   1.519  0.7449  1.1605  0.8038
 6257TIP3   OH240405   5.547   0.572   0.801  0.6090  0.3340 -0.1985
 6257TIP3    H140406   5.531   0.589   0.707  0.9371  0.0642 -0.3013
 6257TIP3    H240407   5.510   0.649   0.845 -0.4735  0.0001 -0.4768
 6258TIP3   OH240408   6.098   2.252   6.678 -0.1983  0.1999 -0.6971
 6258TIP3    H140409   6.176   2.200   6.657  0.1669  0.0082  0.9598
 6258TIP3    H240410   6.130   2.343   6.682 -0.5634  0.4187 -2.2957
 6259TIP3   OH240411   2.128   6.366   7.691  0.2679  0.1132 -0.4396
 6259TIP3    H140412   2.196   6.417   7.646  0.0601  2.2279  1.4396
 6259TIP3    H240413   2.046   6.398   7.653  0.1996 -0.3961 -0.7328
 6260TIP3   OH240414   0.989   5.124   7.241  0.0659  0.2237 -0.1905
 6260TIP3    H140415   1.085   5.119   7.247  0.0596  1.2415  1.8755
 6260TIP3    H240416   0.972   5.152   7.151  1.5588 -2.0401 -1.2650
 6261TIP3   OH240417   3.962   6.735   8.728 -0.0405  0.1458 -0.3362
 6261TIP3    H140418   4.003   6.792   8.792  1.6911  0.3517 -1.5560
 6261TIP3    H240419   3.981   6.646   8.760  1.8448  0.2292 -1.1191
 6262TIP3   OH240420   5.875   5.759   7.839  0.2960  0.4746  0.1587
 6262TIP3    H140421   5.931   5.691   7.802  0.5145  0.2644  0.8439
 6262TIP3    H240422   5.937   5.824   7.874  0.0983  0.6938  0.1033
 6263TIP3   OH240423   5.908   6.294   0.632  0.4274 -0.4494 -0.8825
 6263TIP3    H140424   5.840   6.326   0.691 -0.8395 -0.9267 -2.0144
 6263TIP3    H240425   5.911   6.359   0.561  0.8424 -0.6510 -1.0552
 6264TIP3   OH240426   3.820   1.876   0.841 -0.8630 -0.4470 -0.0718
 6264TIP3    H140427   3.760   1.902   0.911 -0.3206 -1.4291  0.7945
 6264TIP3    H240428   3.900   1.925   0.858 -0.3367 -1.5177  0.7137
 6265TIP3   OH240429   1.647   4.244   1.261  0.3889  0.0463  0.3495
 6265TIP3    H140430   1.675   4.174   1.320  1.2073  0.5651  0.5871
 6265TIP3    H240431   1.643   4.202   1.175  1.5660 -0.1443  0.3704
 6266TIP3   OH240432   6.431   3.331   7.422 -0.3523 -0.0635  0.4979
 6266TIP3    H140433   6.462   3.413   7.383  0.4190 -0.7688 -0.4316
 6266TIP3    H240434   6.336   3.341   7.425 -0.2245  1.2027  1.2097
 6267TIP3   OH240435   2.036   5.995   7.370  0.2017 -0.0003  0.6292
 6267TIP3    H140436   2.029   5.932   7.299 -2.6886  1.6812 -0.7770
 6267TIP3    H240437   1.951   5.993   7.414  0.6036  1.6919  1.6246
 6268TIP3   OH240438   5.656   6.644   8.714 -0.2200 -0.0195  0.2750
 6268TIP3    H140439   5.579   6.630   8.660 -1.0061 -0.0194  1.3603
 6268TIP3    H240440   5.692   6.727   8.683  0.0418 -0.5894 -1.0238
 6269TIP3   OH240441   5.975   2.110   7.481 -0.5367 -0.6066  0.4359
 6269TIP3    H140442   5.975   2.145   7.570  0.3955 -1.0951  0.6395
 6269TIP3    H240443   6.023   2.175   7.429 -1.9074  0.1582  0.0677
 6270TIP3   OH240444   3.939   1.600   8.562 -0.1001  0.1756 -0.0516
 6270TIP3    H140445   3.909   1.533   8.501 -0.3093  0.7984 -0.6426
 6270TIP3    H240446   4.003   1.651   8.513  2.2093 -1.2985  1.2690
 6271TIP3   OH240447   1.277   5.449   0.845  0.9289  0.4175  0.0674
 6271TIP3    H140448   1.367   5.481   0.850  0.8128  0.7870 -0.1838
 6271TIP3    H240449   1.223   5.526   0.861  0.6294  0.5242 -1.3360
 6272TIP3   OH240450   0.061   5.434   8.358  0.1801  0.1960 -0.0217
 6272TIP3    H140451  -0.012   5.494   8.343 -0.2687 -0.1520  0.7247
 6272TIP3    H240452   0.123   5.484   8.412 -0.4709 -0.1914  1.1178
 6273TIP3   OH240453   5.253   3.771   0.375  0.0406  0.0215 -0.4980
 6273TIP3    H140454   5.287   3.693   0.419  0.0092 -0.4356 -1.2698
 6273TIP3    H240455   5.192   3.737   0.309 -1.0527  0.7794  0.0965
 6274TIP3   OH240456   3.068   6.676   7.016 -0.3176 -0.2727 -0.2774
 6274TIP3    H140457   3.147   6.650   6.969 -0.9562 -1.2145 -0.8689
 6274TIP3    H240458   3.093   6.754   7.065  0.7712 -0.1281 -1.0358
 6275TIP3   OH240459   1.016   4.277   8.275  0.7488 -1.2922 -0.8210
 6275TIP3    H140460   0.987   4.206   8.218 -0.4707 -1.5586  0.0899
 6275TIP3    H240461   0.935   4.313   8.312  1.4544 -0.6173  0.1197
 6276TIP3   OH240462   3.633   6.121   0.942  0.4882  0.6138  0.7065
 6276TIP3    H140463   3.728   6.107   0.943  0.2783 -1.9590 -1.9509
 6276TIP3    H240464   3.601   6.063   1.012  0.7300 -0.7375 -0.2667
 6277TIP3   OH240465   2.976   4.839   8.951  0.0960 -0.2699  0.1506
 6277TIP3    H140466   2.953   4.932   8.954  1.0405  0.1703 -2.8729
 6277TIP3    H240467   2.903   4.799   8.904  0.5215 -0.7166 -0.1367
 6278TIP3   OH240468   2.775   4.631   8.269  0.4429  0.2541  0.0232
 6278TIP3    H140469   2.861   4.589   8.272 -0.1814 -1.0565  0.2564
 6278TIP3    H240470   2.733   4.607   8.352 -0.2864  0.5900 -0.2324
 6279TIP3   OH240471   4.335   5.778   7.247 -0.5115 -0.3206  0.0266
 6279TIP3    H140472   4.359   5.870   7.243  1.1905 -0.7518 -1.4839
 6279TIP3    H240473   4.239   5.777   7.252 -0.6420  1.5220 -1.3375
 6280TIP3   OH240474   5.678   4.935   7.578 -0.2584 -0.0316  0.5813
 6280TIP3    H140475   5.736   4.865   7.607  0.3501  0.4236  0.4732
 6280TIP3    H240476   5.602   4.928   7.636 -0.1811 -0.7318  0.6162
 6281TIP3   OH240477   6.643   5.584   8.412  0.2993  0.6944  0.2529
 6281TIP3    H140478   6.647   5.672   8.374  0.6581  0.3999 -0.4107
 6281TIP3    H240479   6.558   5.550   8.385 -0.3652  1.2794  1.5336
 6282TIP3   OH240480   5.146   4.791   7.907  0.3107  0.4068 -0.0084
 6282TIP3    H140481   5.059   4.800   7.945  0.7636 -0.3491  1.3089
 6282TIP3    H240482   5.172   4.702   7.929  0.9579  0.2283 -1.4116
 6283TIP3   OH240483   2.843   6.510   0.490 -0.0346  0.2202 -0.1812
 6283TIP3    H140484   2.926   6.556   0.484  0.2569 -0.3977 -1.0451
 6283TIP3    H240485   2.792   6.561   0.553  0.5286  1.3348 -0.6034
 6284TIP3   OH240486   0.396   3.156   0.143  0.7398  0.1222 -0.0969
 6284TIP3    H140487   0.425   3.072   0.178  0.1439 -0.6350 -1.3538
 6284TIP3    H240488   0.476   3.207   0.133  1.1406 -0.3881  0.4235
 6285TIP3   OH240489   0.704   3.313   7.303  0.3886 -0.3744 -0.0839
 6285TIP3    H140490   0.675   3.224   7.323  0.2572  0.1091  2.1887
 6285TIP3    H240491   0.655   3.338   7.225 -0.7609 -1.7257  0.1673
 6286TIP3   OH240492   5.823   1.503   8.671  0.2049  0.1629  0.2994
 6286TIP3    H140493   5.865   1.418   8.688  0.2270  0.0411 -0.3336
 6286TIP3    H240494   5.866   1.535   8.591 -0.6087  0.2369 -0.1210
 6287TIP3   OH240495   2.641   4.115   6.904 -0.7537 -0.8448 -0.1442
 6287TIP3    H140496   2.547   4.120   6.920 -0.8586  0.9220 -1.1660
 6287TIP3    H240497   2.658   4.175   6.831  1.2590 -0.5809  0.4558
 6288TIP3   OH240498   3.153   5.371   6.609  0.6509  0.0607 -0.4201
 6288TIP3    H140499   3.189   5.352   6.522  1.4863  0.3575 -0.1570
 6288TIP3    H240500   3.147   5.286   6.652  3.3116  0.1692  0.3589
 6289TIP3   OH240501   4.236   3.133   1.325 -0.0366  0.9337 -1.0478
 6289TIP3    H140502   4.237   3.179   1.241  1.9269  1.2511 -0.9007
 6289TIP3    H240503   4.164   3.173   1.373 -0.4832  1.5198 -2.1550
 6290TIP3   OH240504   4.392   3.457   7.751  0.4782 -0.3800 -0.3110
 6290TIP3    H140505   4.484   3.476   7.730  0.9473 -1.5765  0.5377
 6290TIP3    H240506   4.354   3.429   7.667  1.1703 -0.8821 -0.4743
 6291TIP3   OH240507   3.680   2.776   7.386 -0.2253 -0.3977 -0.3005
 6291TIP3    H140508   3.660   2.712   7.454  1.3821 -1.5825 -0.9125
 6291TIP3    H240509   3.664   2.730   7.304  0.5275  0.1157 -0.7451
 6292TIP3   OH240510   3.626   2.926   7.724  0.4165  0.2180 -0.0093
 6292TIP3    H140511   3.604   2.952   7.635  0.0573 -1.3430 -0.3970
 6292TIP3    H240512   3.613   3.006   7.776 -1.0151  0.7105 -1.0692
 6293TIP3   OH240513   0.366   1.675   8.734  0.0732 -0.0946 -0.7620
 6293TIP3    H140514   0.394   1.762   8.762 -0.8950  0.2355 -0.8209
 6293TIP3    H240515   0.447   1.623   8.736  0.7412  0.8954 -1.1321
 6294TIP3   OH240516   4.923   4.222   0.260 -0.1168  0.2522 -0.4438
 6294TIP3    H140517   5.006   4.268   0.258  1.4384 -2.3159  0.2698
 6294TIP3    H240518   4.887   4.241   0.347  0.4682  0.1695 -0.1835
 6295TIP3   OH240519   3.086   6.576   6.369 -0.2378 -0.1111  0.4490
 6295TIP3    H140520   3.105   6.540   6.282  0.7980 -1.9284  1.3517
 6295TIP3    H240521   2.994   6.555   6.384 -0.1934 -0.5677  0.1225
 6296TIP3   OH240522   4.268   5.631   6.993 -0.4314 -0.0116  0.1530
 6296TIP3    H140523   4.313   5.714   6.977 -0.3397 -0.3455 -1.5384
 6296TIP3    H240524   4.278   5.616   7.087 -0.0465  1.6456  0.4144
 6297TIP3   OH240525   0.755   3.749   0.962  0.0917 -0.1292  0.2637
 6297TIP3    H140526   0.845   3.782   0.963  0.0576  0.1466 -1.4806
 6297TIP3    H240527   0.757   3.672   1.018  0.6316  1.6397  2.8787
 6298TIP3   OH240528   3.097   2.208   7.797  0.0086  0.6253 -0.0722
 6298TIP3    H140529   3.009   2.191   7.830 -0.1938 -0.9522 -1.3342
 6298TIP3    H240530   3.102   2.162   7.714  2.9277 -1.6863  1.1788
 6299TIP3   OH240531   2.975   2.070   8.792  0.6898 -0.2791 -0.1076
 6299TIP3    H140532   2.992   2.006   8.862 -1.3105 -2.5564 -1.5186
 6299TIP3    H240533   2.913   2.132   8.831 -0.0764 -1.2696  0.3179
 6300TIP3   OH240534   5.730   2.820   7.661 -0.9395  0.1241 -0.1526
 6300TIP3    H140535   5.691   2.748   7.711  0.3437 -0.7580 -0.3561
 6300TIP3    H240536   5.789   2.776   7.599  0.3613  1.3733  0.1444
 6301TIP3   OH240537   4.317   1.458   8.660  0.3072 -0.6960  0.3911
 6301TIP3    H140538   4.333   1.392   8.593  2.3586 -0.7210  0.8309
 6301TIP3    H240539   4.324   1.541   8.613  2.0171 -0.7033  0.5488
 6302TIP3   OH240540   1.387   5.177   8.058 -0.3804 -0.0954  0.3605
 6302TIP3    H140541   1.345   5.110   8.111  0.4644 -0.8101  0.1433
 6302TIP3    H240542   1.427   5.130   7.985  1.1264  0.4854  0.7701
 6303TIP3   OH240543   5.778   3.038   8.140  0.2088 -0.3131  0.4534
 6303TIP3    H140544   5.690   3.012   8.167  0.8117 -0.5072  2.4656
 6303TIP3    H240545   5.782   3.021   8.046 -1.6548 -0.9703  0.4714
 6304TIP3   OH240546   2.357   4.060   6.330 -0.0385  0.1943 -0.3872
 6304TIP3    H140547   2.347   4.155   6.338 -0.2034  0.1785 -0.4163
 6304TIP3    H240548   2.377   4.046   6.237 -1.2298  0.0877 -0.6341
 6305TIP3   OH240549   1.470   5.718   1.377  0.3151  0.2755  0.1408
 6305TIP3    H140550   1.496   5.800   1.335 -1.4125  0.4161 -0.7368
 6305TIP3    H240551   1.552   5.668   1.386  1.6934  2.6293  2.0421
 6306TIP3   OH240552   3.908   2.614   7.003  0.0543  0.2888  0.3512
 6306TIP3    H140553   3.946   2.696   7.035  3.3156 -0.6506 -0.6475
 6306TIP3    H240554   3.920   2.619   6.908 -0.9718 -0.7794  0.1535
 6307TIP3   OH240555   0.980   2.980   8.108  0.4054  0.5666 -0.6910
 6307TIP3    H140556   1.010   2.943   8.025 -0.2285 -1.3674 -0.0977
 6307TIP3    H240557   0.886   2.995   8.095  0.3816  0.6341 -0.4445
 6308TIP3   OH240558   5.708   4.361   1.423 -0.2339  0.3169 -0.6204
 6308TIP3    H140559   5.632   4.309   1.450 -0.9201  1.6659  0.1499
 6308TIP3    H240560   5.755   4.378   1.504 -0.7339  1.9744 -0.6482
 6309TIP3   OH240561   0.697   6.000   2.381 -0.2110  0.1097 -0.0666
 6309TIP3    H140562   0.722   6.085   2.416 -4.8524  0.9432  1.9925
 6309TIP3    H240563   0.667   6.018   2.293  1.1608  0.0577 -0.5689
 6310TIP3   OH240564   1.251   3.032   8.241 -0.1901  0.4777 -0.0921
 6310TIP3    H140565   1.159   3.004   8.232  0.0308  0.3599 -2.6676
 6310TIP3    H240566   1.302   2.958   8.207  0.8652  0.7965  0.7307
 6311TIP3   OH240567   5.719   0.917   8.188  0.0689 -0.5085  0.1742
 6311TIP3    H140568   5.676   0.841   8.229 -4.6592  1.3545 -0.6832
 6311TIP3    H240569   5.700   0.907   8.094  1.0091  0.8488 -0.1875
 6312TIP3   OH240570   3.168   4.266   0.569  0.2926 -0.4291  0.1707
 6312TIP3    H140571   3.148   4.229   0.656  0.0251  1.6361  1.0484
 6312TIP3    H240572   3.155   4.360   0.580  3.4915  0.2931 -1.1921
 6313TIP3   OH240573   5.972   3.130   1.323  0.1103 -0.0215  0.1894
 6313TIP3    H140574   6.042   3.102   1.382 -0.0985 -0.4936  0.2146
 6313TIP3    H240575   5.892   3.095   1.362 -0.1814  0.7463  0.3110
 6314TIP3   OH240576   2.896   1.743   2.007  0.1769  0.0561 -0.1796
 6314TIP3    H140577   2.814   1.699   1.984 -0.1699 -0.6668  2.1487
 6314TIP3    H240578   2.882   1.835   1.983 -1.3631 -0.0417  0.2181
 6315TIP3   OH240579   3.843   0.073   7.389 -0.1334 -0.0854 -0.4961
 6315TIP3    H140580   3.764   0.114   7.355  0.7498  3.2407  1.0576
 6315TIP3    H240581   3.818  -0.019   7.403 -3.0724  0.3953 -1.7865
 6316TIP3   OH240582   1.441   1.760   8.506 -0.1329 -0.5131  0.3220
 6316TIP3    H140583   1.412   1.798   8.423  1.5357 -1.1924 -0.6175
 6316TIP3    H240584   1.501   1.824   8.543 -0.5031 -0.4240  0.7791
 6317TIP3   OH240585   2.867   4.623   0.313  0.0232  0.5251 -0.2399
 6317TIP3    H140586   2.859   4.597   0.405 -0.6184  2.5092  0.3149
 6317TIP3    H240587   2.850   4.543   0.264 -1.7993 -0.1423  1.3432
 6318TIP3   OH240588   5.199   5.721   8.230  0.5558  1.0001  0.3065
 6318TIP3    H140589   5.293   5.736   8.244  1.2570 -1.8111 -0.6975
 6318TIP3    H240590   5.168   5.690   8.315  0.8013  0.8528  0.3445
 6319TIP3   OH240591   2.518   5.921   7.468 -0.0214 -0.7417  0.5412
 6319TIP3    H140592   2.509   5.827   7.453 -0.0765 -0.5111 -1.1050
 6319TIP3    H240593   2.440   5.945   7.518 -1.0462 -1.2609 -0.7508
 6320TIP3   OH240594   2.664   0.637   6.903 -0.0398 -0.3891 -0.0118
 6320TIP3    H140595   2.588   0.579   6.891 -0.7109  0.4919 -0.1906
 6320TIP3    H240596   2.661   0.695   6.827  0.8257 -0.3345 -0.0136
 6321TIP3   OH240597   0.491   5.289   1.446  0.3795  0.0998 -0.4163
 6321TIP3    H140598   0.579   5.283   1.410  0.5265  0.9634 -0.2086
 6321TIP3    H240599   0.504   5.294   1.540  0.3453  3.6214 -0.4810
 6322TIP3   OH240600   3.866   4.072   6.732  0.3608  0.5196  0.2409
 6322TIP3    H140601   3.908   4.121   6.662  1.0970 -1.5532 -0.8696
 6322TIP3    H240602   3.794   4.026   6.689 -1.6120  2.1579  1.6575
 6323TIP3   OH240603   1.881   0.886   8.933 -0.5709 -0.3391 -1.2315
 6323TIP3    H140604   1.867   0.980   8.918 -2.9854 -0.4840 -0.3826
 6323TIP3    H240605   1.939   0.883   9.010 -1.2026  0.4896 -0.7027
 6324TIP3   OH240606   2.413   0.074   8.137 -0.0144 -0.0563  0.1342
 6324TIP3    H140607   2.341   0.038   8.086 -1.2651  1.5804  0.6630
 6324TIP3    H240608   2.422   0.015   8.211 -0.9456 -0.1756  0.1596
 6325TIP3   OH240609   5.721   2.116   7.794  0.5146 -0.3288  0.2161
 6325TIP3    H140610   5.692   2.171   7.867 -2.4284  2.4212 -2.6973
 6325TIP3    H240611   5.793   2.165   7.755  1.7439 -1.5377  0.9066
 6326TIP3   OH240612   1.951   0.466   0.007 -0.1159 -0.1258  0.3161
 6326TIP3    H140613   1.917   0.385   0.046 -1.0529 -0.9083 -1.9538
 6326TIP3    H240614   1.888   0.533   0.031 -1.0515 -0.7358 -0.3875
 6327TIP3   OH240615   6.280   3.224   1.228  0.0394  0.5666 -0.6211
 6327TIP3    H140616   6.331   3.225   1.147 -1.1658 -0.5977 -1.4366
 6327TIP3    H240617   6.213   3.158   1.214 -0.3265  0.4552  1.2779
 6328TIP3   OH240618   1.557   2.424   7.217 -0.8609 -0.0550 -0.2350
 6328TIP3    H140619   1.605   2.410   7.135  0.7125 -0.0214  0.6388
 6328TIP3    H240620   1.618   2.395   7.285 -2.2224 -0.2855  0.9173
 6329TIP3   OH240621   0.020   0.040   8.033 -0.3250 -0.0827 -0.3298
 6329TIP3    H140622  -0.071   0.036   8.064  0.2733 -0.3301  1.5359
 6329TIP3    H240623   0.071  -0.002   8.103  1.2311 -0.0010 -1.3611
 6330TIP3   OH240624   2.366   4.202   6.710 -0.3633  0.6236  0.3771
 6330TIP3    H140625   2.281   4.170   6.678  0.2835 -1.7547  0.8455
 6330TIP3    H240626   2.364   4.184   6.804  0.7888  0.1883  0.3357
 6331TIP3   OH240627   3.831   5.930   1.230  0.0884  0.1528 -0.0441
 6331TIP3    H140628   3.810   5.947   1.322 -0.7470  0.3102 -0.2526
 6331TIP3    H240629   3.926   5.940   1.224  0.7538 -3.3767  1.5908
 6332TIP3   OH240630   5.212   1.573   7.727 -0.0943 -0.0614  0.2582
 6332TIP3    H140631   5.140   1.517   7.699  0.2253 -0.6672  0.6284
 6332TIP3    H240632   5.173   1.632   7.792 -0.2032 -0.5450  0.6325
 6333TIP3   OH240633   5.001   1.899   8.735  0.0180 -0.4030 -0.2999
 6333TIP3    H140634   4.938   1.852   8.680  0.3593 -0.0562 -1.0052
 6333TIP3    H240635   5.033   1.833   8.796 -0.6817 -0.6964 -0.2408
 6334TIP3   OH240636   2.843   5.237   1.554 -0.1470  0.1998 -0.2262
 6334TIP3    H140637   2.929   5.242   1.594 -0.5159  0.3561  0.5597
 6334TIP3    H240638   2.788   5.195   1.620 -0.5489 -0.3975 -0.9296
 6335TIP3   OH240639   1.488   0.746   0.386  0.3720  0.4299 -0.5583
 6335TIP3    H140640   1.534   0.677   0.337  0.2019  1.5905 -2.4083
 6335TIP3    H240641   1.395   0.729   0.369  0.0462 -1.1408  2.1478
 6336TIP3   OH240642   2.962   1.601   0.262  0.1725  0.2018 -0.2205
 6336TIP3    H140643   2.941   1.651   0.184  1.3462  0.1725 -0.5810
 6336TIP3    H240644   3.046   1.638   0.292  0.3095 -0.5452  0.3586
 6337TIP3   OH240645   2.031   4.956   6.836  0.1460 -0.7482  1.2147
 6337TIP3    H140646   2.043   4.940   6.743  0.3341  0.7344  0.9490
 6337TIP3    H240647   2.106   4.915   6.878  0.1665 -1.2488  0.6960
 6338TIP3   OH240648   3.613   1.682   7.042  0.0408 -0.0533  0.1673
 6338TIP3    H140649   3.633   1.678   7.136 -0.9386 -1.6972  0.3530
 6338TIP3    H240650   3.684   1.633   7.001  0.0344 -0.0330  0.1326
 6339TIP3   OH240651   4.026   4.794   8.068  0.1770  0.3064  0.3553
 6339TIP3    H140652   4.104   4.754   8.107  0.7855  0.4473 -0.6991
 6339TIP3    H240653   3.962   4.723   8.065  0.0657  0.3152  1.7016
 6340TIP3   OH240654   6.791   1.558   8.812 -0.5198  0.0450  0.2524
 6340TIP3    H140655   6.810   1.470   8.779  1.0582  0.4281  0.0330
 6340TIP3    H240656   6.849   1.569   8.888  0.3678  1.3595 -0.5487
 6341TIP3   OH240657   2.562   6.318   7.987 -0.4795  0.4673  0.4380
 6341TIP3    H140658   2.513   6.279   8.059  1.8723 -0.0579  1.8531
 6341TIP3    H240659   2.576   6.245   7.926 -1.4228  0.6329 -0.0020
 6342TIP3   OH240660   6.111   6.499   8.610 -0.0264 -0.4984 -0.5906
 6342TIP3    H140661   6.075   6.449   8.537 -0.3331 -2.0213  0.5601
 6342TIP3    H240662   6.046   6.491   8.680  0.1878  1.0555 -0.1626
 6343TIP3   OH240663   0.821   0.859   7.020  0.0219 -0.3304 -0.3813
 6343TIP3    H140664   0.866   0.795   7.076  1.8600 -0.6951 -2.1411
 6343TIP3    H240665   0.872   0.939   7.029 -0.3910 -0.0398 -0.6103
 6344TIP3   OH240666   3.470   0.573   8.010  0.0039  0.5058 -0.1544
 6344TIP3    H140667   3.422   0.490   8.007  1.2378 -0.2261 -0.2844
 6344TIP3    H240668   3.455   0.605   8.099 -0.5596  0.1920 -0.1285
 6345TIP3   OH240669   3.414   1.174   8.108  0.6802  0.3901 -0.0208
 6345TIP3    H140670   3.320   1.186   8.090  1.1202  2.6252 -1.2119
 6345TIP3    H240671   3.434   1.088   8.071 -1.1322 -0.7680  1.4916
 6346TIP3   OH240672   4.422   2.208   1.588 -0.5079 -0.3485  0.3400
 6346TIP3    H140673   4.349   2.271   1.590  0.6487  1.0292  1.0733
 6346TIP3    H240674   4.490   2.249   1.641 -0.0009 -2.6590  1.6001
 6347TIP3   OH240675   6.655   4.974   1.355  0.0105 -0.5164  0.5836
 6347TIP3    H140676   6.639   4.935   1.441  0.4883 -0.8165  0.5376
 6347TIP3    H240677   6.648   5.068   1.370  1.5423 -0.4827  1.2785
 6348TIP3   OH240678   2.005   5.218   8.582  0.0125 -0.2352  0.1135
 6348TIP3    H140679   1.973   5.220   8.672  1.4939 -1.1767  0.7062
 6348TIP3    H240680   2.100   5.231   8.590  0.5158 -2.6911 -1.0779
 6349TIP3   OH240681   3.142   0.106   8.207 -0.2116  0.5029 -0.1804
 6349TIP3    H140682   3.231   0.082   8.180  0.3121 -0.7415  2.3398
 6349TIP3    H240683   3.096   0.022   8.215 -0.2714  0.7185  2.6279
 6350TIP3   OH240684   4.123   3.934   7.618  0.2990  0.1069  0.6702
 6350TIP3    H140685   4.166   3.981   7.546  1.4610 -0.5971  0.8828
 6350TIP3    H240686   4.030   3.932   7.593  0.4529  1.1738 -0.0748
 6351TIP3   OH240687   5.847   6.144   0.301 -0.2063  0.5879 -0.4470
 6351TIP3    H140688   5.808   6.068   0.257 -0.5030  0.3097  0.2827
 6351TIP3    H240689   5.925   6.164   0.249 -0.7248  0.4827 -1.3007
 6352TIP3   OH240690   4.740   5.800   7.593  0.5898  0.3183 -0.2506
 6352TIP3    H140691   4.782   5.808   7.508  2.4095  2.3695  0.7110
 6352TIP3    H240692   4.767   5.714   7.626  3.9945  1.3825  0.1607
 6353TIP3   OH240693   6.198   4.424   0.338 -0.3073  0.1312 -0.5958
 6353TIP3    H140694   6.138   4.374   0.284 -0.3471  0.1029 -0.5252
 6353TIP3    H240695   6.268   4.363   0.360  0.6278  0.6149 -2.0706
 6354TIP3   OH240696   2.000   5.925   7.093  0.4547 -0.4884 -0.3556
 6354TIP3    H140697   1.921   5.914   7.040  0.3174  0.4352 -0.3547
 6354TIP3    H240698   2.053   5.988   7.045 -0.4895  1.8518  1.4613
 6355TIP3   OH240699   2.921   4.200   7.267  0.4379 -0.2860 -0.1949
 6355TIP3    H140700   3.009   4.200   7.229  0.8803 -0.6871  0.7850
 6355TIP3    H240701   2.934   4.172   7.358 -0.5436  0.9060  0.3469
 6356TIP3   OH240702   3.933   0.895   8.585  0.1508  0.0483  0.4194
 6356TIP3    H140703   4.015   0.847   8.573  1.0305  1.1370  1.7329
 6356TIP3    H240704   3.897   0.902   8.497  0.8225 -1.5259 -0.0356
 6357TIP3   OH240705   0.800   5.009   8.293 -0.1908  0.0488  0.5995
 6357TIP3    H140706   0.845   5.092   8.278  0.7414 -0.5676 -0.1534
 6357TIP3    H240707   0.819   4.987   8.384 -1.0331  0.9837  1.0265
 6358TIP3   OH240708   5.050   0.159   0.299  0.1410 -0.0082  0.4544
 6358TIP3    H140709   5.101   0.161   0.380  1.0522 -3.7185  0.1721
 6358TIP3    H240710   5.029   0.066   0.287 -3.8527  0.9089 -1.2657
 6359TIP3   OH240711   2.445   0.740   6.325  0.0637 -0.5039  0.5880
 6359TIP3    H140712   2.379   0.672   6.311 -1.0115  0.6227  0.0292
 6359TIP3    H240713   2.420   0.811   6.266  3.0459 -0.8792 -1.3144
 6360TIP3   OH240714   3.782   0.854   7.360  0.1902  0.4390  0.4243
 6360TIP3    H140715   3.716   0.787   7.341  0.0126  0.6460  0.2968
 6360TIP3    H240716   3.742   0.935   7.328  0.2232  0.6712  0.9669
 6361TIP3   OH240717   3.729   4.015   0.090 -0.0787  0.6077 -0.3635
 6361TIP3    H140718   3.661   4.036   0.154 -0.4887 -0.9444 -0.2347
 6361TIP3    H240719   3.682   3.978   0.016  0.6306 -2.1402  0.4085
 6362TIP3   OH240720   4.773   0.597   0.936 -0.4481  0.0435 -0.3054
 6362TIP3    H140721   4.784   0.683   0.896  0.0466 -0.8350 -2.2003
 6362TIP3    H240722   4.821   0.537   0.878 -1.0137 -1.5575  0.7921
 6363TIP3   OH240723   3.464   5.116   8.420  0.1460  0.0193 -0.4374
 6363TIP3    H140724   3.548   5.132   8.379  0.4254  1.6509  0.6636
 6363TIP3    H240725   3.406   5.089   8.348  1.3089  0.0009 -1.3830
 6364TIP3   OH240726   0.822   4.633   8.890  0.0309 -0.3214 -0.0794
 6364TIP3    H140727   0.885   4.704   8.875  1.6973 -1.3147  1.8390
 6364TIP3    H240728   0.749   4.676   8.935  0.3209  0.4695 -0.3433
 6365TIP3   OH240729   1.494   2.844   8.872  0.3540 -1.5907  0.2306
 6365TIP3    H140730   1.570   2.793   8.843 -0.6144 -1.9653 -1.8464
 6365TIP3    H240731   1.419   2.789   8.852 -0.6266 -0.0838 -0.4418
 6366TIP3   OH240732   6.696   5.685   6.662  0.2980  0.3674  0.1728
 6366TIP3    H140733   6.731   5.631   6.732  0.3966 -0.9205 -0.8378
 6366TIP3    H240734   6.630   5.630   6.620 -0.7280  1.6101  0.0797
 6367TIP3   OH240735   4.802   2.916   1.101  0.5962  0.4617 -0.0311
 6367TIP3    H140736   4.827   2.824   1.094  4.0980  1.3262 -0.6377
 6367TIP3    H240737   4.835   2.944   1.186  1.5689  1.6313 -0.7513
 6368TIP3   OH240738   4.835   1.354   0.022 -0.0251 -0.7290  0.2041
 6368TIP3    H140739   4.790   1.439   0.021 -1.2772 -1.3339  1.7271
 6368TIP3    H240740   4.816   1.316  -0.064  0.8083  0.6232 -0.6237
 6369TIP3   OH240741   0.703   1.252   2.543  0.0842  0.1093 -0.0262
 6369TIP3    H140742   0.781   1.308   2.549  0.9313 -1.0483  0.2218
 6369TIP3    H240743   0.657   1.284   2.465  1.3952  0.1207 -0.8421
 6370TIP3   OH240744   6.295   2.314   0.096  0.8705 -0.4707 -0.7935
 6370TIP3    H140745   6.351   2.243   0.066  1.1192 -0.1205 -1.1691
 6370TIP3    H240746   6.250   2.344   0.017  0.5131 -0.4274 -0.5788
 6371TIP3   OH240747   5.655   0.257   1.827 -0.7981 -0.2586 -0.0119
 6371TIP3    H140748   5.660   0.338   1.775 -0.3632  0.2815  0.8482
 6371TIP3    H240749   5.745   0.240   1.853 -1.1397  0.0501  1.4202
 6372TIP3   OH240750   5.030   4.529   7.701 -0.3209  0.0803  0.3206
 6372TIP3    H140751   5.105   4.587   7.683 -0.7698  0.7847  0.6990
 6372TIP3    H240752   5.037   4.461   7.633  0.9817 -0.1895  0.6874
 6373TIP3   OH240753   4.371   0.605   8.067 -0.1525 -0.0691  0.7214
 6373TIP3    H140754   4.342   0.617   7.977  0.1019  1.2210  0.7914
 6373TIP3    H240755   4.321   0.529   8.099 -0.4623 -0.3488 -0.4026
 6374TIP3   OH240756   0.015   3.704   0.716  0.3261  0.4756 -0.2921
 6374TIP3    H140757   0.008   3.624   0.769  1.5429  0.6689  0.1845
 6374TIP3    H240758   0.005   3.674   0.626 -0.7434  0.0000 -0.0401
 6375TIP3   OH240759   6.270   4.946   6.918 -0.1428 -0.2292 -0.4843
 6375TIP3    H140760   6.189   4.943   6.867  1.0210  0.3565 -2.5001
 6375TIP3    H240761   6.338   4.915   6.857  1.3290  0.4493  0.7426
 6376TIP3   OH240762   1.091   5.935   6.996  0.1748  0.2995  0.1435
 6376TIP3    H140763   1.063   6.026   7.004  2.1585  0.9343  0.4571
 6376TIP3    H240764   1.175   5.939   6.949 -0.0095 -1.4286 -0.4334
 6377TIP3   OH240765   0.175   3.902   8.840 -0.0348 -0.0837  0.5297
 6377TIP3    H140766   0.255   3.852   8.826  0.3457  0.6011  0.2328
 6377TIP3    H240767   0.105   3.844   8.811  0.3104 -0.8372  1.1406
 6378TIP3   OH240768   0.220   2.824   2.067  0.0471  0.2352 -0.1642
 6378TIP3    H140769   0.279   2.821   1.992  0.5783  0.4300  0.2380
 6378TIP3    H240770   0.269   2.783   2.139 -0.0495  0.9925  0.3463
 6379TIP3   OH240771   0.256   1.978   0.975 -0.5162 -0.5311  0.3955
 6379TIP3    H140772   0.203   2.044   0.928 -2.4445 -0.0100  3.0511
 6379TIP3    H240773   0.346   2.003   0.957 -1.1441  2.8948  1.1707
 6380TIP3   OH240774   2.132   4.358   6.877 -0.4269  0.4009  0.4013
 6380TIP3    H140775   2.210   4.400   6.913 -0.5910  0.7868  0.3061
 6380TIP3    H240776   2.066   4.427   6.873 -0.0566  0.7029 -1.8156
 6381TIP3   OH240777   1.782   0.512   8.106 -0.1674 -0.5193 -0.2570
 6381TIP3    H140778   1.744   0.425   8.092  0.6518 -0.8021 -0.7970
 6381TIP3    H240779   1.843   0.499   8.179  1.2114 -0.8052 -1.4251
 6382TIP3   OH240780   4.446   6.274   6.423 -0.5254 -0.3087 -0.8377
 6382TIP3    H140781   4.454   6.254   6.329  0.4947 -0.2214 -0.7907
 6382TIP3    H240782   4.400   6.199   6.460  1.0477 -1.4390 -1.0573
 6383TIP3   OH240783   1.226   0.886   8.624 -0.0925 -0.6211  0.0607
 6383TIP3    H140784   1.262   0.967   8.587 -0.7808  0.2774  1.3201
 6383TIP3    H240785   1.302   0.828   8.633  0.9485  0.9164  1.8112
 6384TIP3   OH240786   5.525   4.999   0.165 -0.5125 -0.2322  0.1808
 6384TIP3    H140787   5.550   4.906   0.163  0.9733  0.1058  1.2001
 6384TIP3    H240788   5.440   5.002   0.122 -0.8503 -2.1495  0.6266
 6385TIP3   OH240789   0.844   5.604   0.146 -0.2138 -0.5471  0.6609
 6385TIP3    H140790   0.891   5.684   0.122  0.2322 -0.2510  2.3934
 6385TIP3    H240791   0.912   5.544   0.176 -0.8388 -0.2962  2.7193
 6386TIP3   OH240792   3.501   3.691   7.989  0.2234  0.0688  0.0893
 6386TIP3    H140793   3.482   3.777   7.952  0.1151  0.8559  1.8783
 6386TIP3    H240794   3.555   3.648   7.923 -1.0093  0.8908 -1.5185
 6387TIP3   OH240795   4.470   0.155   8.751  0.3836 -0.0178  0.1309
 6387TIP3    H140796   4.481   0.120   8.663  1.3320  1.6551 -0.4725
 6387TIP3    H240797   4.539   0.222   8.759 -1.4541  1.8947  1.0439
 6388TIP3   OH240798   2.503   4.742   7.965  0.1698 -0.2760  0.2593
 6388TIP3    H140799   2.513   4.675   8.033  1.4738  0.9465  1.3499
 6388TIP3    H240800   2.524   4.698   7.883 -0.2884 -1.5057  0.7841
 6389TIP3   OH240801   3.443   6.322   7.536  0.7648 -0.3552  0.0830
 6389TIP3    H140802   3.429   6.330   7.441  0.7746 -0.1231  0.1021
 6389TIP3    H240803   3.508   6.251   7.544  0.8290 -0.3176 -0.0872
 6390TIP3   OH240804   3.553   0.059   0.455  0.0912  0.2153  0.3533
 6390TIP3    H140805   3.557   0.130   0.519 -1.3989 -0.4667  1.2279
 6390TIP3    H240806   3.632   0.007   0.472  1.0378  1.4454 -0.0963
 6391TIP3   OH240807   3.666   0.533   7.030  0.0078 -0.1171  0.4826
 6391TIP3    H140808   3.654   0.520   6.936  2.0960  2.6057 -0.2991
 6391TIP3    H240809   3.675   0.444   7.066 -0.2279 -1.1961 -1.9727
 6392TIP3   OH240810   5.994   2.234   7.762  0.0615  0.3057 -0.0955
 6392TIP3    H140811   5.984   2.212   7.855 -1.1850 -0.8071 -0.4654
 6392TIP3    H240812   5.995   2.330   7.760 -1.9604  0.4067  0.9122
 6393TIP3   OH240813   1.876   1.144   8.887 -0.2614 -0.1951  0.7343
 6393TIP3    H140814   1.899   1.175   8.800 -1.2966 -0.4232  0.3653
 6393TIP3    H240815   1.930   1.196   8.946  1.6124 -1.1077 -0.0886
 6394TIP3   OH240816   3.618   1.065   7.484  0.4490  0.2455 -0.2435
 6394TIP3    H140817   3.587   0.991   7.431  0.8568 -0.9020  1.0801
 6394TIP3    H240818   3.539   1.100   7.525  0.2423  0.6410 -0.9465
 6395TIP3   OH240819   2.467   1.514   0.487 -0.6376  0.5338 -0.2433
 6395TIP3    H140820   2.465   1.484   0.396 -0.9927 -0.0630 -0.0414
 6395TIP3    H240821   2.557   1.542   0.501 -0.4427  0.0994 -0.6132
 6396TIP3   OH240822   2.958   5.618   8.730  0.3439  0.1437 -0.3319
 6396TIP3    H140823   2.943   5.566   8.651  0.6699  0.9531 -0.9483
 6396TIP3    H240824   2.889   5.591   8.790 -0.0965 -0.2689 -1.0057
 6397TIP3   OH240825   5.330   1.199   1.403 -0.6289 -0.4052 -0.0375
 6397TIP3    H140826   5.298   1.132   1.463 -0.7991 -1.9014 -1.7095
 6397TIP3    H240827   5.252   1.251   1.382 -0.6576 -0.1537  0.6472
 6398TIP3   OH240828   2.541   4.425   0.879 -0.1246 -0.0894  0.0237
 6398TIP3    H140829   2.629   4.461   0.889  0.8359 -2.0358 -0.8374
 6398TIP3    H240830   2.518   4.393   0.966 -1.4147  3.2282  1.0711
 6399TIP3   OH240831   1.194   3.156   0.712  0.5742  0.3469  0.4304
 6399TIP3    H140832   1.220   3.248   0.705  0.7721  0.2669  0.0800
 6399TIP3    H240833   1.189   3.139   0.806  0.1501  0.8262  0.5005
 6400TIP3   OH240834   2.928   4.233   8.186 -0.3423 -0.4752  0.2132
 6400TIP3    H140835   2.876   4.183   8.250 -0.5669 -0.7131 -0.1456
 6400TIP3    H240836   2.967   4.166   8.130  0.7198 -0.3154  0.7480
 6401TIP3   OH240837   1.992   0.089   1.082 -0.0550 -0.1756  0.4325
 6401TIP3    H140838   1.980  -0.005   1.097  1.4320 -0.4117  0.2820
 6401TIP3    H240839   1.906   0.119   1.052 -0.9975 -1.1518  2.0215
 6402TIP3   OH240840   1.490   5.100   0.166  0.0752 -0.5735 -0.3522
 6402TIP3    H140841   1.484   5.185   0.209 -0.8711 -1.3418  1.1097
 6402TIP3    H240842   1.415   5.098   0.106  0.0078 -0.4367 -0.2734
 6403TIP3   OH240843   4.630   0.486   0.144  0.4268 -0.3233 -0.0253
 6403TIP3    H140844   4.692   0.549   0.107  0.2890  0.9037  1.6991
 6403TIP3    H240845   4.546   0.507   0.104  0.7602 -0.7472 -0.9597
 6404TIP3   OH240846   2.823   2.649   8.310  0.1284  0.2183 -0.2687
 6404TIP3    H140847   2.775   2.569   8.332  0.3699  0.2919  0.5801
 6404TIP3    H240848   2.913   2.621   8.297  0.4801  0.5149  1.3460
 6405TIP3   OH240849   5.794   5.508   8.292  0.1230  0.3799 -0.1293
 6405TIP3    H140850   5.815   5.509   8.199  2.8402 -0.6226  0.3764
 6405TIP3    H240851   5.812   5.596   8.323 -0.3718  0.5989 -0.4569
 6406TIP3   OH240852   3.939   5.940   1.973  0.2498  0.1432 -0.0307
 6406TIP3    H140853   3.928   5.879   2.046  1.1670  0.0405  0.0314
 6406TIP3    H240854   3.853   5.980   1.963  0.1445  0.2799  1.2151
 6407TIP3   OH240855   1.259   5.104   6.590 -0.7570 -0.2349  0.3877
 6407TIP3    H140856   1.193   5.038   6.568 -0.0459 -0.7301 -0.3371
 6407TIP3    H240857   1.252   5.114   6.685 -0.6088 -1.6803  0.5820
 6408TIP3   OH240858   6.253   0.106   7.860 -0.0250 -0.1988 -0.3927
 6408TIP3    H140859   6.193   0.176   7.836 -1.5324 -1.0712  0.6479
 6408TIP3    H240860   6.278   0.126   7.951 -2.9914 -2.5419  1.1263
 6409TIP3   OH240861   1.721   0.882   0.719 -0.7560 -0.3615 -0.5740
 6409TIP3    H140862   1.638   0.837   0.703 -2.2615  2.4180 -1.2459
 6409TIP3    H240863   1.736   0.934   0.640 -0.0198  1.5561  0.7537
 6410TIP3   OH240864   6.068   1.047   1.111 -0.6362  0.4693  0.8965
 6410TIP3    H140865   6.134   1.112   1.088 -2.1434  1.8898  0.4135
 6410TIP3    H240866   6.118   0.970   1.138  1.1992  1.2194 -0.2156
 6411TIP3   OH240867   0.986   5.941   8.789  0.2643 -0.7093  0.0068
 6411TIP3    H140868   0.997   6.034   8.772  1.9507 -0.7525  0.6638
 6411TIP3    H240869   0.969   5.903   8.703  1.0978  0.0193 -0.4982
 6412TIP3   OH240870   5.607   5.319   0.466  0.8293 -0.0133 -0.9480
 6412TIP3    H140871   5.603   5.224   0.477 -1.2128  0.3684  4.0096
 6412TIP3    H240872   5.524   5.341   0.423  1.0008 -0.4127 -1.4930
 6413TIP3   OH240873   5.773   4.431   0.616 -0.4229 -0.4900 -0.2033
 6413TIP3    H140874   5.755   4.404   0.706  1.7843 -1.3555  0.0196
 6413TIP3    H240875   5.855   4.480   0.621 -1.2342  1.1326 -1.5052
 6414TIP3   OH240876   4.820   6.153   0.233 -0.7919 -0.6495 -0.0373
 6414TIP3    H140877   4.900   6.203   0.220  0.2432 -1.4441  2.6210
 6414TIP3    H240878   4.832   6.073   0.182 -0.3104 -0.3813 -0.3492
 6415TIP3   OH240879   2.785   3.538   7.193  0.0050  0.0944 -0.2824
 6415TIP3    H140880   2.757   3.620   7.235  0.2618 -0.2834  0.6554
 6415TIP3    H240881   2.712   3.478   7.208  0.4296 -0.2791  0.3524
 6416TIP3   OH240882   2.008   1.944   8.369 -0.7564 -0.0129  0.1496
 6416TIP3    H140883   2.091   1.975   8.405  0.7463  0.2157 -3.2103
 6416TIP3    H240884   1.959   2.024   8.350 -0.0914  0.0451 -1.4198
 6417TIP3   OH240885   0.679   1.306   8.917  0.0017 -0.1341  0.3958
 6417TIP3    H140886   0.703   1.213   8.907  2.0355  0.3020  0.7147
 6417TIP3    H240887   0.750   1.342   8.970 -1.8143  1.1839  2.0445
 6418TIP3   OH240888   4.779   6.417   7.035  0.0075 -0.1507 -0.7679
 6418TIP3    H140889   4.826   6.426   6.952 -1.7603  0.3000 -1.7746
 6418TIP3    H240890   4.725   6.338   7.023 -0.7847  0.3130 -0.3230
 6419TIP3   OH240891   2.816   5.678   8.302 -0.5497 -0.2844 -0.6625
 6419TIP3    H140892   2.831   5.652   8.211  1.9042  3.2667 -1.4702
 6419TIP3    H240893   2.751   5.748   8.297  0.1719  0.4727  0.1704
 6420TIP3   OH240894   5.323   4.484   7.028  0.0451 -0.4985  0.1444
 6420TIP3    H140895   5.385   4.429   6.981 -0.6338  0.0198 -1.4159
 6420TIP3    H240896   5.372   4.563   7.049 -0.0386 -0.1134 -1.0323
 6421TIP3   OH240897   3.827   6.038   6.696 -0.1398  0.0001  0.1655
 6421TIP3    H140898   3.899   6.088   6.657  1.3892 -0.8496  1.7487
 6421TIP3    H240899   3.837   5.950   6.659  0.3585 -0.4069  1.2423
 6422TIP3   OH240900   1.716   4.609   7.460 -0.0391  0.3280 -0.4017
 6422TIP3    H140901   1.692   4.516   7.467  1.1620  0.0492  0.3465
 6422TIP3    H240902   1.783   4.621   7.528  0.3825  1.5530 -1.0130
 6423TIP3   OH240903   0.988   0.980   0.391 -0.4051  0.0772  0.5094
 6423TIP3    H140904   1.012   1.024   0.309 -1.3622  2.0307  1.2210
 6423TIP3    H240905   0.917   1.032   0.426  1.5701  0.7942  3.8400
 6424TIP3   OH240906   5.900   0.411   8.045 -0.0993 -0.0800  0.2082
 6424TIP3    H140907   5.963   0.395   8.115  0.4829 -0.8701 -0.4775
 6424TIP3    H240908   5.936   0.487   7.998 -0.1351  0.0332  0.3638
 6425TIP3   OH240909   5.165   2.732   8.777  0.1806  0.2015 -0.0550
 6425TIP3    H140910   5.257   2.758   8.773 -0.2853  2.0739  0.3019
 6425TIP3    H240911   5.158   2.682   8.859  0.9663 -0.3986 -0.3438
 6426TIP3   OH240912   1.647   3.577   8.014 -0.0647 -0.0787 -0.4460
 6426TIP3    H140913   1.583   3.637   8.053  1.3410  1.0288  0.2510
 6426TIP3    H240914   1.595   3.500   7.989 -2.1168  1.7353 -2.2136
 6427TIP3   OH240915   5.331   2.108   7.497 -0.3123  0.1898  0.0604
 6427TIP3    H140916   5.263   2.128   7.562 -0.7618 -1.4088  0.1387
 6427TIP3    H240917   5.409   2.089   7.549  0.2650  2.0924 -0.0323
 6428TIP3   OH240918   0.254   0.196   0.443 -0.1620 -0.0039 -0.3653
 6428TIP3    H140919   0.238   0.260   0.511 -0.7002  1.0009 -1.3988
 6428TIP3    H240920   0.333   0.149   0.472 -0.6399  0.0809  1.1410
 6429TIP3   OH240921   1.484   5.505   7.766  0.2708 -0.7894  0.5387
 6429TIP3    H140922   1.408   5.447   7.778 -0.6825  0.1284 -0.7276
 6429TIP3    H240923   1.448   5.593   7.770  1.2540 -0.3325 -0.1884
 6430TIP3   OH240924   4.782   6.461   6.496  0.1650  0.1982 -0.2391
 6430TIP3    H140925   4.795   6.551   6.465  1.0028  0.5305  1.0113
 6430TIP3    H240926   4.869   6.422   6.492  0.4058  0.3915  2.0305
 6431TIP3   OH240927   6.334   4.268   8.540  0.4482  0.8198 -0.1281
 6431TIP3    H140928   6.251   4.282   8.494 -1.5886 -2.7665  1.9899
 6431TIP3    H240929   6.325   4.315   8.622  0.6087  0.5954  0.0193
 6432TIP3   OH240930   0.110   5.464   0.326 -0.3565  0.0235  0.4643
 6432TIP3    H140931   0.132   5.372   0.313  3.6330  0.6632  1.2794
 6432TIP3    H240932   0.086   5.470   0.418 -2.0627 -0.3460  0.0791
 6433TIP3   OH240933   0.565   5.986   8.146 -0.8088  0.4218  0.4976
 6433TIP3    H140934   0.552   5.900   8.108  1.7051 -0.8775  2.2963
 6433TIP3    H240935   0.494   5.996   8.209 -0.3189 -0.9886  1.2969
 6434TIP3   OH240936   6.011   0.111   8.649  0.0617 -0.0484  0.0483
 6434TIP3    H140937   5.964   0.140   8.726 -1.4829  0.0444 -0.8885
 6434TIP3    H240938   6.037   0.021   8.668 -0.6259 -0.1456  0.5322
 6435TIP3   OH240939   1.096   1.345   1.988 -0.1350 -0.0697  0.0750
 6435TIP3    H140940   1.049   1.346   2.071 -0.7062  1.4031 -0.2333
 6435TIP3    H240941   1.128   1.434   1.977  3.6499 -1.1700  0.7158
 6436TIP3   OH240942   3.510   2.279   0.923  0.1699 -0.1868 -0.3727
 6436TIP3    H140943   3.597   2.273   0.885  0.5010 -0.7267  0.4377
 6436TIP3    H240944   3.484   2.370   0.909  1.5191  0.4123  0.7537
 6437TIP3   OH240945   3.961   4.128   8.190 -0.3018 -0.5481 -0.7572
 6437TIP3    H140946   4.019   4.111   8.264  0.0559 -3.8287 -1.6399
 6437TIP3    H240947   4.017   4.116   8.113 -0.7288  2.5276 -1.6809
 6438TIP3   OH240948   5.177   0.766   8.007  0.4152  0.1369  0.0956
 6438TIP3    H140949   5.107   0.788   7.945 -0.2708 -0.0000  0.8147
 6438TIP3    H240950   5.198   0.674   7.988  0.4663  0.2031 -0.1763
 6439TIP3   OH240951   6.110   2.990   7.393  0.2408 -0.1323  0.0946
 6439TIP3    H140952   6.044   2.924   7.368  1.5288 -1.1194 -0.8207
 6439TIP3    H240953   6.182   2.976   7.332  0.9270  1.5584  0.4716
 6440TIP3   OH240954   4.960   2.867   1.998 -0.1129 -0.0827  0.2461
 6440TIP3    H140955   4.930   2.887   2.087  3.5448  1.8204  1.2686
 6440TIP3    H240956   4.970   2.953   1.957  1.6051 -0.6765 -0.7048
 6441TIP3   OH240957   1.434   5.126   1.977 -0.2547  0.3876  0.3638
 6441TIP3    H140958   1.502   5.105   2.041 -0.0610  1.3069  0.4694
 6441TIP3    H240959   1.361   5.068   1.999  1.3724 -2.5266 -1.3398
 6442TIP3   OH240960   1.297   1.507   8.374  0.4511  0.0398  0.0214
 6442TIP3    H140961   1.228   1.572   8.361 -0.6319 -1.0116  0.3370
 6442TIP3    H240962   1.365   1.531   8.311 -0.6294  0.5115 -1.0011
 6443TIP3   OH240963   0.563   1.560   1.558  0.2152 -0.1171 -0.0802
 6443TIP3    H140964   0.632   1.599   1.610  0.1066  0.4457 -0.3530
 6443TIP3    H240965   0.492   1.542   1.621 -0.6612  2.2779 -0.2997
 6444TIP3   OH240966   4.977   3.135   0.985 -0.9195  0.0375  0.0017
 6444TIP3    H140967   4.900   3.092   1.023 -0.1208 -2.1279 -0.6763
 6444TIP3    H240968   4.986   3.096   0.898  1.4693 -0.4869  0.4169
 6445TIP3   OH240969   2.835   0.277   7.211 -0.0824  0.0441 -0.5273
 6445TIP3    H140970   2.841   0.359   7.162 -0.8299  0.7824  0.5591
 6445TIP3    H240971   2.759   0.288   7.268 -0.9720 -1.9063 -1.2312
 6446TIP3   OH240972   6.690   1.647   2.022 -0.5229 -0.2639 -0.0241
 6446TIP3    H140973   6.667   1.705   2.095  0.3779 -1.2963  1.1323
 6446TIP3    H240974   6.620   1.582   2.020  0.0624 -0.9429  0.7443
 6447TIP3   OH240975   3.340   1.070   7.558 -0.3311 -0.0740  0.2469
 6447TIP3    H140976   3.249   1.087   7.581 -0.1421 -0.7063  1.5409
 6447TIP3    H240977   3.372   1.011   7.627  1.1358  0.3575 -0.0303
 6448TIP3   OH240978   1.563   2.033   8.119 -0.1432 -0.4544  0.0071
 6448TIP3    H140979   1.560   2.113   8.172 -2.6879  0.4435 -1.3325
 6448TIP3    H240980   1.654   2.002   8.128  0.8379  2.3615  0.8691
 6449TIP3   OH240981   4.199   4.317   7.853 -0.1081 -0.0236  0.3081
 6449TIP3    H140982   4.197   4.413   7.845 -1.7874 -0.1753 -1.8080
 6449TIP3    H240983   4.117   4.295   7.897 -0.1286 -0.5356  0.0209
 6450TIP3   OH240984   2.057   2.831   1.547  0.3328 -0.0008  0.2339
 6450TIP3    H140985   1.978   2.838   1.494  0.9577  1.0024 -0.6258
 6450TIP3    H240986   2.128   2.856   1.487  1.1489  0.4583  1.3491
 6451TIP3   OH240987   6.728   1.271   1.919  0.3040 -0.0839  0.4532
 6451TIP3    H140988   6.715   1.287   2.012 -0.3999  2.4557 -0.0126
 6451TIP3    H240989   6.648   1.302   1.877  1.6819  1.4862 -1.2024
 6452TIP3   OH240990   5.535   6.720   2.292  0.3412 -0.4712  0.1340
 6452TIP3    H140991   5.447   6.757   2.300  0.2164 -0.9503  1.0982
 6452TIP3    H240992   5.538   6.651   2.358  0.8356 -1.6663 -1.1116
 6453TIP3   OH240993   5.151   0.521   8.654  0.0050 -0.3342  0.2808
 6453TIP3    H140994   5.233   0.481   8.625 -0.0718  0.0078 -0.4293
 6453TIP3    H240995   5.135   0.483   8.740  0.5271 -0.9583  0.1087
 6454TIP3   OH240996   0.300   3.087   7.674  0.2887 -0.5605 -0.3546
 6454TIP3    H140997   0.245   3.013   7.699 -1.1215  0.6647  0.3623
 6454TIP3    H240998   0.390   3.054   7.680 -0.2602 -1.9519  0.8119
 6455TIP3   OH240999   1.769   3.112   0.132  0.3664 -0.2844 -0.7536
 6455TIP3    H141000   1.819   3.161   0.198 -1.2976  0.2604  0.1712
 6455TIP3    H241001   1.732   3.180   0.076 -3.8600 -0.0710  1.8793
 6456TIP3   OH241002   0.208   2.347   7.684 -0.3065 -0.2380 -0.5108
 6456TIP3    H141003   0.123   2.361   7.724  0.5110 -0.4903  1.4392
 6456TIP3    H241004   0.218   2.420   7.622 -2.4282 -0.9299 -1.7764
 6457TIP3   OH241005   3.425   2.803   1.121  0.2753 -0.4264  0.7199
 6457TIP3    H141006   3.419   2.851   1.038  0.0706  0.3971  1.1918
 6457TIP3    H241007   3.334   2.791   1.148  0.2614 -2.1532  0.0374
 6458TIP3   OH241008   1.042   1.266   7.069  0.2529 -0.2373  0.3940
 6458TIP3    H141009   1.021   1.283   6.977  1.7521  0.3881  0.1487
 6458TIP3    H241010   1.094   1.342   7.096  3.0898 -2.1214  0.6519
 6459TIP3   OH241011   0.780   4.079   6.384  0.2210 -0.5193 -0.4689
 6459TIP3    H141012   0.753   4.155   6.436  1.2216  0.6246 -1.5710
 6459TIP3    H241013   0.724   4.008   6.416  0.8380  0.0767  2.2375
 6460TIP3   OH241014   5.465   1.658   7.275 -0.3154  0.0864  0.2229
 6460TIP3    H141015   5.406   1.708   7.331 -1.8395 -1.1794 -0.1984
 6460TIP3    H241016   5.416   1.644   7.194  0.2064 -1.7467  0.1762
 6461TIP3   OH241017   6.264   3.476   7.999  0.4441 -0.3115 -0.6433
 6461TIP3    H141018   6.337   3.538   7.996 -0.3117  0.7611  1.2460
 6461TIP3    H241019   6.195   3.524   8.044  0.1781 -2.8384  1.9147
 6462TIP3   OH241020   5.791   3.813   7.250 -0.0866  0.3842 -0.5219
 6462TIP3    H141021   5.735   3.839   7.177 -0.7584  2.7936  0.7149
 6462TIP3    H241022   5.730   3.798   7.322  0.6296 -1.0514 -0.1777
 6463TIP3   OH241023   4.486   5.620   7.555  0.1668  0.4295  0.8284
 6463TIP3    H141024   4.514   5.712   7.548  1.8816 -0.0409  1.0334
 6463TIP3    H241025   4.472   5.592   7.465 -0.5966  0.9493  0.7776
 6464TIP3   OH241026   6.139   4.040   0.962 -0.1278  0.1220  0.1124
 6464TIP3    H141027   6.169   4.074   0.877 -0.0540 -0.5173 -0.1220
 6464TIP3    H241028   6.151   4.113   1.022  2.5338 -0.2881  0.1855
 6465TIP3   OH241029   1.466   1.586   8.173  0.6970  0.4878  0.4218
 6465TIP3    H141030   1.457   1.560   8.081 -4.7661  0.2903  0.6665
 6465TIP3    H241031   1.440   1.678   8.174 -1.1450 -0.0028  1.8784
 6466TIP3   OH241032   6.543   6.170   1.222  0.7378  0.0864  0.0296
 6466TIP3    H141033   6.609   6.225   1.263  0.8063 -0.1869  0.2919
 6466TIP3    H241034   6.589   6.090   1.199  0.0677 -0.9881  2.1499
 6467TIP3   OH241035   1.745   0.790   6.481 -0.4316 -0.2369 -0.3037
 6467TIP3    H141036   1.797   0.854   6.432 -0.2632 -0.2689 -0.1641
 6467TIP3    H241037   1.772   0.801   6.572  0.0596 -0.9454 -0.3574
 6468TIP3   OH241038   1.952   4.723   7.634  0.3494  0.7036  0.0712
 6468TIP3    H141039   1.974   4.634   7.661 -1.4117  0.6023  1.4293
 6468TIP3    H241040   2.032   4.757   7.594  0.9482 -1.5956 -0.8586
 6469TIP3   OH241041   2.919   0.897   7.003  0.4911  0.5864 -0.2206
 6469TIP3    H141042   2.958   0.985   7.005  2.2191 -0.1187  2.5384
 6469TIP3    H241043   2.845   0.903   7.063 -0.0105  0.4015 -0.8184
 6470TIP3   OH241044   1.788   6.177   8.365 -0.3270 -0.4056  0.4676
 6470TIP3    H141045   1.812   6.269   8.379  1.4306 -0.5410 -1.3151
 6470TIP3    H241046   1.871   6.131   8.362 -1.1181 -1.8312 -0.2349
 6471TIP3   OH241047   6.028   3.067   2.281  0.3801  0.3703  0.0942
 6471TIP3    H141048   6.120   3.089   2.271  0.7492 -1.5932 -1.5931
 6471TIP3    H241049   6.003   3.029   2.197 -1.9073  0.5889  0.5989
 6472TIP3   OH241050   2.066   3.674   1.001 -0.4586  0.6715  0.1185
 6472TIP3    H141051   2.031   3.710   0.919 -0.8805 -0.5070 -0.2377
 6472TIP3    H241052   2.146   3.724   1.016 -0.5716  1.1699 -0.8128
 6473TIP3   OH241053   1.162   0.506   1.456  0.0993 -0.5521 -0.4341
 6473TIP3    H141054   1.211   0.585   1.481  0.5061 -1.0920  0.5373
 6473TIP3    H241055   1.071   0.527   1.478  0.2002 -0.3308 -0.2191
 6474TIP3   OH241056   1.819   5.536   0.186 -0.4160  0.1263 -0.4959
 6474TIP3    H141057   1.876   5.542   0.262  0.3722 -2.0981 -0.8600
 6474TIP3    H241058   1.864   5.478   0.125 -1.9207  0.2972 -1.8583
 6475TIP3   OH241059   3.371   2.626   0.359 -0.0990 -0.0830 -0.1815
 6475TIP3    H141060   3.283   2.662   0.371  0.7729  2.5207 -0.9587
 6475TIP3    H241061   3.421   2.659   0.434  0.6911  0.1154 -0.7777
 6476TIP3   OH241062   5.894   1.492   6.748 -0.9062  0.5324 -0.3421
 6476TIP3    H141063   5.930   1.404   6.734 -2.3680 -0.4836  1.7304
 6476TIP3    H241064   5.947   1.548   6.692  0.5049 -1.5623 -1.2647
 6477TIP3   OH241065   5.339   1.414   6.912 -0.1092  0.0721  0.0363
 6477TIP3    H141066   5.262   1.414   6.855 -2.1020  1.6278  2.5356
 6477TIP3    H241067   5.393   1.485   6.879  0.1197 -0.7369 -1.4584
 6478TIP3   OH241068   4.633   0.990   6.718 -0.2036 -0.6136  0.0879
 6478TIP3    H141069   4.641   0.967   6.626  2.7426  2.4731 -0.6422
 6478TIP3    H241070   4.572   1.065   6.719  0.7162  0.1533  0.4257
 6479TIP3   OH241071   0.794   1.842   1.911 -0.2895  0.2056  0.5327
 6479TIP3    H141072   0.706   1.823   1.877 -0.3949  0.9131  0.4013
 6479TIP3    H241073   0.782   1.850   2.005 -0.3293  0.1210  0.5354
 6480TIP3   OH241074   4.666   0.419   1.850  0.1171  0.1960  0.5740
 6480TIP3    H141075   4.645   0.350   1.912  1.6758 -0.3812  0.5277
 6480TIP3    H241076   4.604   0.489   1.868 -1.1585 -1.0114  0.9815
 6481TIP3   OH241077   1.416   3.737   1.334  0.4607 -0.2547  0.3273
 6481TIP3    H141078   1.404   3.805   1.401 -1.2353 -0.9964  0.8076
 6481TIP3    H241079   1.338   3.744   1.279  0.7234 -1.2088 -0.1765
 6482TIP3   OH241080   2.464   6.504   7.206 -0.2940  0.6219 -0.0112
 6482TIP3    H141081   2.383   6.513   7.256  0.1855  1.9302  0.5723
 6482TIP3    H241082   2.529   6.476   7.271 -0.2133 -0.1940 -0.4295
 6483TIP3   OH241083   2.945   3.443   7.771  0.1914 -0.1972 -0.3872
 6483TIP3    H141084   3.039   3.446   7.790  0.7207  0.0611 -2.6656
 6483TIP3    H241085   2.924   3.533   7.745 -0.9133 -0.0527  0.9110
 6484TIP3   OH241086   3.810   2.031   7.736 -0.5012 -0.0549 -0.2784
 6484TIP3    H141087   3.728   1.982   7.737  0.3732 -1.5728  0.7605
 6484TIP3    H241088   3.824   2.057   7.827 -0.7545  1.8811 -0.7422
 6485TIP3   OH241089   5.863   5.468   0.710 -0.0180 -0.0326  0.2823
 6485TIP3    H141090   5.898   5.383   0.738  0.2611 -0.7310 -2.0406
 6485TIP3    H241091   5.894   5.479   0.621  1.8822  3.6067  1.1998
 6486TIP3   OH241092   1.571   6.738   0.506  0.6933 -0.4447 -0.9818
 6486TIP3    H141093   1.566   6.708   0.597  0.5771 -0.6934 -1.0702
 6486TIP3    H241094   1.639   6.805   0.507 -0.2515  0.5178 -0.4501
 6487TIP3   OH241095   1.555   5.474   7.505  0.2832  0.8824 -0.2681
 6487TIP3    H141096   1.566   5.513   7.592  0.4935  0.0216  0.0972
 6487TIP3    H241097   1.464   5.494   7.482 -0.5109 -0.8247  1.1535
 6488TIP3   OH241098   5.339   3.593   0.939  0.7817 -0.1113  0.5401
 6488TIP3    H141099   5.360   3.530   1.008  0.5840  1.2047  1.8296
 6488TIP3    H241100   5.246   3.582   0.923  0.7775 -0.2433  0.6552
 6489TIP3   OH241101   2.775   5.478   8.475 -0.2518  0.2312  0.2112
 6489TIP3    H141102   2.776   5.417   8.401  1.7849  0.5559 -0.0813
 6489TIP3    H241103   2.786   5.564   8.436 -2.4687  0.7846  0.6829
 6490TIP3   OH241104   1.712   3.219   7.248  0.2727  0.1275 -0.3678
 6490TIP3    H141105   1.679   3.141   7.204 -0.7049  1.2738 -1.7338
 6490TIP3    H241106   1.803   3.226   7.219  0.6291 -0.9293  0.4188
 6491TIP3   OH241107   0.670   2.495   1.658  0.0259 -0.1407  0.1204
 6491TIP3    H141108   0.645   2.540   1.577 -1.7737  0.2665  0.8562
 6491TIP3    H241109   0.742   2.437   1.632 -1.6269 -1.3298 -2.1894
 6492TIP3   OH241110   4.155   5.158   2.135 -0.3101 -0.2112  0.2563
 6492TIP3    H141111   4.188   5.190   2.219 -0.4332 -2.3021  1.1585
 6492TIP3    H241112   4.187   5.068   2.129 -0.8857 -0.3265 -1.6262
 6493TIP3   OH241113   2.007   3.307   0.647  0.5701  0.9375  0.2059
 6493TIP3    H141114   1.961   3.349   0.574 -1.9404  0.9562  1.6742
 6493TIP3    H241115   1.952   3.232   0.670  2.7444 -0.6786  0.3843
 6494TIP3   OH241116   4.700   0.387   0.382 -0.0091  0.0696  0.3031
 6494TIP3    H141117   4.624   0.413   0.434 -0.7144  0.5250 -0.9143
 6494TIP3    H241118   4.686   0.429   0.297  1.9326  0.6848  0.2527
 6495TIP3   OH241119   3.767   3.915   6.534  0.2373  0.0290 -0.6010
 6495TIP3    H141120   3.780   3.908   6.439 -0.9776  0.5200 -0.8297
 6495TIP3    H241121   3.672   3.913   6.545  0.3700 -0.5564  0.6630
 6496TIP3   OH241122   1.525   0.467   7.759 -0.1746  0.0772 -0.1673
 6496TIP3    H141123   1.512   0.449   7.853  0.0810  1.5867  0.1829
 6496TIP3    H241124   1.527   0.562   7.753 -1.0035  0.0190 -1.8452
 6497TIP3   OH241125   6.713   1.557   1.765  0.1955 -0.4922  0.6190
 6497TIP3    H141126   6.664   1.487   1.722  1.9999 -1.1056 -0.5721
 6497TIP3    H241127   6.646   1.614   1.803 -1.4296 -1.1120 -1.1772
 6498TIP3   OH241128   0.385   4.865   7.826 -0.2926 -0.1526  0.1566
 6498TIP3    H141129   0.368   4.771   7.836 -1.7340  0.2230  1.8560
 6498TIP3    H241130   0.301   4.901   7.796  0.2076  0.6211 -0.3401
 6499TIP3   OH241131   6.466   1.159   0.156  0.1799 -0.0678 -0.7360
 6499TIP3    H141132   6.428   1.229   0.103 -0.3940 -0.9540 -1.5380
 6499TIP3    H241133   6.412   1.082   0.136  0.7510 -0.7261  0.1688
 6500TIP3   OH241134   4.707   3.211   7.420 -0.5597  0.1940 -0.5290
 6500TIP3    H141135   4.657   3.156   7.359 -0.9126 -0.0415 -0.0301
 6500TIP3    H241136   4.734   3.286   7.367 -1.1191  0.1370 -0.9054
 6501TIP3   OH241137   4.337   5.395   0.001  0.3395  0.0238  0.5098
 6501TIP3    H141138   4.417   5.355   0.036 -0.2778 -0.8792  0.9252
 6501TIP3    H241139   4.309   5.334  -0.068  0.7367  1.0339 -0.5814
 6502TIP3   OH241140   4.630   1.330   1.335  0.2206 -0.4178  0.4297
 6502TIP3    H141141   4.587   1.270   1.396  0.0407 -0.7471 -0.0171
 6502TIP3    H241142   4.652   1.407   1.388 -1.8253  0.1959  0.4648
 6503TIP3   OH241143   4.877   3.076   8.811 -0.4120  0.2434 -0.1052
 6503TIP3    H141144   4.925   3.104   8.888  2.3608 -1.2846 -1.1456
 6503TIP3    H241145   4.883   2.981   8.812 -2.6802  0.0328 -0.8235
 6504TIP3   OH241146   0.547   0.975   7.075 -0.0541 -0.0744  0.0454
 6504TIP3    H141147   0.511   1.025   7.002  0.3885  0.2553  0.0489
 6504TIP3    H241148   0.640   0.963   7.052  0.2347  0.5624  0.8285
 6505TIP3   OH241149   5.742   6.761   8.016 -0.3039 -0.0460 -0.4277
 6505TIP3    H141150   5.778   6.704   8.083  0.5635  1.5803  0.5569
 6505TIP3    H241151   5.773   6.725   7.933  2.5130  0.4861  0.3004
 6506TIP3   OH241152   0.192   6.425   8.446 -0.3562  0.1621  0.2469
 6506TIP3    H141153   0.243   6.367   8.389 -0.3390  1.0605 -0.6735
 6506TIP3    H241154   0.106   6.431   8.403 -0.2780  1.0081  0.2063
 6507TIP3   OH241155   3.824   5.353   8.452 -0.5327  0.1130  0.4948
 6507TIP3    H141156   3.902   5.407   8.435  1.9742 -2.2746  3.1991
 6507TIP3    H241157   3.800   5.319   8.366  2.4444 -0.2648 -0.3212
 6508TIP3   OH241158   1.377   6.742   0.300  0.0707  0.4007 -0.0372
 6508TIP3    H141159   1.432   6.727   0.377  0.1783 -0.3193 -0.2511
 6508TIP3    H241160   1.300   6.787   0.334  0.5001  0.8496  0.3591
 6509TIP3   OH241161   2.493   0.207   8.705  0.0995 -0.2899  0.0099
 6509TIP3    H141162   2.527   0.264   8.774  0.9171 -0.7098 -0.0291
 6509TIP3    H241163   2.437   0.264   8.652  0.6961  0.4168  0.1174
 6510TIP3   OH241164   0.518   0.006   0.874 -0.5628  0.2566  0.2076
 6510TIP3    H141165   0.608   0.038   0.881 -0.8983  1.1671  0.5369
 6510TIP3    H241166   0.496   0.016   0.781 -0.9106  1.7293  0.4246
 6511TIP3   OH241167   4.301   2.354   6.532 -0.2443  0.0358 -0.1829
 6511TIP3    H141168   4.289   2.287   6.465  0.0112 -0.0567 -0.1371
 6511TIP3    H241169   4.213   2.367   6.569 -0.3510 -0.0494 -0.4027
 6512TIP3   OH241170   2.302   3.651   6.876  0.0663 -0.5457 -0.1318
 6512TIP3    H141171   2.375   3.700   6.838  0.5275 -0.5488  0.7309
 6512TIP3    H241172   2.334   3.561   6.884  0.3859 -0.3331  1.2733
 6513TIP3   OH241173   0.073   5.209   1.109  0.2126 -0.5186 -0.5738
 6513TIP3    H141174   0.140   5.256   1.159 -0.3345 -1.0369  0.6871
 6513TIP3    H241175  -0.010   5.238   1.146 -0.2770 -0.0426 -1.9816
 6514TIP3   OH241176   0.762   1.832   0.638  0.0862  0.0743  0.1897
 6514TIP3    H141177   0.845   1.861   0.600 -0.0704 -2.3160 -2.3016
 6514TIP3    H241178   0.701   1.831   0.564 -2.6759  2.9943  2.1533
 6515TIP3   OH241179   3.553   2.075   6.809  0.0452 -0.0024  0.3248
 6515TIP3    H141180   3.591   2.130   6.877  2.0645 -2.6632  1.5375
 6515TIP3    H241181   3.527   1.995   6.854  2.0627 -2.1520 -1.9770
 6516TIP3   OH241182   3.349   1.494   6.925 -0.3118  0.1951 -0.5862
 6516TIP3    H141183   3.282   1.426   6.929  2.5029 -2.8188  1.9978
 6516TIP3    H241184   3.413   1.459   6.862  1.1040  0.4762  0.6517
 6517TIP3   OH241185   4.549   2.649   1.082 -0.2746  0.6884  0.1790
 6517TIP3    H141186   4.621   2.599   1.119 -1.7160 -0.0029  2.2195
 6517TIP3    H241187   4.531   2.606   0.998  1.0472  0.2866  0.0859
 6518TIP3   OH241188   5.724   6.764   7.475 -0.1728  0.3075  0.0047
 6518TIP3    H141189   5.687   6.805   7.553  3.3417  1.5449  1.2261
 6518TIP3    H241190   5.760   6.837   7.425  1.3045 -0.7956 -0.6169
 6519TIP3   OH241191   0.754   0.653   8.988 -0.0780 -0.3220 -0.8062
 6519TIP3    H141192   0.792   0.733   9.025  0.1958 -1.0997  0.7184
 6519TIP3    H241193   0.741   0.596   9.064 -3.5326 -0.4492 -1.3623
 6520TIP3   OH241194   4.161   0.487   8.260 -0.3330 -0.7931  0.1183
 6520TIP3    H141195   4.231   0.437   8.303  0.7150  2.3518  2.4891
 6520TIP3    H241196   4.084   0.472   8.315  0.1482  0.5849  1.2225
 6521TIP3   OH241197   2.588   5.547   5.902 -0.3920 -0.3829 -0.4582
 6521TIP3    H141198   2.605   5.455   5.883 -2.3827 -1.0291  0.6258
 6521TIP3    H241199   2.495   5.560   5.881  0.2892  1.9695 -2.6007
 6522TIP3   OH241200   4.127   3.028   1.989  0.3786 -0.1379  0.7341
 6522TIP3    H141201   4.125   2.933   1.975  0.3872 -0.1761  0.9852
 6522TIP3    H241202   4.219   3.052   1.975  0.6258 -0.3631  1.9111
 6523TIP3   OH241203   5.108   3.202   2.495 -0.0338 -0.0226 -0.3762
 6523TIP3    H141204   5.071   3.255   2.425 -0.8677 -1.6337 -1.2088
 6523TIP3    H241205   5.041   3.200   2.563 -0.1474 -0.3016 -0.4968
 6524TIP3   OH241206   5.717   3.585   1.021 -0.0498 -0.1061 -0.1488
 6524TIP3    H141207   5.695   3.589   1.114 -1.2922 -1.4769 -0.3439
 6524TIP3    H241208   5.737   3.675   0.997 -0.1396  0.3371  1.3416
 6525TIP3   OH241209   3.982   0.893   1.045  0.2221 -0.1559 -0.0048
 6525TIP3    H141210   3.937   0.820   1.003 -0.6876 -0.0310  0.7114
 6525TIP3    H241211   3.933   0.970   1.017 -0.4241 -0.0714  1.2634
 6526TIP3   OH241212   6.258   4.894   8.259 -0.0008 -0.5816 -0.3940
 6526TIP3    H141213   6.166   4.891   8.233  0.0320  0.3114 -0.6313
 6526TIP3    H241214   6.255   4.901   8.355 -0.1929 -0.0470 -0.4361
 6527TIP3   OH241215   5.412   2.093   0.394 -0.3036 -0.2967 -0.3360
 6527TIP3    H141216   5.483   2.093   0.331 -0.7002 -1.2686 -0.7984
 6527TIP3    H241217   5.337   2.058   0.347 -2.0212  3.4966 -0.8253
 6528TIP3   OH241218   6.324   2.562   2.044  0.8065 -0.0264 -0.1267
 6528TIP3    H141219   6.256   2.550   2.110 -0.6931  0.9384 -1.4240
 6528TIP3    H241220   6.392   2.613   2.088  0.9808 -1.4623  1.3464
 6529TIP3   OH241221   6.520   5.083   2.512  0.6291  0.4133  0.3841
 6529TIP3    H141222   6.542   5.012   2.452  0.1292  1.5723 -1.2492
 6529TIP3    H241223   6.598   5.138   2.514  1.6887 -1.0035  3.0331
 6530TIP3   OH241224   2.404   1.018   6.482  0.1335  0.4592  0.2741
 6530TIP3    H141225   2.323   1.061   6.508  1.6713  2.7265  1.7422
 6530TIP3    H241226   2.400   1.014   6.386 -1.6783  0.5152  0.3189
 6531TIP3   OH241227   4.565   1.978   7.251  0.5690 -0.0422  0.4327
 6531TIP3    H141228   4.535   1.943   7.168  0.1065 -0.6084  0.8324
 6531TIP3    H241229   4.609   2.060   7.228  0.3136 -0.1170 -0.3480
 6532TIP3   OH241230   5.471   5.012   7.396 -0.3476 -0.9096  0.0036
 6532TIP3    H141231   5.536   4.976   7.456  0.9276 -0.0409 -0.7840
 6532TIP3    H241232   5.510   5.000   7.309 -0.2963  1.4121 -0.3538
 6533TIP3   OH241233   0.307   3.014   7.394 -0.7151  0.0399  0.7488
 6533TIP3    H141234   0.290   3.038   7.485 -1.7078  2.1439  0.0516
 6533TIP3    H241235   0.223   2.980   7.362 -0.5568 -0.0225  0.3978
 6534TIP3   OH241236   6.249   4.038   1.288  0.3230  0.0122 -0.0870
 6534TIP3    H141237   6.247   4.124   1.246 -1.0374 -0.3618 -0.8520
 6534TIP3    H241238   6.291   3.980   1.224 -0.1327 -0.1953 -0.2022
 6535TIP3   OH241239   1.786   2.977   8.509  0.6898 -0.6559  0.1465
 6535TIP3    H141240   1.755   2.922   8.437 -0.0517 -0.0698  0.0030
 6535TIP3    H241241   1.835   2.917   8.565 -1.0304 -1.7528  0.5876
 6536TIP3   OH241242   5.543   1.352   8.074 -0.0204  0.1108 -0.6061
 6536TIP3    H141243   5.553   1.418   8.142 -1.4913 -1.4177  1.2113
 6536TIP3    H241244   5.454   1.365   8.041 -0.2864 -0.8812 -0.3035
 6537TIP3   OH241245   4.981   6.320   1.914 -0.5716  0.1620 -0.1698
 6537TIP3    H141246   5.047   6.322   1.982  0.0815 -0.7154 -0.7644
 6537TIP3    H241247   4.901   6.290   1.958  0.2302 -1.9876 -0.0751
 6538TIP3   OH241248   1.505   3.184   1.324  0.2284  0.2867 -0.5837
 6538TIP3    H141249   1.555   3.183   1.406  0.2729 -1.1405 -0.6037
 6538TIP3    H241250   1.430   3.240   1.342  1.9142  2.7241 -0.6295
 6539TIP3   OH241251   5.858   5.318   8.834  0.5327  0.8159  0.3849
 6539TIP3    H141252   5.766   5.305   8.855  0.5210  0.0337 -0.0983
 6539TIP3    H241253   5.903   5.244   8.876  0.6880  0.0915 -1.0076
 6540TIP3   OH241254   5.636   6.359   0.663 -0.7883 -0.2941  0.0377
 6540TIP3    H141255   5.637   6.450   0.634 -2.2063  0.0108  0.8146
 6540TIP3    H241256   5.545   6.343   0.688 -0.7388 -2.1819 -0.8378
 6541TIP3   OH241257   6.778   2.924   2.136 -0.5320  0.1942  0.3863
 6541TIP3    H141258   6.731   2.909   2.054 -0.3208  0.9028  0.1283
 6541TIP3    H241259   6.864   2.885   2.122 -0.2166  1.0199 -0.0334
 6542TIP3   OH241260   1.721   0.894   7.365 -0.5981 -0.3394  0.3418
 6542TIP3    H141261   1.775   0.972   7.360 -2.2232  0.7717 -2.9000
 6542TIP3    H241262   1.637   0.924   7.400 -0.5214 -1.1344  1.2480
 6543TIP3   OH241263   2.480   6.405   0.703 -0.4769  0.2587 -0.5231
 6543TIP3    H141264   2.407   6.412   0.641 -0.1590  0.1969 -0.9065
 6543TIP3    H241265   2.495   6.496   0.731 -1.2418  0.1747  0.1967
 6544TIP3   OH241266   3.565   0.735   8.785 -0.0942 -0.1126 -0.1748
 6544TIP3    H141267   3.510   0.724   8.707 -0.8087  0.4237  0.2316
 6544TIP3    H241268   3.515   0.796   8.840  0.1110 -0.9293  0.9578
 6545TIP3   OH241269   2.755   3.412   1.471  0.2193 -0.4060 -0.4906
 6545TIP3    H141270   2.701   3.432   1.395 -0.3841  1.6251  0.4056
 6545TIP3    H241271   2.742   3.486   1.530  0.4151 -2.0474  1.7565
 6546TIP3   OH241272   4.074   0.351   6.962 -0.2349  0.1853  0.0295
 6546TIP3    H141273   4.124   0.270   6.950  1.2833  1.4224 -2.7695
 6546TIP3    H241274   4.075   0.394   6.877 -2.3524  2.4529  1.0009
 6547TIP3   OH241275   0.145   5.946   8.294 -0.5014 -0.3502  0.0752
 6547TIP3    H141276   0.159   5.882   8.224  1.1324  0.6274 -0.5361
 6547TIP3    H241277   0.131   6.029   8.249 -0.4529  0.1145  0.8860
 6548TIP3   OH241278   0.686   4.746   0.549  0.0699  0.3621  0.0741
 6548TIP3    H141279   0.706   4.802   0.624  1.8165 -2.0020  1.5140
 6548TIP3    H241280   0.662   4.662   0.587 -2.9766  0.1392 -1.9976
 6549TIP3   OH241281   5.836   3.910   2.478  0.1185 -0.2851 -0.2373
 6549TIP3    H141282   5.776   3.931   2.407  2.2600  1.8389 -1.5823
 6549TIP3    H241283   5.797   3.949   2.556 -1.6110 -1.5023 -0.4414
 6550TIP3   OH241284   1.550   2.742   8.514 -0.0606  0.5380  0.1636
 6550TIP3    H141285   1.580   2.769   8.428  0.3416 -1.7002 -0.4605
 6550TIP3    H241286   1.468   2.789   8.527  1.5576  3.6412  0.1529
 6551TIP3   OH241287   2.529   4.498   6.330 -0.1105  0.3639  0.1030
 6551TIP3    H141288   2.621   4.526   6.336 -0.2848  1.0040 -0.1810
 6551TIP3    H241289   2.491   4.554   6.263 -0.6904  0.0329  0.1513
 6552TIP3   OH241290   3.006   4.484   8.257  0.1579  0.1961  0.2555
 6552TIP3    H141291   3.069   4.501   8.187  0.8095  0.2175  0.8389
 6552TIP3    H241292   2.993   4.389   8.255 -1.6972  0.4315 -1.4739
 6553TIP3   OH241293   3.143   3.636   6.930 -0.0555 -0.5253  0.8264
 6553TIP3    H141294   3.130   3.692   7.006  0.0817 -0.4046  0.7592
 6553TIP3    H241295   3.072   3.571   6.936 -0.1036 -0.4557  1.0018
 6554TIP3   OH241296   3.782   1.285   6.417 -0.4697  0.1891 -0.3816
 6554TIP3    H141297   3.701   1.255   6.457  0.4764  0.4919  1.9368
 6554TIP3    H241298   3.797   1.224   6.345 -2.2513 -0.4540 -0.2534
 6555TIP3   OH241299   6.519   3.036   8.450 -0.0223 -0.1806 -0.1426
 6555TIP3    H141300   6.480   3.090   8.381 -1.6616 -1.1485 -0.0181
 6555TIP3    H241301   6.595   2.995   8.408 -0.5540 -0.1685 -1.1552
 6556TIP3   OH241302   0.197   1.217   8.503  0.3498  0.1005 -0.9431
 6556TIP3    H141303   0.148   1.140   8.476  0.4872 -0.0670 -0.7100
 6556TIP3    H241304   0.287   1.187   8.513  0.0002 -0.3186  1.6202
 6557TIP3   OH241305   3.814   1.666   8.782  0.1392 -0.4127  0.0477
 6557TIP3    H141306   3.771   1.750   8.767 -0.3806 -0.7859 -0.6386
 6557TIP3    H241307   3.849   1.642   8.696 -0.6821 -1.4079 -0.0314
 6558TIP3   OH241308   5.430   0.226   0.191 -0.0088  0.5458  0.0709
 6558TIP3    H141309   5.486   0.149   0.200  0.6737  0.9205 -0.7775
 6558TIP3    H241310   5.378   0.209   0.113 -0.1204  0.7800  0.0924
 6559TIP3   OH241311   4.054   3.518   1.502  0.3322  0.1342  0.6051
 6559TIP3    H141312   4.107   3.530   1.581  0.6603 -2.9872  0.9713
 6559TIP3    H241313   3.977   3.573   1.517 -0.4010 -1.5505  3.9298
 6560TIP3   OH241314   2.319   0.333   8.162 -0.3191 -0.4629  0.1971
 6560TIP3    H141315   2.361   0.334   8.248 -3.1057  0.0886  1.6816
 6560TIP3    H241316   2.343   0.248   8.125  2.0050 -0.1781  0.9065
 6561TIP3   OH241317   6.271   4.889   1.916  0.1616  0.5101  0.1760
 6561TIP3    H141318   6.322   4.888   1.835  1.2958  1.3861  0.8415
 6561TIP3    H241319   6.226   4.974   1.915 -0.3156  0.2624  0.1809
 6562TIP3   OH241320   0.191   1.405   1.066 -0.2873 -0.0130 -0.2703
 6562TIP3    H141321   0.098   1.427   1.056 -0.3692  0.1146  0.7026
 6562TIP3    H241322   0.218   1.451   1.145  0.3848 -0.7778 -0.0462
 6563TIP3   OH241323   5.017   1.247   7.235 -0.0846 -0.2442 -0.5453
 6563TIP3    H141324   5.013   1.153   7.214 -0.6101 -0.2950 -0.2598
 6563TIP3    H241325   5.107   1.261   7.264 -0.2203 -0.8563  0.2424
 6564TIP3   OH241326   4.972   0.154   1.178 -0.5496  0.0444  0.0305
 6564TIP3    H141327   4.908   0.205   1.128 -0.5395  0.8570  0.8070
 6564TIP3    H241328   5.056   0.175   1.137 -0.4558  1.2507  0.7737
 6565TIP3   OH241329   3.502   1.086   1.575 -0.1428 -0.5454  0.1228
 6565TIP3    H141330   3.427   1.035   1.606  0.6480 -1.4693  0.5537
 6565TIP3    H241331   3.556   1.024   1.527 -0.3322  0.4292 -1.4124
 6566TIP3   OH241332   4.413   2.787   8.782  0.2416  0.3340  0.4742
 6566TIP3    H141333   4.321   2.782   8.809  0.5894 -2.5666  1.3686
 6566TIP3    H241334   4.409   2.784   8.687 -0.5977  1.2751  0.4516
 6567TIP3   OH241335   6.779   5.199   2.521  0.2229 -0.5105  0.1628
 6567TIP3    H141336   6.859   5.250   2.524  0.8776 -1.3542 -1.4810
 6567TIP3    H241337   6.781   5.145   2.600  0.3352  0.7791  1.0643
 6568TIP3   OH241338   6.134   2.734   8.109  0.7335  0.0465 -0.3739
 6568TIP3    H141339   6.164   2.802   8.170  0.0171 -0.6578  0.8006
 6568TIP3    H241340   6.192   2.660   8.126 -0.4262 -0.6826  0.5979
 6569TIP3   OH241341   4.128   3.291   0.853  0.0738  0.2771  0.0736
 6569TIP3    H141342   4.086   3.358   0.800  2.0282  1.7428  0.2544
 6569TIP3    H241343   4.207   3.267   0.804 -0.9469 -2.5573 -0.3846
 6570TIP3   OH241344   1.914   3.960   7.982  0.3942 -0.2477  0.0120
 6570TIP3    H141345   1.822   3.984   7.981  0.4236 -0.0042  1.2924
 6570TIP3    H241346   1.915   3.864   7.972 -0.0302 -0.3138  0.5874
 6571TIP3   OH241347   3.807   5.504   0.159 -0.3746 -0.5184 -0.2182
 6571TIP3    H141348   3.885   5.455   0.131  0.7898 -0.2267  2.2769
 6571TIP3    H241349   3.837   5.595   0.165 -0.6504 -0.5085  1.4824
 6572TIP3   OH241350   5.584   6.420   1.039 -0.4525  0.1774  0.2132
 6572TIP3    H141351   5.635   6.348   1.077 -1.9200 -2.5348 -2.4724
 6572TIP3    H241352   5.619   6.499   1.080  4.3057 -1.6133  0.2252
 6573TIP3   OH241353   2.460   1.575   1.079  0.1717 -0.4008  0.4329
 6573TIP3    H141354   2.448   1.488   1.118 -0.0214  0.4294  2.3273
 6573TIP3    H241355   2.534   1.564   1.018  0.7246 -1.6890  1.2926
 6574TIP3   OH241356   3.668   6.223   6.422  0.1004 -0.0458 -0.5041
 6574TIP3    H141357   3.762   6.207   6.418 -0.1760 -1.6301 -1.7843
 6574TIP3    H241358   3.628   6.141   6.392 -1.6834  0.6691 -0.2263
 6575TIP3   OH241359   1.897   3.166   1.476  0.6081  1.1185 -0.4492
 6575TIP3    H141360   1.902   3.074   1.449  0.4230  1.1967 -0.7638
 6575TIP3    H241361   1.824   3.169   1.538  0.9375  0.9627 -0.0581
 6576TIP3   OH241362   0.610   2.890   7.894  0.9170  0.1618  0.1699
 6576TIP3    H141363   0.611   2.817   7.832  1.1506  0.4996 -0.2261
 6576TIP3    H241364   0.582   2.965   7.843  0.1065  0.2406  0.7126
 6577TIP3   OH241365   4.614   0.540   8.248 -0.3064 -0.6782 -0.8688
 6577TIP3    H141366   4.548   0.568   8.184  0.6438 -0.9276 -1.9951
 6577TIP3    H241367   4.574   0.464   8.292 -1.2248 -0.1126 -0.7113
 6578TIP3   OH241368   0.288   0.759   6.449 -0.8997  0.2024  0.0485
 6578TIP3    H141369   0.315   0.828   6.510  0.8610 -0.0813 -0.3368
 6578TIP3    H241370   0.305   0.796   6.362  1.4411 -1.1331 -0.1552
 6579TIP3   OH241371   4.918   4.014   1.788  0.0979  0.7531  0.3852
 6579TIP3    H141372   4.847   3.976   1.737 -0.5245  1.1539  0.9330
 6579TIP3    H241373   4.891   4.003   1.879  1.0426  0.3305  0.6234
 6580TIP3   OH241374   0.373   4.802   1.695 -0.1914 -0.1796 -0.4263
 6580TIP3    H141375   0.449   4.852   1.724  0.0226 -1.9352  2.3693
 6580TIP3    H241376   0.299   4.839   1.743 -0.1959 -1.7858  0.8897
 6581TIP3   OH241377   1.264   0.293   6.883 -0.2234 -0.0993 -0.4825
 6581TIP3    H141378   1.336   0.253   6.834 -0.2634  0.3693 -0.9374
 6581TIP3    H241379   1.199   0.223   6.893  0.1204 -0.4090 -0.4315
 6582TIP3   OH241380   1.946   3.179   1.891  0.5647 -0.1916 -0.1476
 6582TIP3    H141381   2.017   3.135   1.939  0.6612  2.0252  1.9026
 6582TIP3    H241382   1.881   3.110   1.876  1.3489 -1.3867  1.5965
 6583TIP3   OH241383   2.538   0.422   8.349  0.0915 -0.0337 -0.5174
 6583TIP3    H141384   2.520   0.501   8.296 -0.4784 -0.4212 -0.9135
 6583TIP3    H241385   2.549   0.456   8.438 -0.3352  0.4827 -0.6491
 6584TIP3   OH241386   4.906   4.013   8.852  0.3912  0.6520  0.3841
 6584TIP3    H141387   4.958   4.088   8.826  2.1228 -0.0312  1.7047
 6584TIP3    H241388   4.919   4.006   8.947 -2.1818  0.4730  0.8012
 6585TIP3   OH241389   3.469   0.676   7.568  0.0519 -0.0177 -0.7121
 6585TIP3    H141390   3.496   0.758   7.610 -0.1172  0.3278 -1.2755
 6585TIP3    H241391   3.524   0.609   7.609  1.6118  0.6424 -1.6754
 6586TIP3   OH241392   5.475   1.101   8.265  0.3013 -0.3091  0.4467
 6586TIP3    H141393   5.412   1.125   8.333 -0.4772  0.5922 -0.5642
 6586TIP3    H241394   5.539   1.045   8.311 -0.9365 -0.8439  1.5936
 6587TIP3   OH241395   5.113   4.270   1.787  0.1663 -0.1459 -0.4729
 6587TIP3    H141396   5.095   4.339   1.851  1.6429 -0.6649  0.5566
 6587TIP3    H241397   5.041   4.208   1.799  0.8900 -0.7131  1.4381
 6588TIP3   OH241398   3.572   4.742   1.139  0.3911  0.2337 -0.1311
 6588TIP3    H141399   3.543   4.788   1.217 -0.3903  1.0010 -0.8455
 6588TIP3    H241400   3.667   4.750   1.139  0.2872  1.6610 -0.1208
 6589TIP3   OH241401   2.539   0.694   7.822  0.3658 -0.4079  0.5748
 6589TIP3    H141402   2.560   0.713   7.730  0.4326 -2.5211  0.1160
 6589TIP3    H241403   2.612   0.642   7.854 -0.5117 -1.2517  1.2702
 6590TIP3   OH241404   5.988   4.600   0.076  0.1539  0.3830  0.2926
 6590TIP3    H141405   5.932   4.543   0.128  2.3011 -0.5676  1.6909
 6590TIP3    H241406   6.027   4.542   0.011 -0.6739  1.1037 -0.8895
 6591TIP3   OH241407   5.855   2.932   1.655  0.9625  0.2522  0.0921
 6591TIP3    H141408   5.802   2.852   1.646  1.9495 -0.4807  0.5306
 6591TIP3    H241409   5.838   2.981   1.575  1.6821 -1.2451 -1.0309
 6592TIP3   OH241410   4.612   2.719   7.912  0.0241 -0.1737 -0.3666
 6592TIP3    H141411   4.559   2.798   7.902 -0.7321 -0.5077  0.8075
 6592TIP3    H241412   4.666   2.735   7.989 -0.7080 -1.0946  0.3676
 6593TIP3   OH241413   5.459   3.895   2.475 -0.5100  0.6677 -0.4028
 6593TIP3    H141414   5.395   3.862   2.538 -2.3964  1.8045 -1.6541
 6593TIP3    H241415   5.467   3.825   2.410  0.7561 -0.1207  0.5345
 6594TIP3   OH241416   6.157   4.263   1.111 -0.3150  0.1480 -0.0133
 6594TIP3    H141417   6.072   4.295   1.141  0.3784  1.7656  0.3304
 6594TIP3    H241418   6.193   4.336   1.061  1.4325 -0.0100  0.9613
 6595TIP3   OH241419   4.611   0.363   8.511  0.7930 -0.1670  0.2160
 6595TIP3    H141420   4.611   0.301   8.438  1.0927 -0.4074  0.4189
 6595TIP3    H241421   4.696   0.352   8.553  0.6804  0.0731  0.5186
 6596TIP3   OH241422   4.266   0.376   2.266 -0.0991 -0.0548 -0.0737
 6596TIP3    H141423   4.278   0.447   2.329  0.8557 -1.0480  0.8970
 6596TIP3    H241424   4.222   0.417   2.192  0.8189  1.6453  0.2791
 6597TIP3   OH241425   6.553   5.441   0.980 -0.3184 -0.1642  0.2358
 6597TIP3    H141426   6.589   5.353   0.968  0.8125  0.3872 -0.6341
 6597TIP3    H241427   6.572   5.486   0.897  0.9428  1.5226  1.3831
 6598TIP3   OH241428   2.726   5.083   0.680  0.0883 -0.2783 -0.3847
 6598TIP3    H141429   2.717   5.046   0.592  2.2630  1.2076 -1.3500
 6598TIP3    H241430   2.688   5.018   0.738 -2.4941 -0.8263 -2.4715
 6599TIP3   OH241431   4.981   1.773   7.534  0.2737 -0.0824 -0.5260
 6599TIP3    H141432   4.904   1.786   7.479 -1.6223  0.1655  2.0144
 6599TIP3    H241433   5.037   1.714   7.483 -0.3575  1.7252 -3.5402
 6600TIP3   OH241434   3.374   3.358   1.575 -0.2881 -0.3506  0.6628
 6600TIP3    H141435   3.385   3.306   1.655  1.2267 -0.7857  0.2029
 6600TIP3    H241436   3.440   3.427   1.582  0.5650 -0.9926 -0.6581
 6601TIP3   OH241437   3.154   2.761   0.482  0.0310  0.1326 -0.3926
 6601TIP3    H141438   3.101   2.727   0.554 -0.4745  1.1086 -0.2936
 6601TIP3    H241439   3.160   2.855   0.499  0.1900  0.3222 -1.4422
 6602TIP3   OH241440   2.299   2.605   7.033  1.3449  0.0724  0.0582
 6602TIP3    H141441   2.321   2.556   6.953  0.8284 -0.3918  0.1950
 6602TIP3    H241442   2.348   2.560   7.102 -1.0419 -1.8759  0.6108
 6603TIP3   OH241443   4.583   0.759   1.817  0.1148  0.2497 -0.3312
 6603TIP3    H141444   4.542   0.842   1.792 -0.7491  0.0178  0.2889
 6603TIP3    H241445   4.523   0.720   1.880  1.0098 -0.3839  0.1482
 6604TIP3   OH241446   3.617   3.533   1.631 -0.3153  0.2301  0.6515
 6604TIP3    H141447   3.609   3.487   1.714 -2.0588  0.2038  0.5002
 6604TIP3    H241448   3.571   3.616   1.644  0.5384  0.8091  0.1080
 6605TIP3   OH241449   0.574   3.739   0.461  0.1813 -0.4806  0.3773
 6605TIP3    H141450   0.482   3.717   0.448 -0.2361  1.7787 -0.7976
 6605TIP3    H241451   0.618   3.705   0.383  0.3555 -1.3816  0.8465
 6606TIP3   OH241452   2.071   0.901   0.161 -0.1719  0.2785  0.2972
 6606TIP3    H141453   2.052   0.910   0.255 -0.3386  2.1335  0.1285
 6606TIP3    H241454   2.155   0.945   0.150  0.4446 -0.9853 -0.2590
 6607TIP3   OH241455   6.315   5.249   7.959 -0.1282 -0.6412 -0.3303
 6607TIP3    H141456   6.408   5.239   7.940 -0.2045  1.7128 -2.3866
 6607TIP3    H241457   6.310   5.250   8.054  1.8767 -1.1667 -0.1712
 6608TIP3   OH241458   1.923   5.581   0.457  0.3150 -0.8300  0.5451
 6608TIP3    H141459   2.000   5.559   0.509  0.1456  0.5335  1.4026
 6608TIP3    H241460   1.865   5.627   0.518  0.0509  0.6834 -0.7842
 6609TIP3   OH241461   4.330   6.146   8.445 -0.0947  0.1085 -0.3061
 6609TIP3    H141462   4.252   6.120   8.495 -2.1180  0.2240 -3.1727
 6609TIP3    H241463   4.330   6.241   8.450  0.4579  0.0802  0.4600
 6610TIP3   OH241464   0.473   4.979   0.718  0.9822 -0.2245  0.0548
 6610TIP3    H141465   0.565   5.006   0.722  1.0961 -0.6961  0.7496
 6610TIP3    H241466   0.432   5.020   0.794  0.4120  0.7003 -0.7324
 6611TIP3   OH241467   2.700   5.602   0.733 -0.6213  0.0522 -0.3529
 6611TIP3    H141468   2.621   5.655   0.724  0.4611  2.0323  1.0508
 6611TIP3    H241469   2.769   5.665   0.755  0.5757 -1.9664  2.3599
 6612TIP3   OH241470   0.040   4.123   1.680 -0.0280 -0.0485 -0.1190
 6612TIP3    H141471   0.003   4.210   1.665 -0.2423 -0.4919 -2.7803
 6612TIP3    H241472   0.131   4.139   1.706 -0.2718  0.9658  0.1560
 6613TIP3   OH241473   4.062   4.078   0.177  0.2363 -0.3411 -0.5328
 6613TIP3    H141474   4.061   3.983   0.163 -0.7921 -0.5903  1.0167
 6613TIP3    H241475   4.149   4.096   0.213  0.2390 -0.7744 -0.3191
 6614TIP3   OH241476   5.338   4.572   2.225  0.0996  0.0941 -0.0730
 6614TIP3    H141477   5.417   4.624   2.241 -1.1524  1.6336  1.5788
 6614TIP3    H241478   5.329   4.519   2.304  0.1447 -1.0058 -0.7967
 6615TIP3   OH241479   1.559   3.402   1.132  0.0183  0.2444  0.9094
 6615TIP3    H141480   1.491   3.345   1.096  1.6032 -0.5132 -1.1196
 6615TIP3    H241481   1.562   3.379   1.225 -0.6754 -1.6617  0.5191
 6616TIP3   OH241482   3.932   0.291   8.872  0.2769  0.0141 -0.2113
 6616TIP3    H141483   3.989   0.258   8.803  0.3397  0.3081 -0.2993
 6616TIP3    H241484   3.991   0.333   8.935  0.2445 -0.4502  0.1388
 6617TIP3   OH241485   1.394   4.070   1.326 -0.1051 -0.1635 -0.3692
 6617TIP3    H141486   1.316   4.021   1.353 -0.6026  0.5009 -0.5566
 6617TIP3    H241487   1.466   4.031   1.375 -0.5813 -0.6980 -0.0869
 6618TIP3   OH241488   5.351   2.357   1.803  0.0488 -0.2361 -0.8146
 6618TIP3    H141489   5.398   2.407   1.870  0.8611  0.0960 -1.6154
 6618TIP3    H241490   5.417   2.340   1.735 -0.0715 -2.7788 -0.3902
 6619TIP3   OH241491   2.903   1.643   7.493  0.3787 -0.1917  0.2102
 6619TIP3    H141492   2.846   1.637   7.569  1.6858 -1.0534  1.1539
 6619TIP3    H241493   2.846   1.677   7.423 -0.9743  0.0817  1.4035
 6620TIP3   OH241494   5.352   3.904   0.654 -0.7139 -0.8863  0.6390
 6620TIP3    H141495   5.290   3.895   0.582  0.2197  1.1435 -0.5072
 6620TIP3    H241496   5.427   3.849   0.628  0.0934  0.7084 -0.5565
 6621TIP3   OH241497   0.651   2.141   0.638  0.1542  0.0164 -0.1553
 6621TIP3    H141498   0.610   2.227   0.631  1.3545  0.5292 -1.1431
 6621TIP3    H241499   0.636   2.100   0.553  1.6871  0.2300 -0.5474
 6622TIP3   OH241500   5.400   2.678   7.560  0.1831 -0.5429 -0.2708
 6622TIP3    H141501   5.389   2.587   7.534  0.7783 -1.0265  1.0585
 6622TIP3    H241502   5.445   2.673   7.645 -0.4752  0.9558  0.1964
 6623TIP3   OH241503   3.968   6.372   0.615  0.2248  0.1123  1.0301
 6623TIP3    H141504   3.893   6.354   0.558  1.3469 -1.9383  0.0981
 6623TIP3    H241505   3.999   6.458   0.587 -1.6810  0.9462  1.3569
 6624TIP3   OH241506   5.604   2.604   7.767  0.1305  0.4594  0.2187
 6624TIP3    H141507   5.651   2.521   7.774  0.4327  0.5929 -0.1914
 6624TIP3    H241508   5.538   2.600   7.836 -1.8122 -1.3640 -1.5949
 6625TIP3   OH241509   2.017   3.228   8.836 -0.1608  0.5301  0.0412
 6625TIP3    H141510   2.079   3.191   8.773  0.0112 -0.1364  0.5821
 6625TIP3    H241511   1.931   3.217   8.795 -0.1441 -0.8042  0.3199
 6626TIP3   OH241512   1.040   4.481   6.905  0.0522  0.2565 -0.0805
 6626TIP3    H141513   0.984   4.513   6.975 -1.8024  0.3508 -1.5466
 6626TIP3    H241514   1.110   4.546   6.898  1.7079 -0.9465  3.2037
 6627TIP3   OH241515   6.680   2.962   0.884 -0.2058 -0.0237 -0.3776
 6627TIP3    H141516   6.698   2.963   0.790 -2.3391  0.1342 -0.8330
 6627TIP3    H241517   6.729   2.887   0.918  0.2414 -0.3395 -1.6829
 6628TIP3   OH241518   2.710   6.532   2.205  0.1341  0.2298  0.2880
 6628TIP3    H141519   2.618   6.542   2.230 -0.3318 -0.1487 -1.1961
 6628TIP3    H241520   2.715   6.446   2.163  0.3469  1.6476 -2.8820
 6629TIP3   OH241521   5.224   1.272   1.712 -0.2095 -0.2824 -0.3387
 6629TIP3    H141522   5.272   1.297   1.634 -0.8197 -1.7334 -1.2147
 6629TIP3    H241523   5.259   1.329   1.781 -0.1221  1.4795 -1.7753
 6630TIP3   OH241524   3.138   2.477   7.651  0.2887  0.3596 -0.2917
 6630TIP3    H141525   3.142   2.545   7.719  1.4535 -1.3818  1.4911
 6630TIP3    H241526   3.097   2.402   7.694  2.9728 -1.5332 -0.7221
 6631TIP3   OH241527   5.528   0.205   7.456  0.2602 -0.4371 -0.0837
 6631TIP3    H141528   5.483   0.212   7.372  2.1588  0.4989 -1.0729
 6631TIP3    H241529   5.457   0.195   7.520 -1.2664 -0.3935 -1.6903
 6632TIP3   OH241530   5.340   4.417   0.423  0.0560 -0.4036  0.2463
 6632TIP3    H141531   5.312   4.327   0.442 -0.6164 -0.0010  1.2821
 6632TIP3    H241532   5.345   4.459   0.509 -0.3730  0.7513 -0.2672
 6633TIP3   OH241533   1.677   0.132   7.802  0.2364  0.0555  0.4030
 6633TIP3    H141534   1.621   0.057   7.781 -0.9558  0.8688  0.6011
 6633TIP3    H241535   1.644   0.203   7.748  2.5311  0.0301 -1.1862
 6634TIP3   OH241536   4.269   1.227   7.762  0.4180  0.3066 -0.2911
 6634TIP3    H141537   4.352   1.197   7.723  0.5536  0.4659 -0.1266
 6634TIP3    H241538   4.202   1.187   7.708  0.5935 -0.5966  0.1378
 6635TIP3   OH241539   1.185   3.675   1.760 -0.0129  0.2282 -0.7113
 6635TIP3    H141540   1.109   3.651   1.813  0.5010 -2.3104 -1.0206
 6635TIP3    H241541   1.147   3.701   1.675 -0.7060  2.6260  0.2351
 6636TIP3   OH241542   0.211   3.135   1.121  0.6927  0.0159 -0.5316
 6636TIP3    H141543   0.221   3.188   1.200 -0.5568  0.7497 -0.8352
 6636TIP3    H241544   0.118   3.144   1.097  0.5689 -1.8103 -0.9521
 6637TIP3   OH241545   2.776   3.460   8.828 -0.2046 -0.6986 -0.6701
 6637TIP3    H141546   2.713   3.494   8.764 -0.5195 -1.7268 -0.9251
 6637TIP3    H241547   2.856   3.444   8.778  0.1520  0.2272 -0.4250
 6638TIP3   OH241548   3.947   2.420   0.128  0.2215 -0.2297  0.2798
 6638TIP3    H141549   3.930   2.514   0.124  0.5370 -0.1802  0.0486
 6638TIP3    H241550   3.861   2.380   0.139 -0.0697  0.0090 -0.9635
 6639TIP3   OH241551   1.347   6.714   6.973 -0.2913 -0.6745  0.7781
 6639TIP3    H141552   1.409   6.765   6.921  0.5466 -0.9935  1.4491
 6639TIP3    H241553   1.282   6.684   6.909 -0.5140  0.7690  0.2862
 6640TIP3   OH241554   2.102   1.702   2.207 -0.2117 -0.0374  0.4823
 6640TIP3    H141555   2.164   1.630   2.223  1.4858  0.9922 -1.0709
 6640TIP3    H241556   2.149   1.761   2.149 -2.4028  1.2199 -0.1119
 6641TIP3   OH241557   3.129   5.595   6.288 -0.7024  1.0014  0.1638
 6641TIP3    H141558   3.192   5.524   6.302 -0.9844  0.1469 -2.4080
 6641TIP3    H241559   3.180   5.665   6.248 -0.8563  1.4716  0.7609
 6642TIP3   OH241560   5.928   2.346   0.073 -0.0517 -0.2857 -0.0085
 6642TIP3    H141561   5.857   2.337   0.010  0.9606 -2.9447 -0.8808
 6642TIP3    H241562   6.003   2.303   0.032  1.7080  1.1926  1.4651
 6643TIP3   OH241563   5.075   4.251   8.429  0.1116  0.3473  0.8164
 6643TIP3    H141564   4.999   4.270   8.484  0.5829 -0.0717  1.6300
 6643TIP3    H241565   5.093   4.333   8.384 -0.5629  0.5693  0.9466
 6644TIP3   OH241566   0.394   4.477   7.168  0.3583 -0.4908  0.2279
 6644TIP3    H141567   0.459   4.435   7.224  2.1302  0.1209 -1.2952
 6644TIP3    H241568   0.443   4.511   7.094 -1.6639  0.2756 -0.8559
 6645TIP3   OH241569   1.568   4.223   0.192 -0.1375  0.2175 -0.2660
 6645TIP3    H141570   1.618   4.163   0.137 -2.1282 -0.9205 -0.9505
 6645TIP3    H241571   1.514   4.272   0.131 -0.0797  1.2067  0.4569
 6646TIP3   OH241572   6.706   3.381   2.343  0.1450  0.1969  0.1029
 6646TIP3    H141573   6.616   3.363   2.315  0.6321 -1.0796 -0.7223
 6646TIP3    H241574   6.760   3.327   2.286  1.3886  0.2143  1.2265
 6647TIP3   OH241575   2.484   5.441   0.343 -0.2291 -0.7990 -0.0265
 6647TIP3    H141576   2.491   5.445   0.438 -0.2299 -2.1401  0.0498
 6647TIP3    H241577   2.572   5.418   0.313  0.1988  1.2724 -0.4994
 6648TIP3   OH241578   4.864   4.709   8.853 -0.0542 -1.1138  0.5812
 6648TIP3    H141579   4.831   4.667   8.774 -1.0343 -2.3639  1.5971
 6648TIP3    H241580   4.786   4.721   8.908  0.3627  1.1347  0.7708
 6649TIP3   OH241581   4.754   5.421   8.263  0.4758 -0.3989 -0.0506
 6649TIP3    H141582   4.770   5.503   8.216 -0.2203  0.1880  0.6977
 6649TIP3    H241583   4.841   5.390   8.288  0.6916  0.7515  0.6988
 6650TIP3   OH241584   2.287   1.215   1.289  0.2666 -0.7265  0.3846
 6650TIP3    H141585   2.208   1.266   1.304  1.3913  0.7615  1.5900
 6650TIP3    H241586   2.260   1.146   1.229 -1.8473 -0.0585  0.4846
 6651TIP3   OH241587   1.192   3.496   2.536 -0.1628  0.1431  0.2873
 6651TIP3    H141588   1.280   3.511   2.570  0.2961 -1.2045 -0.2394
 6651TIP3    H241589   1.206   3.444   2.456 -1.3930  0.5272 -0.2015
 6652TIP3   OH241590   5.699   6.417   8.988 -0.0283  0.1259 -0.6525
 6652TIP3    H141591   5.702   6.327   8.957 -0.4410  0.0775 -0.5561
 6652TIP3    H241592   5.710   6.411   9.083 -0.4972  0.1382 -0.5933
 6653TIP3   OH241593   5.041   0.810   0.149  0.9998 -0.1075  0.3672
 6653TIP3    H141594   4.976   0.751   0.111  0.8248  1.3691 -1.8063
 6653TIP3    H241595   5.113   0.753   0.174  0.5904 -1.3409 -1.0868
 6654TIP3   OH241596   1.433   0.212   1.445 -0.3851  0.1853  0.1507
 6654TIP3    H141597   1.434   0.288   1.504  1.6495  0.2512  0.0908
 6654TIP3    H241598   1.497   0.152   1.482  0.1237 -0.2587 -1.3960
 6655TIP3   OH241599   4.450   5.980   1.521 -0.4954 -0.4242  0.1048
 6655TIP3    H141600   4.456   6.036   1.443  0.6632 -1.6254 -0.7162
 6655TIP3    H241601   4.357   5.980   1.544 -0.4845  2.2044  0.4500
 6656TIP3   OH241602   3.322   2.050   0.392 -0.2246 -0.2391 -0.3235
 6656TIP3    H141603   3.276   2.043   0.476  0.1724 -0.2593 -0.1035
 6656TIP3    H241604   3.292   2.133   0.355  0.4886  0.3606  0.3964
 6657TIP3   OH241605   4.398   0.899   0.539 -0.2574 -0.6110  0.3696
 6657TIP3    H141606   4.376   0.990   0.520  0.3574 -0.4268  0.4930
 6657TIP3    H241607   4.364   0.883   0.627 -1.8187 -1.0137 -0.2814
 6658TIP3   OH241608   3.475   1.925   8.019 -0.0998  0.5439  0.2677
 6658TIP3    H141609   3.486   1.842   8.065  1.7836 -0.9782 -2.6313
 6658TIP3    H241610   3.556   1.936   7.970 -2.0192  1.8043 -2.9157
 6659TIP3   OH241611   5.625   5.299   1.288  0.1089  0.0499  0.3590
 6659TIP3    H141612   5.648   5.391   1.303  0.6755 -0.2862  1.7487
 6659TIP3    H241613   5.618   5.291   1.193  1.6159  1.1761  0.1123
 6660TIP3   OH241614   2.610   0.275   0.965 -0.0308  0.1945  0.0023
 6660TIP3    H141615   2.537   0.256   1.023  0.6779  1.3776  1.3583
 6660TIP3    H241616   2.681   0.303   1.023  1.0116  0.5745 -1.3731
 6661TIP3   OH241617   3.118   0.432   2.054 -0.1424 -0.0710 -0.0532
 6661TIP3    H141618   3.084   0.520   2.038  0.5280 -0.2256 -2.9904
 6661TIP3    H241619   3.051   0.374   2.018  0.7458 -0.5878 -0.9217
 6662TIP3   OH241620   1.724   4.938   1.288  0.4298  0.2136  0.0576
 6662TIP3    H141621   1.669   5.012   1.317  0.6661  0.1118  0.7909
 6662TIP3    H241622   1.662   4.866   1.277  0.5802 -0.4234  2.6564
 6663TIP3   OH241623   2.108   0.265   7.371 -0.0596  0.3508 -0.1270
 6663TIP3    H141624   2.112   0.169   7.376  1.0561  0.2801 -1.7630
 6663TIP3    H241625   2.191   0.294   7.409 -0.5609  0.6988  0.7164
 6664TIP3   OH241626   0.454   4.164   8.453  0.0219 -0.3501  0.2706
 6664TIP3    H141627   0.510   4.100   8.498 -0.9119 -2.3388 -1.2726
 6664TIP3    H241628   0.365   4.140   8.479 -0.4846 -1.0292 -1.8947
 6665TIP3   OH241629   2.373   4.474   0.264  0.9901  0.3855  0.5166
 6665TIP3    H141630   2.452   4.489   0.316  1.6344  1.3871 -0.6959
 6665TIP3    H241631   2.402   4.483   0.173 -0.7843  2.2481  0.0484
 6666TIP3   OH241632   2.774   6.725   7.370  0.3098  0.3889 -0.3794
 6666TIP3    H141633   2.835   6.798   7.384 -2.0260  2.7511 -1.7741
 6666TIP3    H241634   2.714   6.729   7.445 -1.2223  1.4715 -1.6028
 6667TIP3   OH241635   2.297   4.622   8.535 -0.1369  0.7679 -0.6374
 6667TIP3    H141636   2.297   4.541   8.484  0.1711  0.4866 -0.1953
 6667TIP3    H241637   2.302   4.691   8.469 -0.2550  0.4278 -1.0124
 6668TIP3   OH241638   1.907   5.098   7.656  0.1725  0.1944 -0.1198
 6668TIP3    H141639   1.879   5.183   7.622  1.6509  1.4322  1.5909
 6668TIP3    H241640   1.961   5.061   7.586 -0.0249  0.8891 -0.6545
 6669TIP3   OH241641   4.594   5.534   1.181  0.4023 -0.3073 -0.1264
 6669TIP3    H141642   4.517   5.589   1.167  0.3173 -0.5996 -0.8590
 6669TIP3    H241643   4.587   5.465   1.115  2.1094  0.5512 -1.2759
 6670TIP3   OH241644   3.042   6.199   1.792  0.1314 -0.3610 -0.1445
 6670TIP3    H141645   3.128   6.214   1.831 -0.4458 -0.8974  1.3973
 6670TIP3    H241646   3.034   6.104   1.785 -1.3977 -0.5016  2.3475
 6671TIP3   OH241647   0.642   6.316   7.352 -0.0425 -0.0603 -0.2404
 6671TIP3    H141648   0.604   6.326   7.439  0.1682 -1.8592  0.0918
 6671TIP3    H241649   0.575   6.269   7.302 -0.1534  0.9313 -1.0765
 6672TIP3   OH241650   0.674   5.485   2.166  0.1828 -0.7714 -0.2011
 6672TIP3    H141651   0.631   5.492   2.080  1.5799  0.4110 -0.8603
 6672TIP3    H241652   0.739   5.555   2.165  3.1541 -3.3162  0.1235
 6673TIP3   OH241653   6.312   2.491   8.855 -0.4811 -0.5196 -0.1147
 6673TIP3    H141654   6.329   2.576   8.898 -0.4222  0.0300 -1.1975
 6673TIP3    H241655   6.229   2.504   8.809 -0.8841 -1.3229  0.3703
 6674TIP3   OH241656   4.907   2.490   7.091 -0.1859  0.1509 -0.0501
 6674TIP3    H141657   4.861   2.539   7.159  1.6805  2.3029 -0.2370
 6674TIP3    H241658   4.993   2.471   7.129  0.6496  0.8000 -1.5412
 6675TIP3   OH241659   4.842   6.585   8.364 -0.2286 -0.0774  0.1849
 6675TIP3    H141660   4.862   6.492   8.356 -0.6699 -0.2452  0.9414
 6675TIP3    H241661   4.901   6.628   8.302  0.4693 -0.7993  0.3348
 6676TIP3   OH241662   5.066   4.137   2.350  0.1594  0.4455 -0.0300
 6676TIP3    H141663   5.064   4.181   2.436 -1.3331 -0.5920  0.5017
 6676TIP3    H241664   5.160   4.122   2.334  0.5123  1.2360  1.1063
 6677TIP3   OH241665   2.205   3.918   7.047  0.0772 -0.5032 -0.1390
 6677TIP3    H141666   2.260   3.914   7.125  1.8745  2.2718 -1.1183
 6677TIP3    H241667   2.147   3.842   7.054  0.5495 -0.6864  3.5582
 6678TIP3   OH241668   1.913   5.604   8.241  0.1519  0.6229  0.7304
 6678TIP3    H141669   1.999   5.565   8.227 -1.5174 -3.4596  0.4226
 6678TIP3    H241670   1.895   5.590   8.334 -0.9706 -0.4844  0.3664
 6679TIP3   OH241671   4.092   6.344   1.268  0.5631 -0.2469 -0.9451
 6679TIP3    H141672   3.999   6.362   1.274  0.1055 -2.3943 -0.7218
 6679TIP3    H241673   4.130   6.425   1.233 -1.0650  1.3601  0.8107
 6680TIP3   OH241674   6.075   4.817   7.500 -0.1026  0.2784  0.2765
 6680TIP3    H141675   6.152   4.854   7.455  0.1469 -0.3950  0.1330
 6680TIP3    H241676   6.080   4.723   7.481 -3.0783  0.5845 -3.0720
 6681TIP3   OH241677   3.878   5.225   8.693  0.2259  0.1341  0.3583
 6681TIP3    H141678   3.821   5.286   8.647  0.5834  0.1178 -0.1117
 6681TIP3    H241679   3.868   5.142   8.647  2.2870  0.6361 -1.1781
 6682TIP3   OH241680   5.132   1.525   1.901 -0.1742  0.3757 -0.4111
 6682TIP3    H141681   5.038   1.514   1.915 -0.1501 -0.7193 -0.9798
 6682TIP3    H241682   5.158   1.590   1.966 -0.9602 -0.8385  1.1986
 6683TIP3   OH241683   6.683   2.953   1.874  0.7857 -0.1650 -0.9533
 6683TIP3    H141684   6.773   2.966   1.846  1.4812  1.5131  1.6821
 6683TIP3    H241685   6.635   3.029   1.840  0.2083 -1.2045 -2.6102
 6684TIP3   OH241686   2.458   6.201   8.232  0.2626  0.0460  0.3080
 6684TIP3    H141687   2.432   6.291   8.253 -0.0977  0.2716 -1.0077
 6684TIP3    H241688   2.407   6.147   8.291  0.1445  0.6891  0.8074
 6685TIP3   OH241689   3.525   2.571   2.334 -0.0771  0.3240 -0.0318
 6685TIP3    H141690   3.472   2.644   2.366  0.6102  0.1570  1.5824
 6685TIP3    H241691   3.613   2.590   2.367  0.2990 -0.7568 -0.3910
 6686TIP3   OH241692   1.843   3.480   1.569  0.5973  0.2530 -0.3283
 6686TIP3    H141693   1.922   3.465   1.622  1.4436 -0.0350 -1.6246
 6686TIP3    H241694   1.798   3.396   1.569  0.1531  0.4780  0.6004
 6687TIP3   OH241695   6.057   4.519   0.590 -0.0117 -0.2315 -0.0989
 6687TIP3    H141696   6.104   4.601   0.573  1.4202 -0.7908  0.9847
 6687TIP3    H241697   6.034   4.487   0.503 -1.2335  1.6356 -0.5395
 6688TIP3   OH241698   6.579   3.326   7.840  0.0495 -0.4257  0.0695
 6688TIP3    H141699   6.521   3.315   7.765 -1.4860  3.0859  0.5234
 6688TIP3    H241700   6.530   3.290   7.914  0.5154 -1.6856 -0.2208
 6689TIP3   OH241701   2.216   5.783   8.180 -0.2075  0.2528  0.0112
 6689TIP3    H141702   2.201   5.700   8.225 -1.8736  0.8534  0.6215
 6689TIP3    H241703   2.310   5.784   8.163 -0.0639 -1.4835  0.5221
 6690TIP3   OH241704   2.342   6.472   8.733  0.2538  0.9571 -0.4371
 6690TIP3    H141705   2.315   6.382   8.753 -1.2958  1.5821  0.4836
 6690TIP3    H241706   2.438   6.469   8.734  0.3305 -0.0649  2.8967
 6691TIP3   OH241707   6.496   3.993   1.638 -0.1570  0.3706  0.7153
 6691TIP3    H141708   6.545   3.911   1.626  2.1288  1.9698 -2.0997
 6691TIP3    H241709   6.419   3.983   1.582 -0.2539 -0.0919  0.9236
 6692TIP3   OH241710   4.473   3.487   1.327  0.7741  0.2624 -0.1745
 6692TIP3    H141711   4.466   3.474   1.233 -1.9135  0.5371 -0.0885
 6692TIP3    H241712   4.420   3.565   1.344 -0.2045 -0.7539  1.7388
 6693TIP3   OH241713   2.164   5.765   1.298 -0.2902 -0.3840  0.0758
 6693TIP3    H141714   2.243   5.712   1.307  0.3720  0.9421  4.9130
 6693TIP3    H241715   2.092   5.701   1.302  0.2600 -1.5908 -4.3230
 6694TIP3   OH241716   5.989   0.192   1.412  0.2937  0.2028  0.3530
 6694TIP3    H141717   5.972   0.240   1.331  1.5105  0.1427  0.0402
 6694TIP3    H241718   5.937   0.237   1.478 -0.0985  0.7462 -0.3112
 6695TIP3   OH241719   1.549   0.430   2.754 -0.1841 -0.0984  0.4655
 6695TIP3    H141720   1.574   0.344   2.786 -0.2420  0.1256  1.1237
 6695TIP3    H241721   1.511   0.413   2.668  0.8681 -0.5990  0.0768
 6696TIP3   OH241722   4.767   2.707   1.744  0.2897  0.3767 -0.2586
 6696TIP3    H141723   4.700   2.665   1.799  1.0241 -2.0721 -1.1127
 6696TIP3    H241724   4.718   2.747   1.672 -0.2759 -2.9209 -1.8625
 6697TIP3   OH241725   2.740   0.898   0.687  0.2224 -0.0946  0.2433
 6697TIP3    H141726   2.827   0.933   0.669  0.1233  1.0155  1.6689
 6697TIP3    H241727   2.742   0.876   0.781 -1.0660  0.1354  0.3512
 6698TIP3   OH241728   1.560   1.694   1.133  0.7880  0.2059 -0.9649
 6698TIP3    H141729   1.605   1.637   1.070  0.5175 -2.8806  1.4228
 6698TIP3    H241730   1.467   1.684   1.112  0.7942  3.1153 -3.0568
 6699TIP3   OH241731   0.017   1.327   8.670  0.0764  0.4424  0.1324
 6699TIP3    H141732  -0.056   1.272   8.640 -1.5533  1.7155  1.5058
 6699TIP3    H241733   0.093   1.294   8.623 -1.3244 -1.1602 -1.1592
 6700TIP3   OH241734   1.509   2.344   1.698  0.3855 -0.1321  0.0812
 6700TIP3    H141735   1.487   2.260   1.737  0.2431 -0.7113 -1.1749
 6700TIP3    H241736   1.585   2.374   1.747 -0.4881 -0.2304  1.5646
 6701TIP3   OH241737   1.763   6.769   1.713  0.1937 -0.0713 -0.2706
 6701TIP3    H141738   1.817   6.770   1.634  0.2534  0.3864 -0.2238
 6701TIP3    H241739   1.751   6.676   1.732 -0.2780 -0.1953 -1.1252
 6702TIP3   OH241740   5.099   2.842   0.942 -0.5687 -0.2588  0.2791
 6702TIP3    H141741   5.099   2.917   1.002 -2.9984  0.0718 -0.0443
 6702TIP3    H241742   5.109   2.766   0.998 -1.4523  0.1279  0.9890
 6703TIP3   OH241743   6.232   5.706   1.301  0.2101 -0.0949 -0.2955
 6703TIP3    H141744   6.279   5.776   1.346  0.1025 -1.0762  1.4180
 6703TIP3    H241745   6.301   5.653   1.261  0.4342 -0.3116  0.3743
 6704TIP3   OH241746   0.705   2.408   7.690 -0.1047  0.5483  0.1657
 6704TIP3    H141747   0.729   2.393   7.598  0.1141  1.1963  0.1147
 6704TIP3    H241748   0.668   2.324   7.718 -0.9299  0.5802 -0.7545
 6705TIP3   OH241749   4.478   3.133   6.882  0.1277 -0.1176  0.5481
 6705TIP3    H141750   4.467   3.038   6.888 -0.9836  0.0106  0.6930
 6705TIP3    H241751   4.561   3.145   6.836  1.0311 -1.1594  1.8389
 6706TIP3   OH241752   3.367   0.823   0.265 -0.0583 -0.1404 -0.3692
 6706TIP3    H141753   3.350   0.917   0.271 -0.6895 -0.2062 -1.0129
 6706TIP3    H241754   3.462   0.816   0.267 -0.0247  0.4172  0.8882
 6707TIP3   OH241755   4.592   1.759   1.638  0.3727  0.0137  0.1674
 6707TIP3    H141756   4.592   1.749   1.733  0.9478 -1.3964  0.0357
 6707TIP3    H241757   4.515   1.814   1.620  1.1973  1.7175  1.5635
 6708TIP3   OH241758   4.734   6.010   6.874  0.0187  0.2589  0.4340
 6708TIP3    H141759   4.818   5.992   6.917  0.0208  0.9414  0.7154
 6708TIP3    H241760   4.694   6.079   6.926 -1.1811 -0.7320  0.8731
 6709TIP3   OH241761   1.966   3.658   0.005  0.0276 -0.4001  0.4288
 6709TIP3    H141762   1.901   3.701  -0.051  0.5255  3.7714  2.6123
 6709TIP3    H241763   2.045   3.654  -0.049 -0.5763 -0.4114 -0.4817
 6710TIP3   OH241764   2.844   3.749   7.435 -0.3700 -0.2981  0.0353
 6710TIP3    H141765   2.752   3.749   7.409 -0.2873  1.7013 -0.4332
 6710TIP3    H241766   2.843   3.721   7.527 -1.6528  1.2219  0.5324
 6711TIP3   OH241767   0.159   4.431   1.881  0.2289 -0.3289 -0.9339
 6711TIP3    H141768   0.105   4.456   1.806  1.3175  0.8129 -1.3806
 6711TIP3    H241769   0.191   4.344   1.861 -0.2452 -0.4076 -1.3568
 6712TIP3   OH241770   6.740   6.041   1.059  0.1775  0.4306 -0.2354
 6712TIP3    H141771   6.786   6.122   1.036  1.0095  0.1534  0.4284
 6712TIP3    H241772   6.803   5.971   1.041 -0.6437 -0.1190 -1.1194
 6713TIP3   OH241773   3.246   3.711   0.970  0.5486 -0.3526  0.2914
 6713TIP3    H141774   3.305   3.768   0.923  2.3211 -2.1475  0.2038
 6713TIP3    H241775   3.267   3.725   1.063 -1.7609  1.9209  0.6009
 6714TIP3   OH241776   5.150   1.976   1.626 -0.3552 -0.1849  0.4864
 6714TIP3    H141777   5.098   2.041   1.579  1.1000  0.5879 -0.1331
 6714TIP3    H241778   5.179   1.915   1.558  0.7656  0.2515  0.5532
 6715TIP3   OH241779   2.758   1.086   8.949 -0.0277  0.1297  0.4702
 6715TIP3    H141780   2.758   1.180   8.967  3.8471  0.0061  2.0442
 6715TIP3    H241781   2.704   1.076   8.871 -4.2845  2.9626  2.6744
 6716TIP3   OH241782   3.913   3.895   6.229 -0.2281 -0.0377  0.2448
 6716TIP3    H141783   3.865   3.966   6.186  0.3424 -0.5865 -1.3689
 6716TIP3    H241784   3.996   3.889   6.182 -0.3421 -1.9096  0.1795
 6717TIP3   OH241785   2.619   4.013   1.102  0.2719  0.3457 -0.0528
 6717TIP3    H141786   2.606   3.928   1.143  2.2055 -0.4515 -0.9673
 6717TIP3    H241787   2.633   4.074   1.175 -0.9481 -0.1338  0.5952
 6718TIP3   OH241788   3.219   2.242   6.571 -0.0349  0.5382  0.0575
 6718TIP3    H141789   3.135   2.260   6.528  0.1657 -0.1958 -0.6546
 6718TIP3    H241790   3.276   2.313   6.542  0.0721  0.1025 -0.8284
 6719TIP3   OH241791   3.082   3.168   0.243  0.2598  1.0441  0.0744
 6719TIP3    H141792   3.005   3.223   0.259 -2.1007 -1.7088 -0.8915
 6719TIP3    H241793   3.111   3.141   0.330 -0.5768  1.2695  0.4350
 6720TIP3   OH241794   1.567   6.481   7.033  0.1252  0.1387  0.0006
 6720TIP3    H141795   1.506   6.426   7.082  0.3940  0.4214  0.6657
 6720TIP3    H241796   1.526   6.567   7.033  1.0885  0.6530  1.5765
 6721TIP3   OH241797   5.465   1.306   1.907  0.1148 -0.1022  0.5435
 6721TIP3    H141798   5.498   1.323   1.819 -0.2920 -0.4098  0.3284
 6721TIP3    H241799   5.527   1.242   1.944 -0.1579 -0.5775  0.1904
 6722TIP3   OH241800   1.161   5.715   0.688 -0.6047 -0.3497 -0.0020
 6722TIP3    H141801   1.100   5.679   0.752 -1.7916 -0.2314 -1.0354
 6722TIP3    H241802   1.118   5.702   0.604  0.1377  1.0657 -0.6357
 6723TIP3   OH241803   0.389   5.323   6.664  0.2150 -0.0307 -0.1768
 6723TIP3    H141804   0.432   5.365   6.589  1.1129 -1.6202 -0.6009
 6723TIP3    H241805   0.296   5.328   6.645  0.4207 -0.1609 -1.2680
 6724TIP3   OH241806   2.286   2.885   7.446  0.1997  0.2304  0.6022
 6724TIP3    H141807   2.351   2.955   7.460 -0.7421  1.5123 -1.0791
 6724TIP3    H241808   2.330   2.822   7.389  1.3591 -1.0918  2.8111
 6725TIP3   OH241809   2.239   1.865   2.029  0.1055  0.1307  0.1086
 6725TIP3    H141810   2.334   1.877   2.032  0.2036  0.3781 -2.1871
 6725TIP3    H241811   2.205   1.950   2.001 -0.7786 -0.0634  0.5367
 6726TIP3   OH241812   3.135   4.806   7.225 -0.1689  0.1759 -0.1891
 6726TIP3    H141813   3.074   4.770   7.289 -0.2430 -0.9080 -0.8418
 6726TIP3    H241814   3.216   4.821   7.274 -0.2863 -0.4484  0.2076
 6727TIP3   OH241815   3.815   4.376   6.902  0.4689 -0.2687  0.5335
 6727TIP3    H141816   3.788   4.454   6.853  1.1054  0.8362  1.8586
 6727TIP3    H241817   3.748   4.310   6.882 -1.4225  1.3536  1.2047
 6728TIP3   OH241818   2.384   2.247   8.175 -0.4577 -0.0702  0.6726
 6728TIP3    H141819   2.347   2.158   8.173 -1.3210  0.2792  0.6393
 6728TIP3    H241820   2.476   2.234   8.199 -0.7042 -0.9387  1.2076
 6729TIP3   OH241821   5.142   5.721   7.099  0.7503  0.0621  0.1732
 6729TIP3    H141822   5.215   5.783   7.104  0.1056  0.7433  2.0041
 6729TIP3    H241823   5.179   5.639   7.132  1.5214 -0.5161 -1.9678
 6730TIP3   OH241824   1.875   2.185   8.261  0.2891 -0.2972 -0.2312
 6730TIP3    H141825   1.937   2.257   8.250  1.3532 -1.2560 -0.7358
 6730TIP3    H241826   1.817   2.213   8.332  0.2569  1.3228 -0.8632
 6731TIP3   OH241827   4.237   0.135   7.180 -0.0909  0.0186 -0.2352
 6731TIP3    H141828   4.170   0.126   7.247  1.2418  1.0673  1.3104
 6731TIP3    H241829   4.208   0.077   7.109 -1.9612 -0.4918  0.8864
 6732TIP3   OH241830   2.419   5.126   7.945 -0.1750 -0.0089  0.1962
 6732TIP3    H141831   2.415   5.113   7.850 -0.9542 -0.5338  0.2991
 6732TIP3    H241832   2.358   5.197   7.962  1.8560  1.9028  0.0126
 6733TIP3   OH241833   3.099   0.407   1.227 -0.6408 -0.3363  0.4358
 6733TIP3    H141834   3.176   0.381   1.176 -0.2558  2.2370 -0.4309
 6733TIP3    H241835   3.123   0.391   1.318  1.1567  0.9557  0.2208
 6734TIP3   OH241836   2.333   6.645   0.515  0.0913  0.0284 -0.0079
 6734TIP3    H141837   2.287   6.721   0.481 -0.2265  0.3463  1.0888
 6734TIP3    H241838   2.290   6.570   0.474 -2.1840  0.2373  1.8029
 6735TIP3   OH241839   1.306   4.537   1.528 -0.6524  0.0877 -0.0954
 6735TIP3    H141840   1.283   4.459   1.478  2.9938  0.0987 -2.1001
 6735TIP3    H241841   1.327   4.504   1.616 -2.0044 -0.6893 -0.0345
 6736TIP3   OH241842   1.151   0.869   7.657 -0.1253  0.6602  0.5476
 6736TIP3    H141843   1.085   0.875   7.726 -0.0219  0.6598  0.6466
 6736TIP3    H241844   1.235   0.876   7.703 -0.0172 -0.5766  0.5650
 6737TIP3   OH241845   2.005   6.002   8.436  0.1056 -0.2036  0.2676
 6737TIP3    H141846   1.994   5.963   8.350  0.2190  2.2749 -0.9674
 6737TIP3    H241847   1.940   5.958   8.491 -0.5183 -1.2945 -1.2693
 6738TIP3   OH241848   5.767   5.352   2.085 -0.5266 -0.5257  0.3179
 6738TIP3    H141849   5.688   5.334   2.137 -2.5007 -3.8021 -3.3097
 6738TIP3    H241850   5.735   5.385   2.002  2.1005 -0.2855 -0.7027
 6739TIP3   OH241851   0.446   1.570   0.629 -0.0301  0.3549  0.2160
 6739TIP3    H141852   0.403   1.551   0.546 -0.6637  2.0488  0.1194
 6739TIP3    H241853   0.399   1.516   0.693 -0.6855  0.3410 -0.2679
 6740TIP3   OH241854   0.115   2.342   8.061 -0.2032  0.4793  0.6838
 6740TIP3    H141855   0.059   2.419   8.072  1.8326  2.2430 -0.5313
 6740TIP3    H241856   0.082   2.300   7.981 -0.4806  0.8661  0.5905
 6741TIP3   OH241857   1.244   5.875   8.831 -0.3960  0.5813 -0.3799
 6741TIP3    H141858   1.160   5.922   8.826 -0.6067  0.2069 -0.3843
 6741TIP3    H241859   1.302   5.936   8.876 -0.1918  1.5244 -1.8568
 6742TIP3   OH241860   0.751   5.609   7.172 -0.0181 -0.4451  0.6376
 6742TIP3    H141861   0.831   5.661   7.175  0.4537 -1.1551  0.8185
 6742TIP3    H241862   0.745   5.580   7.081 -0.5887  0.3932  0.4103
 6743TIP3   OH241863   0.537   6.087   2.143  0.4417  0.0237  0.0812
 6743TIP3    H141864   0.586   6.168   2.129 -1.0834  0.7504 -1.4665
 6743TIP3    H241865   0.449   6.116   2.167  0.5109 -1.2305  2.0425
 6744TIP3   OH241866   4.031   3.416   8.127  0.2371  0.1973  0.1674
 6744TIP3    H141867   4.057   3.487   8.069 -0.4764  0.1962 -0.1687
 6744TIP3    H241868   3.998   3.348   8.069 -2.0126  0.8354  0.6057
 6745TIP3   OH241869   1.004   2.217   7.108 -0.3531  0.4150 -0.3841
 6745TIP3    H141870   1.084   2.207   7.056  0.1901  2.7088 -0.0762
 6745TIP3    H241871   1.022   2.168   7.189 -0.1650 -0.9117 -1.1897
 6746TIP3   OH241872   2.724   6.419   7.342  0.1799 -0.4514  0.0256
 6746TIP3    H141873   2.806   6.426   7.391 -0.0033  0.1609  0.2523
 6746TIP3    H241874   2.715   6.503   7.298  0.0140 -0.7636 -0.5519
 6747TIP3   OH241875   4.065   1.675   6.573  0.0137  0.4934 -0.1285
 6747TIP3    H141876   4.016   1.594   6.583 -0.1273  0.7264  1.1675
 6747TIP3    H241877   4.117   1.662   6.493 -2.0738  0.2138 -1.5397
 6748TIP3   OH241878   2.417   4.881   7.658  0.4058 -0.2560  0.4674
 6748TIP3    H141879   2.351   4.858   7.724 -0.3358 -0.7540 -0.4304
 6748TIP3    H241880   2.420   4.977   7.660 -0.8812 -0.1775  0.0359
 6749TIP3   OH241881   4.597   5.899   6.447  0.2697 -0.4331  0.4841
 6749TIP3    H141882   4.681   5.943   6.436 -0.3900  0.8497  0.4014
 6749TIP3    H241883   4.532   5.969   6.440 -0.8668 -1.5399 -0.4268
 6750TIP3   OH241884   0.646   4.529   0.677 -0.2051  0.5946  0.1324
 6750TIP3    H141885   0.670   4.438   0.690 -0.3458  0.2296 -1.8925
 6750TIP3    H241886   0.553   4.532   0.700  0.1741  0.6518  1.8512
 6751TIP3   OH241887   5.158   3.846   7.499 -0.8035 -0.2630  0.1851
 6751TIP3    H141888   5.238   3.795   7.499  1.2255  2.6345 -0.4821
 6751TIP3    H241889   5.161   3.896   7.581 -0.6565  1.5447 -0.8572
 6752TIP3   OH241890   6.149   5.010   7.939  0.0979  0.1526 -0.7318
 6752TIP3    H141891   6.208   5.079   7.969 -0.5322  0.1529  0.5885
 6752TIP3    H241892   6.061   5.047   7.948 -0.2142 -0.5829 -0.6273
 6753TIP3   OH241893   6.090   6.684   0.707  0.2011  0.1506 -0.1728
 6753TIP3    H141894   6.125   6.690   0.795  1.2238  0.9338 -0.6083
 6753TIP3    H241895   6.144   6.744   0.655 -0.6364  0.0179 -1.2471
 6754TIP3   OH241896   3.897   5.771   7.165  0.0976 -0.2242  0.0788
 6754TIP3    H141897   3.822   5.800   7.216 -1.5161 -1.4797 -1.4466
 6754TIP3    H241898   3.883   5.807   7.078  0.2030 -2.0307 -0.7429
 6755TIP3   OH241899   3.773   2.259   7.074 -0.0642  0.0352 -0.5150
 6755TIP3    H141900   3.808   2.215   6.996 -0.3821 -1.8472  0.3446
 6755TIP3    H241901   3.848   2.306   7.111 -0.1884  2.0548 -2.6074
 6756TIP3   OH241902   0.507   2.961   0.315 -0.3676  0.1314  0.0929
 6756TIP3    H141903   0.584   2.951   0.371  1.0416  0.5201 -1.6843
 6756TIP3    H241904   0.444   2.898   0.350  0.8779 -0.4737  1.3672
 6757TIP3   OH241905   3.278   5.959   6.877 -0.9572  0.0483 -0.2592
 6757TIP3    H141906   3.212   6.004   6.824 -0.3857  1.8376  0.4645
 6757TIP3    H241907   3.362   5.983   6.836 -0.6525 -0.7188 -0.1010
 6758TIP3   OH241908   0.049   5.630   6.311  0.2116  0.1465  0.2610
 6758TIP3    H141909   0.113   5.559   6.320  0.2622 -0.2472 -2.4419
 6758TIP3    H241910  -0.036   5.586   6.314  0.1703  0.2487  0.6309
 6759TIP3   OH241911   2.376   0.968   8.502  0.4758  0.5770 -0.3420
 6759TIP3    H141912   2.336   0.887   8.470  1.1595  0.0056  0.1936
 6759TIP3    H241913   2.305   1.032   8.500 -0.2464 -0.1934 -0.2065
 6760TIP3   OH241914   4.824   2.363   8.941  0.0666  0.2431  0.0785
 6760TIP3    H141915   4.783   2.345   9.025  0.4487  0.1234  0.2412
 6760TIP3    H241916   4.762   2.331   8.876  0.1979 -0.5405  0.3363
 6761TIP3   OH241917   4.420   1.724   8.919  0.7489 -0.6911  0.3932
 6761TIP3    H141918   4.333   1.717   8.958  1.4809  0.6169  2.3972
 6761TIP3    H241919   4.406   1.770   8.836 -0.5071 -0.9241  0.4588
 6762TIP3   OH241920   0.189   5.052   7.447  0.3835 -0.0205 -0.2089
 6762TIP3    H141921   0.149   5.010   7.523  0.5866 -0.6151 -0.4257
 6762TIP3    H241922   0.132   5.126   7.428 -0.9784 -1.2008 -0.8861
 6763TIP3   OH241923   3.943   2.810   7.816 -0.0622  0.1687  0.0924
 6763TIP3    H141924   3.874   2.876   7.819 -0.1738  0.0977 -0.6285
 6763TIP3    H241925   3.964   2.792   7.907 -0.6462  0.5590  0.3058
 6764TIP3   OH241926   3.336   6.357   7.275 -0.1034 -0.4745 -0.0339
 6764TIP3    H141927   3.329   6.302   7.197 -0.0944 -1.4406  0.6329
 6764TIP3    H241928   3.255   6.408   7.275 -0.8007 -1.5560  0.1300
 6765TIP3   OH241929   0.516   0.252   1.181  0.1386  0.4570 -0.3756
 6765TIP3    H141930   0.552   0.265   1.094 -0.0124  2.3317 -0.1927
 6765TIP3    H241931   0.584   0.285   1.240 -0.3135  0.4764  0.1479
 6766TIP3   OH241932   0.998   6.547   7.204 -0.1358  0.2420 -0.1289
 6766TIP3    H141933   0.980   6.502   7.121 -0.9462  0.2601  0.0255
 6766TIP3    H241934   1.093   6.558   7.205 -0.1659  0.7750 -1.3286
 6767TIP3   OH241935   1.660   1.393   6.904  0.0575 -0.2060 -0.4296
 6767TIP3    H141936   1.612   1.390   6.821 -0.1558  0.8272 -0.3618
 6767TIP3    H241937   1.746   1.358   6.883 -1.1485 -3.7051 -0.1999
 6768TIP3   OH241938   1.371   3.200   1.031 -0.5105  0.1736 -0.2662
 6768TIP3    H141939   1.355   3.174   1.122 -0.7751 -0.3192 -0.4538
 6768TIP3    H241940   1.345   3.125   0.979 -0.4353  0.4840 -0.7603
 6769TIP3   OH241941   2.698   2.290   1.686 -0.3892  0.8232  0.2262
 6769TIP3    H141942   2.628   2.275   1.622 -3.2129  2.8840  2.5417
 6769TIP3    H241943   2.662   2.256   1.768  1.0317  2.5026  1.6222
 6770TIP3   OH241944   4.659   3.757   6.693  0.3078  0.0593 -0.0851
 6770TIP3    H141945   4.660   3.779   6.786 -1.5665 -0.1308  0.0132
 6770TIP3    H241946   4.730   3.693   6.683 -0.5126 -1.1721  1.5617
 6771TIP3   OH241947   4.963   5.225   7.633 -0.6469  0.1108  0.3478
 6771TIP3    H141948   4.977   5.307   7.680 -0.3130  0.7155 -0.7918
 6771TIP3    H241949   4.941   5.162   7.702 -2.3335  1.4611  1.1169
 6772TIP3   OH241950   3.338   4.547   1.010 -0.0650 -0.5544 -0.0132
 6772TIP3    H141951   3.397   4.550   1.085  1.7955  1.5366 -1.4570
 6772TIP3    H241952   3.311   4.638   0.997  0.0076 -0.7937 -2.1212
 6773TIP3   OH241953   0.891   1.211   0.773 -0.2950  0.7808 -0.6047
 6773TIP3    H141954   0.884   1.195   0.679  0.7388 -0.0378 -0.5731
 6773TIP3    H241955   0.983   1.232   0.787 -0.2852  0.2210  0.3030
 6774TIP3   OH241956   3.717   6.348   0.056 -0.0873  0.1478 -0.6018
 6774TIP3    H141957   3.773   6.419   0.085 -0.5144  0.8850 -1.5108
 6774TIP3    H241958   3.776   6.274   0.044  0.2612  0.1349  0.9985
 6775TIP3   OH241959   5.820   1.873   0.409 -0.5144  0.3428 -0.1017
 6775TIP3    H141960   5.875   1.820   0.466 -0.8868 -0.6886 -0.6589
 6775TIP3    H241961   5.877   1.943   0.378  0.0634  0.1327  0.4606
 6776TIP3   OH241962   4.488   0.461   0.535  0.5136 -0.5354  0.4096
 6776TIP3    H141963   4.421   0.400   0.566  0.0964  0.0179  0.6082
 6776TIP3    H241964   4.440   0.524   0.481  1.1264 -1.0709 -0.7687
 6777TIP3   OH241965   2.421   3.720   0.041  0.2972 -0.3744  0.4361
 6777TIP3    H141966   2.400   3.669   0.119 -0.2673 -0.7068  0.0803
 6777TIP3    H241967   2.388   3.666  -0.032  0.8027 -0.0682 -0.0279
 6778TIP3   OH241968   1.681   1.321   1.065 -0.0171 -0.2724  0.7651
 6778TIP3    H141969   1.627   1.374   1.007 -0.3954 -0.5997  0.8146
 6778TIP3    H241970   1.712   1.248   1.011  1.4486  0.5841  0.3792
 6779TIP3   OH241971   6.764   5.528   6.867 -0.0720  0.5446 -0.3874
 6779TIP3    H141972   6.857   5.548   6.857  0.1752 -0.4886 -0.3204
 6779TIP3    H241973   6.760   5.432   6.861 -1.2512  0.6366 -1.3687
 6780TIP3   OH241974   6.687   1.144   7.639  0.2035  0.6530 -0.5095
 6780TIP3    H141975   6.770   1.097   7.640  1.0695  2.1042 -0.5288
 6780TIP3    H241976   6.623   1.080   7.610  1.5918 -0.0962 -2.1103
 6781TIP3   OH241977   6.203   0.297   7.308 -0.1223 -0.5912  0.5420
 6781TIP3    H141978   6.187   0.202   7.311 -0.2806 -0.6620 -1.1394
 6781TIP3    H241979   6.222   0.314   7.215 -1.1451  1.1870  0.6215
 6782TIP3   OH241980   3.983   0.327   7.838 -0.7393 -0.0488  0.5346
 6782TIP3    H141981   4.067   0.374   7.830 -0.3679 -0.5515  1.3943
 6782TIP3    H241982   4.004   0.237   7.813 -0.9407 -0.2531  1.0917
 6783TIP3   OH241983   0.640   2.885   1.274 -0.0544 -0.4808 -0.0505
 6783TIP3    H141984   0.666   2.936   1.351  0.0390 -0.9374  0.2257
 6783TIP3    H241985   0.555   2.922   1.248 -0.4658 -0.8291  0.7500
 6784TIP3   OH241986   6.744   3.761   8.721  0.9231  0.6360 -0.0510
 6784TIP3    H141987   6.767   3.827   8.655 -0.5894 -0.2131 -1.4809
 6784TIP3    H241988   6.723   3.683   8.671  0.3796 -0.2439  1.4957
 6785TIP3   OH241989   4.946   3.387   8.582  0.7964  0.5994 -0.1493
 6785TIP3    H141990   5.037   3.398   8.610  0.9910  0.5493 -0.7525
 6785TIP3    H241991   4.934   3.292   8.577  0.6427  0.6019  0.1401
 6786TIP3   OH241992   2.668   0.500   7.981 -0.4160  0.3660 -0.1694
 6786TIP3    H141993   2.606   0.429   7.997 -0.7714  0.6588 -0.2273
 6786TIP3    H241994   2.744   0.458   7.941 -0.5012 -0.0231  0.0721
 6787TIP3   OH241995   4.081   3.847   8.539 -0.3953 -0.4239  0.5031
 6787TIP3    H141996   4.087   3.782   8.468  0.7793  0.1671  0.0272
 6787TIP3    H241997   4.014   3.908   8.511 -1.2662 -1.2263  0.7919
 6788TIP3   OH241998   4.030   6.563   0.907 -0.1072 -0.0419 -0.3304
 6788TIP3    H141999   4.117   6.544   0.943 -0.3170  1.2986  0.9929
 6788TIP3    H242000   4.040   6.549   0.812  1.7068  0.5907 -0.2798
 6789TIP3   OH242001   6.481   3.721   1.537 -0.3494  0.3851 -0.3002
 6789TIP3    H142002   6.554   3.671   1.574 -1.2655 -0.3886  0.5361
 6789TIP3    H242003   6.474   3.688   1.447  0.8976  1.1399 -0.6978
 6790TIP3   OH242004   3.557   4.989   1.853 -0.6635  0.3472 -0.6768
 6790TIP3    H142005   3.539   5.009   1.945  0.8322  0.4931 -0.3918
 6790TIP3    H242006   3.474   5.005   1.808 -1.0979  1.4202  0.4645
 6791TIP3   OH242007   5.331   4.093   2.325  0.4521 -0.1258  0.5576
 6791TIP3    H142008   5.385   4.165   2.357  0.5364  0.0569  0.0215
 6791TIP3    H242009   5.351   4.020   2.384 -0.0674  0.4429  1.4629
 6792TIP3   OH242010   1.750   6.732   8.492  0.0339 -0.9467 -0.2351
 6792TIP3    H142011   1.669   6.783   8.485  0.5090  0.1115  1.3772
 6792TIP3    H242012   1.812   6.792   8.533  1.7683 -1.6183 -1.7664
 6793TIP3   OH242013   0.042   3.761   7.528 -0.2635  0.9952 -0.0169
 6793TIP3    H142014   0.135   3.747   7.510 -0.5552 -0.9424 -0.2745
 6793TIP3    H242015   0.032   3.741   7.621 -0.7627 -1.1076 -0.4767
 6794TIP3   OH242016   2.776   2.299   0.371 -0.2981  0.4721 -0.3993
 6794TIP3    H142017   2.741   2.226   0.422  1.0170  0.0199 -0.1151
 6794TIP3    H242018   2.848   2.333   0.424  0.5331  0.5507 -1.5494
 6795TIP3   OH242019   2.106   6.724   1.583 -0.5539  0.0930 -0.0420
 6795TIP3    H142020   2.035   6.697   1.525 -0.7482  0.3795  0.0557
 6795TIP3    H242021   2.069   6.718   1.671 -0.5724  0.5701 -0.0117
 6796TIP3   OH242022   2.663   5.458   6.733  0.2426  0.1218 -0.0084
 6796TIP3    H142023   2.621   5.533   6.689  0.5428  0.4549  0.2683
 6796TIP3    H242024   2.619   5.382   6.696 -0.3120  0.4499 -0.0387
 6797TIP3   OH242025   3.693   3.392   0.908 -0.3969 -0.4527  0.0901
 6797TIP3    H142026   3.765   3.370   0.968 -0.7547  0.7899  1.0227
 6797TIP3    H242027   3.723   3.471   0.863 -1.5909  0.7605  1.3204
 6798TIP3   OH242028   2.094   6.361   0.637  0.4807  0.1263 -0.4296
 6798TIP3    H142029   2.098   6.445   0.683 -2.4079  0.4303 -0.5914
 6798TIP3    H242030   2.002   6.335   0.641  0.8772 -1.9024 -2.4088
 6799TIP3   OH242031   6.396   3.167   0.740 -0.1790  0.2983 -0.7700
 6799TIP3    H142032   6.344   3.241   0.770 -0.8996 -0.8465  0.9727
 6799TIP3    H242033   6.331   3.099   0.720  0.5173 -0.2192 -1.3165
 6800TIP3   OH242034   2.882   1.618   1.396 -0.8395 -0.5499  0.1867
 6800TIP3    H142035   2.944   1.622   1.323 -1.1411 -1.7385 -0.1443
 6800TIP3    H242036   2.799   1.644   1.357 -0.6677  0.5297  0.5141
 6801TIP3   OH242037   4.263   0.675   7.814  0.1448 -0.2120  0.1260
 6801TIP3    H142038   4.329   0.744   7.817 -0.7767  0.7215 -0.3621
 6801TIP3    H242039   4.230   0.678   7.724 -0.3462 -0.8729  0.2791
 6802TIP3   OH242040   3.556   1.930   7.709 -0.5484  0.1835  0.1685
 6802TIP3    H142041   3.535   2.018   7.678 -1.4779 -0.2993 -0.6088
 6802TIP3    H242042   3.472   1.886   7.713 -0.0514 -0.7696  0.2730
 6803TIP3   OH242043   1.766   2.516   7.044 -0.3366 -0.0695 -0.1860
 6803TIP3    H142044   1.821   2.539   6.969 -0.4288 -0.2221 -0.3000
 6803TIP3    H242045   1.721   2.598   7.067 -1.5829 -0.3950 -1.3463
 6804TIP3   OH242046   4.461   1.776   6.345  0.7353  0.2285 -0.1038
 6804TIP3    H142047   4.502   1.689   6.341  0.8136  0.3084 -1.4475
 6804TIP3    H242048   4.367   1.758   6.345  0.6714  0.0445  2.9936
 6805TIP3   OH242049   0.049   0.868   2.462 -0.1273 -0.0465 -0.0998
 6805TIP3    H142050   0.035   0.848   2.370  0.7759 -0.5758 -0.1353
 6805TIP3    H242051   0.065   0.782   2.503  3.5929  0.4501 -0.1967
 6806TIP3   OH242052   0.391   0.416   8.850 -0.6243 -0.1469 -0.3698
 6806TIP3    H142053   0.428   0.458   8.772  1.1343 -2.1550 -0.6989
 6806TIP3    H242054   0.461   0.360   8.883 -0.9161  1.4096  3.3619
 6807TIP3   OH242055   0.591   5.885   1.306  0.2856 -0.5847 -0.6551
 6807TIP3    H142056   0.669   5.830   1.294 -0.3695 -2.0561  1.3572
 6807TIP3    H242057   0.606   5.930   1.389 -0.2248  0.5458 -1.1547
 6808TIP3   OH242058   5.547   5.560   7.899  0.3546  0.2845 -0.1776
 6808TIP3    H142059   5.538   5.485   7.958  1.3828 -0.0278 -0.3956
 6808TIP3    H242060   5.486   5.625   7.934 -1.2564 -0.9745 -0.5295
 6809TIP3   OH242061   2.284   0.737   6.638 -0.4659  0.3574  0.4177
 6809TIP3    H142062   2.282   0.653   6.685  0.7479 -0.3899 -0.7506
 6809TIP3    H242063   2.201   0.740   6.590 -2.3819  1.8014  3.5542
 6810TIP3   OH242064   1.034   2.268   1.124 -0.0125 -0.2946  0.7684
 6810TIP3    H142065   1.011   2.348   1.171 -0.0860 -0.3332  0.7987
 6810TIP3    H242066   1.074   2.298   1.043  2.9039 -0.1801  2.1198
 6811TIP3   OH242067   0.491   6.787   7.214  0.9583  0.2161  0.7363
 6811TIP3    H142068   0.499   6.698   7.178  2.0318  0.5557  0.0969
 6811TIP3    H242069   0.581   6.811   7.238  0.9998  1.8293 -0.8127
 6812TIP3   OH242070   1.697   5.243   1.391  0.1284  0.1536  0.6444
 6812TIP3    H142071   1.623   5.302   1.373  0.2395  0.2327  0.4487
 6812TIP3    H242072   1.751   5.248   1.313  1.4953  1.7863  1.6326
 6813TIP3   OH242073   2.640   2.929   0.754  0.0717 -0.8159  0.5829
 6813TIP3    H142074   2.611   2.845   0.720  1.6757 -1.0355 -0.3419
 6813TIP3    H242075   2.625   2.991   0.682  0.7019 -0.7013  0.5428
 6814TIP3   OH242076   3.222   5.872   7.701  0.2495  0.0229  0.0326
 6814TIP3    H142077   3.203   5.952   7.654  0.6275 -0.0997 -0.3322
 6814TIP3    H242078   3.318   5.871   7.710  0.2928 -0.6619 -0.4562
 6815TIP3   OH242079   1.664   2.830   7.945  0.1634  0.2884 -0.2617
 6815TIP3    H142080   1.622   2.916   7.939 -1.5144 -0.5701 -1.7108
 6815TIP3    H242081   1.716   2.823   7.866  0.4315  0.0262 -0.0652
 6816TIP3   OH242082   6.499   3.554   8.868  0.4451  0.1935  0.4545
 6816TIP3    H142083   6.513   3.648   8.877  1.4086  0.1423 -0.2647
 6816TIP3    H242084   6.465   3.543   8.779 -2.2623  0.0826  1.4148
 6817TIP3   OH242085   5.503   4.726   7.433  0.6073 -0.2606 -0.8026
 6817TIP3    H142086   5.460   4.775   7.503  1.2408  0.7639 -1.1106
 6817TIP3    H242087   5.581   4.689   7.473  0.6324 -0.2134 -0.8083
 6818TIP3   OH242088   3.270   5.405   6.121 -0.6574  0.4476  0.5175
 6818TIP3    H142089   3.357   5.405   6.081 -0.3308  0.2388  1.2133
 6818TIP3    H242090   3.216   5.454   6.060  0.2145  1.6371  0.6653
 6819TIP3   OH242091   3.783   5.743   6.905 -0.0891  0.5356  0.3972
 6819TIP3    H142092   3.829   5.750   6.822 -0.9413 -0.1320 -0.1427
 6819TIP3    H242093   3.714   5.678   6.890 -1.1811  1.4594  1.1875
 6820TIP3   OH242094   3.566   5.924   6.770 -0.4624  0.0049 -0.2521
 6820TIP3    H142095   3.613   5.981   6.709 -1.9466  0.0897 -1.4060
 6820TIP3    H242096   3.634   5.883   6.823  0.7796  1.2347 -0.8195
 6821TIP3   OH242097   0.748   3.657   0.206  0.4993  0.1006 -0.2319
 6821TIP3    H142098   0.820   3.631   0.264  0.2679  1.9922  1.0095
 6821TIP3    H242099   0.690   3.582   0.204  0.9278 -0.3126  1.3583
 6822TIP3   OH242100   3.659   2.223   8.892 -0.3312  0.3607 -0.5471
 6822TIP3    H142101   3.582   2.169   8.913  0.4095 -0.9680 -1.1270
 6822TIP3    H242102   3.631   2.312   8.911 -1.2579 -0.2961  1.5405
 6823TIP3   OH242103   0.755   1.931   7.618  0.1739  0.3523  0.2338
 6823TIP3    H142104   0.771   1.938   7.524  0.3145 -0.9043  0.1385
 6823TIP3    H242105   0.704   2.008   7.640  0.9553  1.1555 -0.6877
 6824TIP3   OH242106   5.940   1.307   0.634 -0.5137  0.9904 -0.3999
 6824TIP3    H142107   5.861   1.264   0.602 -0.8751  2.0684 -1.0091
 6824TIP3    H242108   5.934   1.303   0.729 -0.7469  0.0857 -0.4488
 6825TIP3   OH242109   1.228   5.628   7.079  0.2491  0.3355  0.2402
 6825TIP3    H142110   1.251   5.537   7.059  0.2036  0.5912 -1.0972
 6825TIP3    H242111   1.138   5.638   7.046 -0.2104  0.5423  1.4952
 6826TIP3   OH242112   4.602   6.111   1.750 -0.4146  0.2584  0.0662
 6826TIP3    H142113   4.612   6.135   1.843  1.1573  1.0350 -0.2703
 6826TIP3    H242114   4.524   6.055   1.748  0.6034 -1.3441  2.1395
 6827TIP3   OH242115   1.256   4.467   0.794  0.0968  0.2022  0.1882
 6827TIP3    H142116   1.213   4.484   0.710  2.5547  0.7638 -1.0482
 6827TIP3    H242117   1.216   4.385   0.825 -1.4789  0.4422 -1.0573
 6828TIP3   OH242118   4.996   3.199   1.258 -0.0469  0.1972 -0.1321
 6828TIP3    H142119   5.010   3.175   1.166 -0.6525  0.7052 -0.3624
 6828TIP3    H242120   4.987   3.116   1.304  4.2096 -0.3215  0.1688
 6829TIP3   OH242121   1.396   6.310   7.539 -0.1824 -0.1553  0.3298
 6829TIP3    H142122   1.418   6.245   7.473  1.5989 -0.7294  1.4030
 6829TIP3    H242123   1.310   6.343   7.513  0.2625 -0.6546 -2.0006
 6830TIP3   OH242124   5.850   2.276   1.200 -0.1695 -0.2676 -0.3768
 6830TIP3    H142125   5.875   2.195   1.155  1.0016 -1.2779  1.9381
 6830TIP3    H242126   5.779   2.312   1.146 -1.0740 -3.0580 -1.2324
 6831TIP3   OH242127   5.087   5.804   8.892 -0.7658  0.6531 -0.2182
 6831TIP3    H142128   5.111   5.832   8.804  0.5193  1.1955  0.2717
 6831TIP3    H242129   5.047   5.882   8.932  0.8274  1.1807  0.4306
 6832TIP3   OH242130   5.955   1.714   6.992  0.3441 -0.2548 -0.6095
 6832TIP3    H142131   5.978   1.786   6.933  1.1717  1.0227  1.1723
 6832TIP3    H242132   5.870   1.739   7.028  0.0492 -0.8003 -0.9304
 6833TIP3   OH242133   4.584   3.433   6.697 -0.9331  0.7234 -0.1037
 6833TIP3    H142134   4.631   3.349   6.697  0.0515  1.2418 -0.9851
 6833TIP3    H242135   4.499   3.413   6.658 -0.6600  0.1539 -0.4221
 6834TIP3   OH242136   5.123   3.651   7.725  0.3263 -0.1844 -0.1922
 6834TIP3    H142137   5.062   3.579   7.709 -0.3238  0.4324 -0.5473
 6834TIP3    H242138   5.205   3.622   7.686  0.0901 -0.7624 -0.2690
 6835TIP3   OH242139   0.176   2.215   8.579 -0.2158 -0.0616 -0.4671
 6835TIP3    H142140   0.106   2.206   8.643 -0.1345 -1.3851 -0.5463
 6835TIP3    H242141   0.172   2.135   8.527  0.3037  0.5861 -1.5345
 6836TIP3   OH242142   6.011   3.004   7.952 -0.0555 -0.3150 -0.5397
 6836TIP3    H142143   6.060   2.943   8.007 -0.1940 -0.1309 -0.2088
 6836TIP3    H242144   6.031   2.977   7.863  0.9982  0.0262 -0.4263
 6837TIP3   OH242145   4.705   2.362   7.614  0.2992 -0.4342  0.0674
 6837TIP3    H142146   4.683   2.454   7.604 -0.7252 -0.4895  1.4462
 6837TIP3    H242147   4.679   2.341   7.704  2.6367 -1.4864  0.5802
 6838TIP3   OH242148   0.624   0.259   1.815  0.5434  0.0255  0.2116
 6838TIP3    H142149   0.563   0.263   1.741 -0.2223  1.6217  0.8695
 6838TIP3    H242150   0.668   0.174   1.806 -0.1225 -0.1687 -1.5837
 6839TIP3   OH242151   5.934   4.608   0.913  0.0410 -0.6025 -0.5261
 6839TIP3    H142152   5.957   4.632   1.003 -1.9662  2.1331 -0.6274
 6839TIP3    H242153   6.010   4.635   0.861  0.1913  0.1694  0.0749
 6840TIP3   OH242154   3.821   0.252   6.482 -0.0208  0.2205  0.0761
 6840TIP3    H142155   3.757   0.203   6.430 -1.2423 -0.0985  1.8001
 6840TIP3    H242156   3.791   0.343   6.478  0.3061  0.3109 -0.3637
 6841TIP3   OH242157   5.098   5.166   7.029  0.1164 -0.0706  0.2923
 6841TIP3    H142158   5.032   5.096   7.027 -0.4779  0.4416  1.3390
 6841TIP3    H242159   5.172   5.127   7.075 -0.8299  0.4750  2.3528
 6842TIP3   OH242160   1.791   3.789   8.788 -0.2123 -0.2156  0.8181
 6842TIP3    H142161   1.766   3.843   8.714  0.2395 -0.5520  0.4153
 6842TIP3    H242162   1.839   3.848   8.846 -1.4191  0.2921  1.3272
 6843TIP3   OH242163   2.435   3.671   1.427 -0.7451 -0.5869 -0.1568
 6843TIP3    H142164   2.375   3.631   1.364 -0.1095 -1.3659 -0.2829
 6843TIP3    H242165   2.380   3.731   1.478 -1.7191 -1.6008  0.0140
 6844TIP3   OH242166   1.550   0.638   1.483 -0.2788 -0.0705 -0.3670
 6844TIP3    H142167   1.639   0.672   1.497 -0.2818  0.6217 -1.8833
 6844TIP3    H242168   1.493   0.704   1.522 -0.1489 -0.8870  1.3147
 6845TIP3   OH242169   2.520   6.434   6.563 -0.0189 -0.3988 -0.6741
 6845TIP3    H142170   2.584   6.373   6.527 -1.4565 -0.9004 -2.5233
 6845TIP3    H242171   2.438   6.384   6.568 -0.5515  0.5387  0.5796
 6846TIP3   OH242172   0.815   1.277   1.147  0.0196  0.2493 -1.3125
 6846TIP3    H142173   0.802   1.309   1.057 -0.3412  0.5760 -1.1478
 6846TIP3    H242174   0.800   1.354   1.202  0.2424  0.0494 -0.9711
 6847TIP3   OH242175   1.941   0.285   0.813 -0.0968 -0.1374 -0.2692
 6847TIP3    H142176   1.880   0.343   0.768  1.1922  3.3231  2.0019
 6847TIP3    H242177   1.893   0.255   0.890  0.5555  1.7915  0.9877
 6848TIP3   OH242178   3.066   0.493   0.265 -0.4224 -0.1276  0.3504
 6848TIP3    H142179   2.981   0.514   0.302 -0.4826  0.7640 -0.2872
 6848TIP3    H242180   3.083   0.562   0.201  0.3034 -0.8777 -0.2898
 6849TIP3   OH242181   2.683   3.681   0.339 -0.6369  0.0729 -0.0073
 6849TIP3    H142182   2.759   3.702   0.394 -0.4501 -1.8206  0.5318
 6849TIP3    H242183   2.698   3.730   0.258  1.3090 -0.4385 -0.0120
 6850TIP3   OH242184   2.112   1.922   6.736 -0.7298 -0.6024 -0.5435
 6850TIP3    H142185   2.181   1.921   6.669 -0.1776 -0.0285  0.0007
 6850TIP3    H242186   2.054   1.993   6.708 -0.1808  0.0313 -0.1198
 6851TIP3   OH242187   5.513   6.170   6.750  0.1029  0.8371  0.3961
 6851TIP3    H142188   5.426   6.192   6.784  0.2171  0.5776  0.8699
 6851TIP3    H242189   5.566   6.247   6.770  0.3271  0.4350  1.4054
 6852TIP3   OH242190   2.759   0.150   8.924  0.0285  0.1057  0.6264
 6852TIP3    H142191   2.839   0.183   8.966  1.9699 -1.1958 -1.7788
 6852TIP3    H242192   2.716   0.228   8.890  1.2820  0.7171  0.3675
 6853TIP3   OH242193   4.399   3.895   0.038  0.1274  0.2008  0.6656
 6853TIP3    H142194   4.396   3.989   0.055 -0.3955  0.9567 -2.7628
 6853TIP3    H242195   4.489   3.870   0.056  0.0487  1.1095  2.5305
 6854TIP3   OH242196   0.060   5.901   1.984  0.4527 -0.1163  0.7798
 6854TIP3    H142197  -0.009   5.968   1.983  0.1157 -0.4445  1.3727
 6854TIP3    H242198   0.084   5.893   2.076  0.7093 -0.5908  0.6747
 6855TIP3   OH242199   5.832   2.738   8.220  0.4551  0.4583  0.1336
 6855TIP3    H142200   5.875   2.664   8.176 -1.2181  0.0658 -0.9058
 6855TIP3    H242201   5.853   2.813   8.164 -0.4216  0.2161 -0.5407
 6856TIP3   OH242202   6.254   1.904   6.639  0.0775  0.2449 -0.4979
 6856TIP3    H142203   6.256   1.925   6.545 -0.3707  0.8480 -0.3770
 6856TIP3    H242204   6.346   1.904   6.665  0.3246 -1.3229 -1.2309
 6857TIP3   OH242205   6.684   2.850   0.328  0.5624  0.0765  0.0510
 6857TIP3    H142206   6.775   2.836   0.350  0.2286 -0.9565  0.8550
 6857TIP3    H242207   6.646   2.891   0.406 -0.0516 -1.2047  0.4491
 6858TIP3   OH242208   3.338   6.588   7.087 -0.0516  0.0879  0.3781
 6858TIP3    H142209   3.421   6.560   7.047 -0.1769  0.7632 -0.3759
 6858TIP3    H242210   3.362   6.617   7.175  0.5717  0.6303  0.0329
 6859TIP3   OH242211   1.934   2.925   1.308 -0.0136 -0.1632 -0.0095
 6859TIP3    H142212   1.976   2.860   1.251  0.4812 -0.5958  0.8370
 6859TIP3    H242213   1.900   2.991   1.247  0.8682 -0.3995 -0.7890
 6860TIP3   OH242214   0.178   5.700   0.506 -0.0975  0.0184 -1.0804
 6860TIP3    H142215   0.179   5.795   0.497 -0.9771  0.1347 -0.1164
 6860TIP3    H242216   0.190   5.668   0.417  0.5279  1.0177 -1.3817
 6861TIP3   OH242217   2.992   1.463   6.166  0.3127  0.1481 -0.0728
 6861TIP3    H142218   3.072   1.509   6.191 -0.6015  2.1574 -0.5773
 6861TIP3    H242219   2.943   1.454   6.248 -0.3046  1.8259 -0.2155
 6862TIP3   OH242220   6.542   5.457   6.616  0.3218 -0.3631 -0.3201
 6862TIP3    H142221   6.599   5.392   6.657  1.0264  1.1688  1.2568
 6862TIP3    H242222   6.453   5.427   6.635  0.6352 -0.4398  1.0864
 6863TIP3   OH242223   4.559   4.051   7.639  0.2402 -0.3164  0.0750
 6863TIP3    H142224   4.482   4.093   7.602 -1.0762 -1.1612  1.7546
 6863TIP3    H242225   4.549   3.959   7.618  0.9075 -0.4191  0.1649
 6864TIP3   OH242226   5.451   1.445   8.346  0.2695  0.1082  0.2444
 6864TIP3    H142227   5.472   1.373   8.406 -1.0318 -0.6410 -0.1476
 6864TIP3    H242228   5.360   1.429   8.321  0.8357  0.2346 -2.1233
 6865TIP3   OH242229   5.508   2.655   8.582  0.0636 -0.0570 -0.2961
 6865TIP3    H142230   5.480   2.674   8.671  0.9694  0.5504 -0.1304
 6865TIP3    H242231   5.459   2.576   8.558  0.4248 -0.7175  1.0365
 6866TIP3   OH242232   6.428   1.912   1.245  0.2746 -0.2176  0.5147
 6866TIP3    H142233   6.385   1.998   1.238  0.5056 -0.0125  1.5502
 6866TIP3    H242234   6.521   1.932   1.240  0.3042 -0.5556 -0.5955
 6867TIP3   OH242235   0.874   2.244   6.731  0.0490 -0.5268 -0.1457
 6867TIP3    H142236   0.906   2.330   6.758 -1.3776 -0.1471  0.4674
 6867TIP3    H242237   0.919   2.226   6.649  0.6373  0.6524 -0.1014
 6868TIP3   OH242238   4.184   2.139   8.504 -0.3666  0.2981 -0.1486
 6868TIP3    H142239   4.099   2.182   8.497 -0.2389  0.6144  0.1866
 6868TIP3    H242240   4.191   2.114   8.596  0.7568  2.0972  0.2973
 6869TIP3   OH242241   3.412   6.505   1.053  0.0100 -0.3961 -0.5359
 6869TIP3    H142242   3.371   6.563   0.988 -2.7173 -1.1049  0.4131
 6869TIP3    H242243   3.428   6.423   1.006 -2.1673 -0.9852 -0.3603
 6870TIP3   OH242244   6.536   5.058   8.392  0.5936 -0.6844 -0.2026
 6870TIP3    H142245   6.622   5.097   8.407  0.3605  0.6670 -1.9907
 6870TIP3    H242246   6.517   5.010   8.472  1.7919  1.3122  1.3897
 6871TIP3   OH242247   3.744   0.408   7.382  0.0443  0.6743  0.0813
 6871TIP3    H142248   3.819   0.398   7.323  1.0088 -1.0840  1.5116
 6871TIP3    H242249   3.698   0.324   7.377  1.0709 -0.1568  2.9544
 6872TIP3   OH242250   1.080   0.965   0.722 -0.2290 -0.2284 -0.1301
 6872TIP3    H142251   1.100   0.877   0.753 -0.0268 -0.4216 -0.7978
 6872TIP3    H242252   1.012   0.952   0.656 -2.2313  0.3518  1.6722
 6873TIP3   OH242253   6.503   6.230   0.179 -0.2735  1.0123  0.0029
 6873TIP3    H142254   6.591   6.196   0.198  0.1168  1.9143 -0.1188
 6873TIP3    H242255   6.515   6.285   0.101 -1.3347 -0.4172 -1.2147
 6874TIP3   OH242256   4.217   1.501   1.464 -0.2222 -0.7113 -0.0510
 6874TIP3    H142257   4.125   1.491   1.439 -0.2489  0.0529 -0.2789
 6874TIP3    H242258   4.264   1.440   1.407 -0.1425  1.8541 -2.9710
 6875TIP3   OH242259   4.696   1.136   1.020 -0.3276 -0.8064 -0.5524
 6875TIP3    H142260   4.773   1.155   1.073 -1.0641 -0.7734  0.5355
 6875TIP3    H242261   4.712   1.049   0.985 -0.8172 -1.8633  1.6457
 6876TIP3   OH242262   5.991   1.457   7.808  0.8504  0.1134 -0.0533
 6876TIP3    H142263   5.934   1.391   7.848 -0.5972  1.0651 -0.4649
 6876TIP3    H242264   6.012   1.422   7.722 -0.7483  0.5875 -0.6747
 6877TIP3   OH242265   3.633   1.721   6.678  0.0797  0.5088 -0.0707
 6877TIP3    H142266   3.543   1.733   6.710  0.6912  1.1914  1.5297
 6877TIP3    H242267   3.638   1.776   6.599 -0.7166  1.0326  0.2302
 6878TIP3   OH242268   0.962   3.713   8.931  0.7433 -0.7222  0.0132
 6878TIP3    H142269   0.868   3.727   8.924  0.7660 -1.2698 -1.9344
 6878TIP3    H242270   0.997   3.797   8.960 -0.2636 -0.3335  0.1485
 6879TIP3   OH242271   4.583   5.752   1.586 -0.0746 -0.6147  0.2709
 6879TIP3    H142272   4.520   5.821   1.607 -1.2369 -0.8994 -1.9473
 6879TIP3    H242273   4.616   5.776   1.499  0.1475 -2.3689 -0.1671
 6880TIP3   OH242274   1.392   4.984   2.454 -0.0047 -0.4589 -0.0107
 6880TIP3    H142275   1.486   4.996   2.444  0.0182 -0.3662  0.3075
 6880TIP3    H242276   1.367   5.044   2.524  0.1427 -2.4032  1.7890
 6881TIP3   OH242277   5.973   3.165   0.432  1.0313  0.0509  0.7901
 6881TIP3    H142278   5.973   3.069   0.442  0.7088  0.1008  1.3103
 6881TIP3    H242279   5.989   3.179   0.339  0.1722 -0.5280  0.5432
 6882TIP3   OH242280   4.798   3.164   7.832  0.5185  0.1500  0.4052
 6882TIP3    H142281   4.718   3.197   7.792  1.0622 -0.3400 -1.1755
 6882TIP3    H242282   4.849   3.129   7.759  0.0179 -4.2178  1.8644
 6883TIP3   OH242283   1.168   0.868   8.273  0.3593  0.1936 -0.2655
 6883TIP3    H142284   1.159   0.812   8.195  2.0788 -0.0087 -0.3551
 6883TIP3    H242285   1.232   0.823   8.327  0.1764  1.0225  0.6602
 6884TIP3   OH242286   1.624   6.470   8.247 -0.1572 -0.0645  0.2087
 6884TIP3    H142287   1.668   6.407   8.191  1.2982  2.2729 -1.4978
 6884TIP3    H242288   1.654   6.555   8.215 -0.7077  1.4980  3.4090
 6885TIP3   OH242289   2.943   1.998   1.265  0.1575 -0.4791  0.4485
 6885TIP3    H142290   2.870   1.959   1.218  0.0770 -0.7573  0.8012
 6885TIP3    H242291   2.985   2.056   1.201 -2.2455  2.1978  1.0948
 6886TIP3   OH242292   4.827   4.873   7.434  0.4143 -0.0824 -0.1984
 6886TIP3    H142293   4.866   4.939   7.377  0.1268  0.4973  0.2717
 6886TIP3    H242294   4.770   4.822   7.376 -0.0682  0.6576 -0.3780
 6887TIP3   OH242295   0.521   5.493   1.927 -0.6630  0.3333 -0.0894
 6887TIP3    H142296   0.500   5.459   1.840 -0.1983 -0.4373  0.0891
 6887TIP3    H242297   0.438   5.492   1.975 -0.5920 -0.9142  0.0280
 6888TIP3   OH242298   2.992   5.164   7.100 -0.4469  0.6228  0.8879
 6888TIP3    H142299   2.945   5.216   7.036 -1.9542  0.5813  1.9039
 6888TIP3    H242300   2.950   5.078   7.096 -0.0236  0.3909  1.3589
 6889TIP3   OH242301   5.016   0.960   7.456 -0.2235  0.1773 -0.4775
 6889TIP3    H142302   4.951   0.965   7.385  0.1203  0.6234 -0.7673
 6889TIP3    H242303   5.043   0.869   7.457 -1.1423 -0.1089 -0.0882
 6890TIP3   OH242304   5.823   4.730   8.384 -0.3058 -0.8274 -0.0680
 6890TIP3    H142305   5.904   4.747   8.432  0.5729 -0.8962 -1.4804
 6890TIP3    H242306   5.832   4.640   8.353 -0.7509 -0.6970 -0.5882
 6891TIP3   OH242307   5.379   6.319   0.862 -0.0724 -0.2449  0.5966
 6891TIP3    H142308   5.449   6.374   0.899  1.4972 -0.8854 -1.2214
 6891TIP3    H242309   5.299   6.371   0.874  1.0880  1.6934  0.4677
 6892TIP3   OH242310   5.168   4.740   0.480 -0.6357  0.0296 -0.3837
 6892TIP3    H142311   5.202   4.666   0.530 -1.2267 -0.3000 -0.4556
 6892TIP3    H242312   5.204   4.728   0.392  1.7197  1.4890  0.3039
 6893TIP3   OH242313   2.879   1.201   0.940 -0.8780  0.2250 -0.4557
 6893TIP3    H142314   2.802   1.221   0.993 -0.0767 -1.4881  1.4922
 6893TIP3    H242315   2.926   1.134   0.990 -0.4290 -2.1129 -3.6841
 6894TIP3   OH242316   6.182   3.119   8.739 -0.0282  0.5114  0.2134
 6894TIP3    H142317   6.153   3.203   8.702  2.3617  0.9621 -0.8259
 6894TIP3    H242318   6.257   3.141   8.794  0.9352 -0.9717 -0.4458
 6895TIP3   OH242319   2.543   6.149   1.376  0.1590  0.1963  0.2069
 6895TIP3    H142320   2.468   6.094   1.396  0.4468 -0.3795 -0.2704
 6895TIP3    H242321   2.538   6.163   1.281  0.8709 -0.1815  0.1039
 6896TIP3   OH242322   3.684   5.005   7.110  0.0924 -0.2614 -0.3435
 6896TIP3    H142323   3.744   5.036   7.043 -0.0566  0.7130 -0.0421
 6896TIP3    H242324   3.740   4.958   7.172  0.1358 -1.7595 -1.4701
 6897TIP3   OH242325   4.485   5.151   0.080 -0.1930 -0.4334 -0.4163
 6897TIP3    H142326   4.538   5.081   0.117 -1.7086 -0.9223  0.9473
 6897TIP3    H242327   4.458   5.204   0.155 -0.2069  0.8332 -1.2639
 6898TIP3   OH242328   6.140   3.439   0.541  0.8331 -0.3509  0.1584
 6898TIP3    H142329   6.057   3.457   0.584  0.2096 -2.7148  0.0898
 6898TIP3    H242330   6.205   3.445   0.611  0.4645  0.4154  0.4424
 6899TIP3   OH242331   2.715   4.680   8.867 -0.2767  0.0700  0.2724
 6899TIP3    H142332   2.637   4.670   8.812 -0.2372 -1.7294  0.4890
 6899TIP3    H242333   2.758   4.595   8.863  0.5951  0.4045  1.8061
 6900TIP3   OH242334   1.051   6.234   8.671 -0.2317  0.0711  0.4416
 6900TIP3    H142335   1.013   6.297   8.609 -1.7669 -1.7500 -0.5833
 6900TIP3    H242336   1.143   6.231   8.649 -0.6854 -0.2764 -1.5757
 6901TIP3   OH242337   3.772   5.342   7.770  0.6491  0.7479 -0.2211
 6901TIP3    H142338   3.694   5.287   7.781  1.9597 -1.1856 -0.1405
 6901TIP3    H242339   3.739   5.423   7.730 -1.1602 -0.7644 -2.0214
 6902TIP3   OH242340   0.032   0.418   8.253  0.7253  0.0905  0.1763
 6902TIP3    H142341   0.095   0.349   8.273  0.6196 -0.1266 -0.2257
 6902TIP3    H242342  -0.013   0.435   8.336  2.2889  1.2627  0.8441
 6903TIP3   OH242343   5.365   2.053   2.237 -0.2332 -0.4746 -0.0914
 6903TIP3    H142344   5.380   2.128   2.294 -1.0820 -0.7111  0.4685
 6903TIP3    H242345   5.392   1.978   2.290  1.5152 -0.5304 -0.9844
 6904TIP3   OH242346   2.387   4.494   8.979 -0.0878  0.5867  0.5268
 6904TIP3    H142347   2.299   4.474   8.946  0.6361  0.2342 -1.3324
 6904TIP3    H242348   2.391   4.590   8.978 -0.3765  0.5997  0.4083
 6905TIP3   OH242349   5.817   2.248   0.614 -0.4437  0.4602  0.1226
 6905TIP3    H142350   5.783   2.281   0.531 -0.6551  0.3492  0.1663
 6905TIP3    H242351   5.788   2.157   0.618  0.2445  0.2202 -0.0563
 6906TIP3   OH242352   3.027   1.843   0.858  0.2460 -0.0846  0.1286
 6906TIP3    H142353   2.998   1.934   0.856  0.4455 -0.0212 -0.0453
 6906TIP3    H242354   2.947   1.792   0.848  0.2900  0.1095 -1.5414
 6907TIP3   OH242355   4.600   2.871   8.965 -0.2550  0.0163  0.2837
 6907TIP3    H142356   4.554   2.848   8.884 -1.2437  2.0097  0.2145
 6907TIP3    H242357   4.647   2.791   8.990 -1.3037 -1.1557 -1.3197
 6908TIP3   OH242358   5.440   1.950   1.703  0.0861  0.1231  0.3080
 6908TIP3    H142359   5.473   2.027   1.656 -1.8090 -0.5005 -2.2793
 6908TIP3    H242360   5.347   1.968   1.716 -0.4826 -1.8311 -0.6757
 6909TIP3   OH242361   6.342   0.621   7.206  0.2589  0.0560  0.4816
 6909TIP3    H142362   6.254   0.583   7.205  0.2580  0.0405  0.9354
 6909TIP3    H242363   6.388   0.577   7.135  0.2837 -0.8627  1.0459
 6910TIP3   OH242364   4.741   1.728   8.689  0.0764  0.4913 -0.2501
 6910TIP3    H142365   4.660   1.676   8.689  0.9671 -0.9670 -1.6848
 6910TIP3    H242366   4.720   1.802   8.746 -2.8977  1.1732 -1.9857
 6911TIP3   OH242367   2.598   3.906   0.576 -0.0229 -0.6397  0.5151
 6911TIP3    H142368   2.576   3.972   0.643 -1.0743 -0.0370 -0.3740
 6911TIP3    H242369   2.535   3.923   0.506  1.1930 -1.1062 -0.7291
 6912TIP3   OH242370   5.177   6.744   1.922  0.3603 -0.0175  0.6997
 6912TIP3    H142371   5.128   6.754   2.004  0.9672 -1.7437  1.3205
 6912TIP3    H242372   5.209   6.831   1.902  0.9299  0.2947  2.7954
 6913TIP3   OH242373   3.478   5.024   8.687 -0.1571  0.0732  0.3348
 6913TIP3    H142374   3.487   5.084   8.614 -1.6122  1.0143  0.8899
 6913TIP3    H242375   3.488   5.079   8.765  2.5500 -1.0839  0.9276
 6914TIP3   OH242376   4.271   6.491   1.627  0.2278 -0.4742  0.1091
 6914TIP3    H142377   4.290   6.498   1.721 -1.0385  2.2015  0.2476
 6914TIP3    H242378   4.296   6.576   1.591 -0.6555 -0.9453 -1.7354
 6915TIP3   OH242379   1.114   3.439   1.231  0.2001  0.2329 -0.3870
 6915TIP3    H142380   1.104   3.345   1.250 -2.5134  0.7147  1.1066
 6915TIP3    H242381   1.077   3.450   1.143  0.4410 -0.0764 -0.5280
 6916TIP3   OH242382   2.833   6.532   6.461  0.2286 -0.4665 -0.2427
 6916TIP3    H142383   2.791   6.448   6.445  0.7596 -0.5408 -1.3672
 6916TIP3    H242384   2.791   6.566   6.540 -0.8073 -1.2489 -0.4434
 6917TIP3   OH242385   1.381   0.271   8.552  0.4098  0.1966 -0.2997
 6917TIP3    H142386   1.444   0.246   8.619 -0.2340  1.9090  1.0258
 6917TIP3    H242387   1.306   0.213   8.566  1.0528 -0.8006 -0.8777
 6918TIP3   OH242388   1.236   0.121   8.285  0.1234 -0.0636  0.2996
 6918TIP3    H142389   1.280   0.109   8.201  1.5056  3.5102  0.3259
 6918TIP3    H242390   1.291   0.074   8.348  2.3580  1.8084 -0.1108
 6919TIP3   OH242391   0.099   1.362   0.323  0.3685  0.3659  0.0577
 6919TIP3    H142392   0.051   1.356   0.241  0.8198 -0.2919 -0.1635
 6919TIP3    H242393   0.032   1.354   0.391 -0.0991  1.6387 -0.2216
 6920TIP3   OH242394   4.251   1.101   8.013  0.2150  0.0577  0.9494
 6920TIP3    H142395   4.298   1.167   8.065 -1.5779  1.8257  0.4376
 6920TIP3    H242396   4.262   1.130   7.922  1.0839 -1.5287  0.5016
 6921TIP3   OH242397   6.000   5.297   0.113  0.0102 -0.8902  0.2762
 6921TIP3    H142398   5.915   5.264   0.139 -0.9156 -0.2642 -1.7555
 6921TIP3    H242399   6.036   5.229   0.055 -0.3220 -0.0147 -1.0101
 6922TIP3   OH242400   1.497   1.405   0.618  0.1634  0.2605 -0.0169
 6922TIP3    H142401   1.515   1.494   0.588 -0.5977 -0.0295 -1.3972
 6922TIP3    H242402   1.545   1.348   0.558  2.3397 -0.2712  2.0683
 6923TIP3   OH242403   1.229   6.682   2.524 -0.4360  0.3114  1.0457
 6923TIP3    H142404   1.288   6.629   2.470 -0.3791 -0.3920  1.7968
 6923TIP3    H242405   1.239   6.771   2.489 -0.3288 -0.1113 -0.0447
 6924TIP3   OH242406   3.831   4.143   1.326  0.3669  0.4633 -0.3247
 6924TIP3    H142407   3.807   4.067   1.273 -0.9244  0.8847 -0.3844
 6924TIP3    H242408   3.828   4.111   1.416  0.9561  0.1548 -0.4145
 6925TIP3   OH242409   2.988   4.412   2.001  0.0142 -0.1300  0.4137
 6925TIP3    H142410   2.992   4.360   1.920 -0.1523  0.3861  0.0699
 6925TIP3    H242411   2.907   4.383   2.044 -0.1359 -0.0791  0.1680
 6926TIP3   OH242412   1.939   0.399   8.320  0.2881  0.0026  0.2056
 6926TIP3    H142413   1.985   0.323   8.285  2.0278  0.4850  1.3211
 6926TIP3    H242414   1.867   0.362   8.371  0.9231 -0.9116  0.4675
 6927TIP3   OH242415   6.269   1.683   2.297 -0.3228  0.3426  0.1450
 6927TIP3    H142416   6.337   1.735   2.254 -0.6375 -0.6093 -1.6251
 6927TIP3    H242417   6.306   1.595   2.302 -0.3812  0.3910  1.6916
 6928TIP3   OH242418   2.110   1.015   1.438 -0.5410 -0.3475 -0.4116
 6928TIP3    H142419   2.036   1.075   1.448 -0.5961 -0.4837  0.0484
 6928TIP3    H242420   2.074   0.943   1.386 -1.5427 -1.6826  1.9232
 6929TIP3   OH242421   0.215   6.300   7.987  0.2823 -0.3228  0.4059
 6929TIP3    H142422   0.304   6.265   7.978 -0.1028 -0.9446 -1.6032
 6929TIP3    H242423   0.224   6.393   7.963  0.2194 -0.6794 -1.1047
 6930TIP3   OH242424   5.919   4.616   1.471 -0.2554 -0.2954 -0.3490
 6930TIP3    H142425   5.926   4.688   1.534 -0.2417  1.1071 -1.8847
 6930TIP3    H242426   5.831   4.625   1.435 -1.5140 -3.0695  1.6902
 6931TIP3   OH242427   1.318   6.462   0.298 -0.4537  0.1645  0.5108
 6931TIP3    H142428   1.344   6.552   0.279  1.0438 -0.5812 -1.2918
 6931TIP3    H242429   1.326   6.454   0.393 -0.1642  1.7937  0.6472
 6932TIP3   OH242430   4.495   1.858   0.352  0.7415 -1.0962  0.0096
 6932TIP3    H142431   4.427   1.824   0.410  1.5915 -0.6928  1.2773
 6932TIP3    H242432   4.557   1.902   0.410 -0.0257  2.2437 -1.4684
 6933TIP3   OH242433   5.172   1.753   1.453  0.6462 -0.1979  0.3151
 6933TIP3    H142434   5.224   1.727   1.377 -0.0306 -0.2965 -0.1266
 6933TIP3    H242435   5.209   1.704   1.526 -1.0800 -3.1629 -0.6051
 6934TIP3   OH242436   0.113   1.330   0.620 -0.5064 -0.1959 -0.3878
 6934TIP3    H142437   0.033   1.373   0.591 -0.4422 -0.0071 -0.2820
 6934TIP3    H242438   0.086   1.240   0.639 -0.4234 -0.5135 -1.6652
 6935TIP3   OH242439   0.829   1.542   0.144  0.3195  0.5526 -0.0136
 6935TIP3    H142440   0.836   1.535   0.240 -0.7365 -2.6522 -0.0511
 6935TIP3    H242441   0.912   1.582   0.118 -0.2668  3.7148  2.2991
 6936TIP3   OH242442   3.334   4.818   7.422 -0.1087  0.4159  0.2779
 6936TIP3    H142443   3.417   4.845   7.460 -1.3246  0.4431  3.2091
 6936TIP3    H242444   3.300   4.753   7.483 -2.6918  1.1374 -0.2764
 6937TIP3   OH242445   0.025   3.341   8.686 -0.5057 -0.4418  0.3542
 6937TIP3    H142446   0.067   3.342   8.772  0.8273  0.4437 -0.2627
 6937TIP3    H242447   0.097   3.325   8.625 -1.3337 -0.4599 -0.6403
 6938TIP3   OH242448   4.862   2.279   0.956  0.2189 -0.2210  0.2179
 6938TIP3    H142449   4.957   2.282   0.967  0.2718  0.7463 -0.3949
 6938TIP3    H242450   4.838   2.368   0.930 -0.5863 -0.9280 -1.6429
 6939TIP3   OH242451   2.053   1.912   0.518 -0.1036 -0.0304 -0.7021
 6939TIP3    H142452   2.044   1.990   0.463 -0.2382  0.1932 -0.3691
 6939TIP3    H242453   2.140   1.879   0.499 -0.3479 -0.2679 -1.4566
 6940TIP3   OH242454   6.547   1.331   6.403  0.1211  0.2330  0.1921
 6940TIP3    H142455   6.517   1.255   6.353 -1.1698  1.0256 -0.2983
 6940TIP3    H242456   6.629   1.303   6.443 -0.2562 -1.3625 -0.0915
 6941TIP3   OH242457   1.712   4.446   0.224  0.1641  0.8326 -0.2623
 6941TIP3    H142458   1.669   4.360   0.230 -1.6767  1.6624 -0.6983
 6941TIP3    H242459   1.716   4.464   0.130  1.0490  0.9955 -0.2013
 6942TIP3   OH242460   5.360   5.852   6.410 -0.2918 -0.1217 -0.7751
 6942TIP3    H142461   5.424   5.781   6.416 -0.3851 -0.0997  1.0952
 6942TIP3    H242462   5.276   5.807   6.401 -0.2160 -0.1944 -1.1529
 6943TIP3   OH242463   0.907   3.834   2.457 -0.2249 -0.4967  0.1556
 6943TIP3    H142464   0.996   3.834   2.423  0.0125 -0.3277  0.7505
 6943TIP3    H242465   0.871   3.749   2.431 -0.7603  0.3807 -2.2249
 6944TIP3   OH242466   4.274   0.840   1.078 -0.2779  0.6279  0.7289
 6944TIP3    H142467   4.180   0.839   1.063 -0.2684 -0.4032  0.6579
 6944TIP3    H242468   4.302   0.926   1.047 -1.0258  0.5213 -0.3182
 6945TIP3   OH242469   3.201   6.393   0.267 -0.1480 -0.0299 -0.5483
 6945TIP3    H142470   3.292   6.380   0.241 -0.3647 -0.3476 -1.1757
 6945TIP3    H242471   3.170   6.463   0.211 -0.7000 -0.9067 -1.3581
 6946TIP3   OH242472   3.675   2.633   1.009  0.2227  0.2181  0.2465
 6946TIP3    H142473   3.653   2.664   1.097 -0.2830  2.6389 -0.6565
 6946TIP3    H242474   3.770   2.618   1.012  0.4230  1.4457  0.9264
 6947TIP3   OH242475   4.883   1.651   8.475  0.0863  0.3178 -0.7686
 6947TIP3    H142476   4.896   1.562   8.509 -2.4248 -1.1104 -3.0747
 6947TIP3    H242477   4.839   1.697   8.546 -0.1350 -0.8469 -0.1197
 6948TIP3   OH242478   3.124   0.878   6.053  0.5647  0.7567  0.0705
 6948TIP3    H142479   3.096   0.892   5.963  0.7741  1.2188  0.0734
 6948TIP3    H242480   3.067   0.934   6.106  0.4011  0.4409  0.2333
 6949TIP3   OH242481   0.004   2.513   0.101 -0.0837 -0.5524  0.2766
 6949TIP3    H142482  -0.030   2.577   0.038  1.7877  0.3693  0.1425
 6949TIP3    H242483   0.055   2.565   0.163  1.4427 -1.8846  0.2056
 6950TIP3   OH242484   5.104   3.347   0.640 -0.3063  0.6522  0.8020
 6950TIP3    H142485   5.103   3.334   0.735  1.0609 -1.7360  0.5814
 6950TIP3    H242486   5.189   3.313   0.612 -0.9086  0.7369 -1.3544
 6951TIP3   OH242487   5.927   4.827   0.580 -0.2822  0.1379 -0.1643
 6951TIP3    H142488   5.854   4.810   0.521 -0.1787 -0.5574 -0.0931
 6951TIP3    H242489   5.887   4.872   0.655 -0.2071  2.3929 -1.3727
 6952TIP3   OH242490   4.657   0.929   2.088  0.0606  0.2256 -0.5105
 6952TIP3    H142491   4.590   0.948   2.154  0.1944  0.3083 -0.3985
 6952TIP3    H242492   4.649   1.001   2.025  0.8495  0.8956  0.1346
 6953TIP3   OH242493   2.097   6.249   1.098 -0.0034  0.6024 -0.0098
 6953TIP3    H142494   2.163   6.246   1.028 -0.2387 -1.0802 -0.1912
 6953TIP3    H242495   2.013   6.244   1.052 -0.1752 -0.0361  0.3689
 6954TIP3   OH242496   6.470   4.911   6.712 -0.0064 -0.5989  0.0251
 6954TIP3    H142497   6.432   4.970   6.648  0.7534 -1.9881 -1.7930
 6954TIP3    H242498   6.521   4.849   6.660  1.2213 -1.3773  2.0303
 6955TIP3   OH242499   6.365   0.219   6.488 -0.4454 -0.2461 -0.0405
 6955TIP3    H142500   6.415   0.280   6.543  1.6716 -0.4131 -1.6699
 6955TIP3    H242501   6.337   0.272   6.413 -2.5654 -0.2395  0.6767
 6956TIP3   OH242502   1.324   0.697   1.659 -0.0239 -0.1819 -0.0039
 6956TIP3    H142503   1.256   0.764   1.671  0.0674 -0.0641 -0.1404
 6956TIP3    H242504   1.337   0.659   1.746 -0.7107 -0.6343 -0.0883
 6957TIP3   OH242505   4.075   1.960   1.466 -0.4059  0.3161 -0.5223
 6957TIP3    H142506   4.105   2.039   1.512  0.4726 -0.5063  0.3398
 6957TIP3    H242507   3.986   1.982   1.439 -0.5106  1.2810  0.4937
 6958TIP3   OH242508   5.535   2.800   2.203  0.1417 -0.2073 -0.6296
 6958TIP3    H142509   5.601   2.735   2.177  0.8829  0.0641  0.4770
 6958TIP3    H242510   5.477   2.753   2.262 -1.4426 -0.7819 -2.5692
 6959TIP3   OH242511   3.820   1.911   1.386  0.6758 -0.3111  0.5949
 6959TIP3    H142512   3.757   1.843   1.411 -0.7099  0.3075 -1.0276
 6959TIP3    H242513   3.833   1.900   1.292 -0.9437  2.6312 -0.1220
 6960TIP3   OH242514   4.356   5.738   0.814  0.4129 -0.1393 -0.1767
 6960TIP3    H142515   4.347   5.800   0.887  0.8169  1.2892 -1.2897
 6960TIP3    H242516   4.375   5.654   0.856 -0.1158  0.4861  1.3815
 6961TIP3   OH242517   5.543   1.299   0.503  0.1869 -0.4437  0.1528
 6961TIP3    H142518   5.522   1.382   0.547 -0.4090 -0.3407 -0.3145
 6961TIP3    H242519   5.463   1.275   0.458  0.6826 -0.7423 -0.5831
 6962TIP3   OH242520   0.872   1.191   8.147 -0.6371 -0.5252 -0.0069
 6962TIP3    H142521   0.851   1.269   8.197 -1.8999 -1.8413  1.6519
 6962TIP3    H242522   0.967   1.189   8.143 -0.5893  0.9236  0.1711
 6963TIP3   OH242523   6.216   0.745   7.987 -0.1093 -0.2479  0.2656
 6963TIP3    H142524   6.280   0.802   7.944  0.3502 -0.2971  0.8713
 6963TIP3    H242525   6.261   0.660   7.994 -1.2122 -1.0609 -1.7183
 6964TIP3   OH242526   0.780   1.465   1.340 -0.0855 -0.9131 -0.1640
 6964TIP3    H142527   0.834   1.491   1.414 -0.5907  0.8357 -0.3563
 6964TIP3    H242528   0.767   1.546   1.290  0.8471 -2.1413 -2.5852
 6965TIP3   OH242529   1.861   4.946   6.538  0.4499 -0.7649  0.5504
 6965TIP3    H142530   1.948   4.982   6.556 -0.8229  4.3249 -1.5706
 6965TIP3    H242531   1.864   4.919   6.446 -0.6572  1.8714 -0.3651
 6966TIP3   OH242532   0.062   2.903   7.349  0.4170 -0.0531 -0.1995
 6966TIP3    H142533   0.017   2.839   7.295  0.9928  0.6448 -1.5365
 6966TIP3    H242534   0.001   2.921   7.420 -1.2940  0.6000 -1.7667
 6967TIP3   OH242535   4.521   2.616   8.316  0.5783  0.1175  0.5253
 6967TIP3    H142536   4.606   2.625   8.273  1.1993 -0.8747  1.4858
 6967TIP3    H242537   4.543   2.592   8.406 -0.7223  0.3130  0.9108
 6968TIP3   OH242538   0.226   6.741   8.520  0.5124  0.2612  0.1366
 6968TIP3    H142539   0.317   6.713   8.524 -0.4420 -3.2384  1.2398
 6968TIP3    H242540   0.215   6.799   8.595  1.2897 -1.3838  1.5981
 6969TIP3   OH242541   3.981   4.876   0.139  0.2372  0.2681  0.1915
 6969TIP3    H142542   4.019   4.831   0.064 -0.4757 -1.3284  0.7550
 6969TIP3    H242543   3.890   4.847   0.141  0.1618  0.5278  1.5033
 6970TIP3   OH242544   2.041   0.082   1.828  0.0679 -0.2518  0.4035
 6970TIP3    H142545   2.018   0.169   1.797 -0.6978 -0.3514  0.6671
 6970TIP3    H242546   1.981   0.066   1.901  0.4686 -0.8384  0.6118
 6971TIP3   OH242547   2.853   6.113   8.796 -0.0863 -0.0708 -0.5912
 6971TIP3    H142548   2.928   6.133   8.852  0.2868  0.2260 -1.1854
 6971TIP3    H242549   2.890   6.063   8.724 -0.4594  0.0866 -0.8923
 6972TIP3   OH242550   3.625   2.493   0.057 -0.4486  0.1694  0.0011
 6972TIP3    H142551   3.541   2.490   0.103  0.5318 -2.1942  1.8545
 6972TIP3    H242552   3.663   2.578   0.081 -1.6631  0.6474  0.2935
 6973TIP3   OH242553   4.451   6.573   6.671 -0.0764  0.4039 -0.0950
 6973TIP3    H142554   4.487   6.527   6.594  1.7943  0.1879  0.8459
 6973TIP3    H242555   4.416   6.654   6.635  1.1410  0.5079 -1.1543
 6974TIP3   OH242556   4.834   1.576   8.175 -0.3788 -0.9512 -0.2655
 6974TIP3    H142557   4.838   1.496   8.226 -3.2553 -0.8180  0.3478
 6974TIP3    H242558   4.826   1.646   8.240 -0.3130 -0.4012 -0.8343
 6975TIP3   OH242559   3.051   1.080   0.356 -0.3527 -0.7475  0.6497
 6975TIP3    H142560   2.995   1.004   0.374  0.8222 -1.1372  3.0899
 6975TIP3    H242561   3.094   1.059   0.273  1.4575 -3.8392  2.1760
 6976TIP3   OH242562   3.653   0.408   6.231 -0.2273  0.3873  0.2742
 6976TIP3    H142563   3.694   0.449   6.306 -0.5131 -0.6048  0.9896
 6976TIP3    H242564   3.623   0.481   6.177  2.1420  1.1552 -0.1166
 6977TIP3   OH242565   1.971   4.080   7.346 -0.4156  0.2588 -0.1580
 6977TIP3    H142566   2.036   4.076   7.416  1.6524 -0.7651 -2.0101
 6977TIP3    H242567   2.016   4.125   7.274 -1.5818 -0.8721 -1.6519
 6978TIP3   OH242568   0.383   2.584   7.321 -0.3005 -0.2615  0.7261
 6978TIP3    H142569   0.401   2.665   7.273 -2.3008 -1.1373 -1.7101
 6978TIP3    H242570   0.457   2.527   7.301 -1.0118 -0.5426 -1.2501
 6979TIP3   OH242571   3.092   0.986   8.554 -0.1410  0.3445 -0.1614
 6979TIP3    H142572   3.128   1.062   8.599  1.1804 -0.1966 -0.2515
 6979TIP3    H242573   2.999   0.987   8.574  0.2527  0.6511  1.7939
 6980TIP3   OH242574   0.817   0.484   1.181  0.2567 -0.7249 -0.4216
 6980TIP3    H142575   0.889   0.481   1.244 -0.0126 -0.4872 -0.0997
 6980TIP3    H242576   0.796   0.576   1.172  0.3252 -0.7522 -0.9034
 6981TIP3   OH242577   3.447   2.559   0.875  0.2617 -0.0132  0.2242
 6981TIP3    H142578   3.386   2.620   0.916 -0.0643 -0.0676 -0.1759
 6981TIP3    H242579   3.531   2.577   0.917 -0.0028  0.1467  0.6903
 6982TIP3   OH242580   1.844   5.682   7.582  0.4804 -0.0881  0.4661
 6982TIP3    H142581   1.821   5.696   7.490 -0.3346 -1.4954  0.4153
 6982TIP3    H242582   1.847   5.769   7.620  1.0886  0.5397 -0.9536
 6983TIP3   OH242583   0.226   4.680   6.626  0.1652  0.2227 -0.5782
 6983TIP3    H142584   0.274   4.758   6.599  0.0781  0.8474  1.0013
 6983TIP3    H242585   0.273   4.607   6.585  0.6789  1.0279 -1.4713
 6984TIP3   OH242586   1.686   5.232   8.976  0.8632  0.6674 -0.1027
 6984TIP3    H142587   1.693   5.299   8.908  1.4381 -0.1177 -0.8351
 6984TIP3    H242588   1.593   5.233   9.002  1.0795  2.5358  0.7371
 6985TIP3   OH242589   6.005   0.171   1.047  0.1114 -0.0371 -0.1097
 6985TIP3    H142590   5.931   0.202   0.995 -0.2462 -0.2993  0.2369
 6985TIP3    H242591   6.021   0.242   1.110  0.6371  0.3444 -0.6565
 6986TIP3   OH242592   4.192   6.779   0.753  0.1040  0.3831  0.6347
 6986TIP3    H142593   4.106   6.778   0.710  0.8575 -1.6284 -1.0101
 6986TIP3    H242594   4.239   6.851   0.710 -1.1338  2.4288  2.5289
 6987TIP3   OH242595   2.527   2.492   2.084 -0.1577 -0.0410 -0.0409
 6987TIP3    H142596   2.466   2.421   2.064 -1.0676  0.8073 -0.3688
 6987TIP3    H242597   2.524   2.549   2.007  1.3933 -0.1965 -0.2564
 6988TIP3   OH242598   5.186   4.773   8.242 -0.0006 -0.0654  0.4408
 6988TIP3    H142599   5.144   4.702   8.291  0.7459 -0.7297  0.1409
 6988TIP3    H242600   5.115   4.813   8.192 -0.3861 -0.7933  0.3883
 6989TIP3   OH242601   6.606   4.899   7.851 -0.0524  0.7508  0.5315
 6989TIP3    H142602   6.585   4.933   7.938 -0.3218 -0.2520  0.8752
 6989TIP3    H242603   6.529   4.849   7.825 -0.0088  1.1305 -0.3297
 6990TIP3   OH242604   1.214   1.609   2.004 -0.0571  0.0396 -0.3503
 6990TIP3    H142605   1.309   1.604   1.997  0.1952  1.2076  1.4403
 6990TIP3    H242606   1.193   1.700   1.983 -0.7550 -0.1620 -0.5607
 6991TIP3   OH242607   5.464   3.304   7.672  0.5887  0.0678 -0.3660
 6991TIP3    H142608   5.464   3.343   7.584  0.3066  1.0535  0.0548
 6991TIP3    H242609   5.500   3.372   7.728  0.7627 -0.5572  0.2896
 6992TIP3   OH242610   4.650   5.301   7.914  0.1225 -0.0233  0.1588
 6992TIP3    H142611   4.577   5.361   7.899 -0.2407 -0.2504  0.9353
 6992TIP3    H242612   4.642   5.236   7.843 -0.4375 -0.0443  0.2316
 6993TIP3   OH242613   2.329   1.996   7.753 -0.0886 -0.3807  0.4232
 6993TIP3    H142614   2.277   1.947   7.817 -0.5693 -0.2714  0.1176
 6993TIP3    H242615   2.277   1.995   7.673  0.3321 -0.1815  0.1404
 6994TIP3   OH242616   5.286   1.591   8.904 -0.7746 -0.0185  0.6940
 6994TIP3    H142617   5.208   1.645   8.899 -0.4952  0.2297 -1.7991
 6994TIP3    H242618   5.269   1.518   8.845 -0.3336 -1.6574  2.4846
 6995TIP3   OH242619   4.595   5.569   1.800 -0.1689  0.1030  0.2297
 6995TIP3    H142620   4.600   5.633   1.729 -1.5656 -1.9485 -1.8426
 6995TIP3    H242621   4.511   5.587   1.843 -0.4810 -0.2256 -0.2416
 6996TIP3   OH242622   2.958   2.704   7.553 -0.3607  1.0496 -0.1619
 6996TIP3    H142623   2.954   2.653   7.633  0.1380 -1.0882 -1.4183
 6996TIP3    H242624   2.878   2.757   7.554 -1.7404 -0.9358  0.4742
 6997TIP3   OH242625   4.342   3.437   8.939 -0.0210 -0.0492 -0.0883
 6997TIP3    H142626   4.382   3.350   8.947 -1.0619 -0.5317  0.0082
 6997TIP3    H242627   4.416   3.498   8.942  0.7734 -0.9533 -0.6420
 6998TIP3   OH242628   6.437   4.263   7.619  0.5067  0.0684 -0.2662
 6998TIP3    H142629   6.363   4.217   7.580  0.4424  0.1944 -0.2959
 6998TIP3    H242630   6.465   4.208   7.692 -0.8799  0.9764  0.9974
 6999TIP3   OH242631   6.419   5.299   8.351  0.5110 -0.0819  0.0502
 6999TIP3    H142632   6.459   5.213   8.362  2.1568  0.4056 -1.5147
 6999TIP3    H242633   6.325   5.283   8.359  0.5972 -2.4425 -2.2575
 7000TIP3   OH242634   0.372   6.014   8.434 -0.1062  0.4266 -0.1146
 7000TIP3    H142635   0.350   6.099   8.473 -1.4578 -0.1747  0.4981
 7000TIP3    H242636   0.290   5.984   8.396  0.5796 -0.2111 -1.1099
 7001TIP3   OH242637   5.557   0.653   1.829  0.0230  0.4846 -0.1797
 7001TIP3    H142638   5.469   0.668   1.796 -1.4192 -3.0391  1.5058
 7001TIP3    H242639   5.596   0.591   1.767 -0.3094 -1.1183  1.1220
 7002TIP3   OH242640   1.473   0.046   8.417  0.0140  0.4219  0.0095
 7002TIP3    H142641   1.489   0.094   8.336  0.5746 -0.9952 -0.7518
 7002TIP3    H242642   1.461   0.114   8.483 -0.7296  1.6168 -1.2949
 7003TIP3   OH242643   4.060   4.245   6.875 -0.2234 -0.2593 -0.0645
 7003TIP3    H142644   4.104   4.254   6.790 -0.4139  1.3346 -0.0358
 7003TIP3    H242645   3.971   4.218   6.853  1.0601 -5.5038 -0.0409
 7004TIP3   OH242646   3.787   4.948   8.124  0.2774  0.4146 -0.4555
 7004TIP3    H142647   3.756   4.949   8.033  2.2419  0.0284 -1.1694
 7004TIP3    H242648   3.870   4.900   8.121 -0.4978 -1.2865  1.8660
 7005TIP3   OH242649   0.492   3.572   1.574 -0.1115  0.2393 -0.0666
 7005TIP3    H142650   0.447   3.614   1.647 -0.5649 -0.0614 -0.1733
 7005TIP3    H242651   0.576   3.544   1.610 -0.2581  0.2586  0.2875
 7006TIP3   OH242652   4.442   0.312   7.150  0.0787  0.0468  0.5175
 7006TIP3    H142653   4.366   0.265   7.115 -1.4140  2.7756 -0.1116
 7006TIP3    H242654   4.410   0.355   7.229  0.4617  2.4909 -0.5842
 7007TIP3   OH242655   1.034   1.265   1.337 -0.1934  0.1693 -0.2244
 7007TIP3    H142656   1.008   1.224   1.420 -0.6048 -0.9317 -0.8646
 7007TIP3    H242657   0.958   1.250   1.279  1.0823 -1.4822 -1.5876
 7008TIP3   OH242658   5.594   0.154   1.212 -0.1320  0.3544  0.4292
 7008TIP3    H142659   5.511   0.199   1.222 -0.5863 -0.0843 -1.1564
 7008TIP3    H242660   5.633   0.190   1.132  1.9243  1.6003  1.8711
 7009TIP3   OH242661   3.626   0.552   7.778  0.1753 -0.1549  0.3002
 7009TIP3    H142662   3.575   0.569   7.857 -0.0804 -0.2810  0.1597
 7009TIP3    H242663   3.631   0.457   7.772 -0.0527 -0.1477  0.0033
 7010TIP3   OH242664   6.131   2.878   1.045  0.1276 -0.6358 -0.9990
 7010TIP3    H142665   6.197   2.947   1.040 -0.2593 -0.3025 -1.6746
 7010TIP3    H242666   6.170   2.811   1.101  0.0976  0.5779  0.5082
 7011TIP3   OH242667   0.319   4.322   7.507 -0.0648  0.9046  0.5913
 7011TIP3    H142668   0.369   4.287   7.433 -1.0312  1.0906 -0.1758
 7011TIP3    H242669   0.376   4.310   7.583  1.2433  1.3388 -0.2831
 7012TIP3   OH242670   2.985   3.907   8.383 -0.4076  0.3049 -0.7985
 7012TIP3    H142671   3.030   3.979   8.428  0.8274 -0.7655 -0.2165
 7012TIP3    H242672   2.987   3.835   8.447 -2.1929 -0.0600 -1.1104
 7013TIP3   OH242673   0.031   0.155   7.758 -0.2723  0.4583  0.1556
 7013TIP3    H142674   0.042   0.103   7.837  0.4213  2.9889  1.8599
 7013TIP3    H242675  -0.064   0.168   7.750 -0.5696 -1.8590 -0.9594
 7014TIP3   OH242676   0.593   0.220   6.898  0.8491 -0.1107  0.7178
 7014TIP3    H142677   0.506   0.191   6.871  1.0520  0.6325 -0.8430
 7014TIP3    H242678   0.647   0.208   6.820  2.2558 -0.9173  1.7730
 7015TIP3   OH242679   0.926   1.609   1.780 -0.0020  0.6107 -0.2392
 7015TIP3    H142680   0.893   1.690   1.818 -1.7285  0.0522 -0.4530
 7015TIP3    H242681   0.891   1.540   1.836 -0.8573 -0.1198 -1.6113
 7016TIP3   OH242682   4.431   2.422   0.280  0.5757  0.0031  0.7498
 7016TIP3    H142683   4.520   2.394   0.301  0.8247 -0.6404 -0.9596
 7016TIP3    H242684   4.398   2.354   0.221  0.2932  2.0102 -1.5860
 7017TIP3   OH242685   2.833   4.545   7.997 -0.1998  0.0784  0.1461
 7017TIP3    H142686   2.886   4.475   8.036  0.3151  1.6720  2.4829
 7017TIP3    H242687   2.772   4.570   8.066 -1.2739  1.0705 -1.1144
 7018TIP3   OH242688   3.892   0.644   7.721 -0.4973 -0.3746  0.1919
 7018TIP3    H142689   3.913   0.722   7.772  1.0522 -0.3840 -0.3705
 7018TIP3    H242690   3.800   0.626   7.741 -0.0915 -0.1333  2.6465
 7019TIP3   OH242691   2.894   5.437   7.833  0.1775  0.5289 -1.2243
 7019TIP3    H142692   2.987   5.445   7.814  0.4764 -0.9473 -0.5355
 7019TIP3    H242693   2.890   5.381   7.911 -1.2945  0.0397 -1.6090
 7020TIP3   OH242694   3.727   6.372   0.487 -0.0959 -0.4571 -0.1656
 7020TIP3    H142695   3.742   6.438   0.419 -1.6916 -1.3834 -1.5023
 7020TIP3    H242696   3.659   6.409   0.542 -1.1722 -1.0325 -1.0635
 7021TIP3   OH242697   2.678   3.802   0.091 -0.5041 -0.0265 -0.3336
 7021TIP3    H142698   2.686   3.888   0.049  0.0706  0.2476  0.3285
 7021TIP3    H242699   2.592   3.770   0.062 -1.5557  1.5666  0.8774
 7022TIP3   OH242700   1.016   1.302   8.923 -0.2234  0.9170  0.1077
 7022TIP3    H142701   0.960   1.358   8.869 -2.2007 -0.6723  0.3681
 7022TIP3    H242702   1.078   1.264   8.861 -0.8271  1.0615 -0.5983
 7023TIP3   OH242703   5.356   4.491   8.236 -0.8554  0.3060  0.0856
 7023TIP3    H142704   5.427   4.478   8.173 -1.8783  1.4650 -1.3661
 7023TIP3    H242705   5.394   4.547   8.304 -0.7769  2.2417 -1.4811
 7024TIP3   OH242706   2.210   3.554   1.293 -0.3191  0.0413 -0.3248
 7024TIP3    H142707   2.121   3.534   1.322  0.9602 -2.2433  2.5496
 7024TIP3    H242708   2.220   3.506   1.210 -1.4247 -0.5650 -0.1281
 7025TIP3   OH242709   2.269   5.448   0.163 -0.2961 -0.7818  0.4125
 7025TIP3    H142710   2.313   5.456   0.079  0.3525  0.6988  0.8501
 7025TIP3    H242711   2.339   5.440   0.227 -0.6852  0.2633  0.9965
 7026TIP3   OH242712   5.716   4.989   1.128  0.1017  0.3183 -0.1469
 7026TIP3    H142713   5.628   4.965   1.156 -0.0201  1.3577  0.4175
 7026TIP3    H242714   5.773   4.958   1.199  0.0028  1.1618  0.3110
 7027TIP3   OH242715   6.353   6.508   1.247 -0.2820 -0.0739  0.1040
 7027TIP3    H142716   6.350   6.467   1.160  1.4343 -0.2239  0.0794
 7027TIP3    H242717   6.432   6.473   1.287 -0.1715  1.2502  1.1137
 7028TIP3   OH242718   0.048   1.165   6.974  0.5543  0.7417 -0.8615
 7028TIP3    H142719  -0.027   1.173   6.914 -0.0827  0.7097 -0.0805
 7028TIP3    H242720   0.019   1.105   7.042  0.0275  3.2168  1.2827
 7029TIP3   OH242721   3.864   0.957   8.066 -0.6332 -0.1965 -0.2118
 7029TIP3    H142722   3.779   0.914   8.058 -1.0144  0.3760  0.6412
 7029TIP3    H242723   3.914   0.926   7.990 -1.2734 -1.2788 -0.2113
 7030TIP3   OH242724   1.836   3.104   1.093  0.3031 -0.0203 -0.2657
 7030TIP3    H142725   1.775   3.111   1.019 -0.6927 -0.2614  0.5063
 7030TIP3    H242726   1.863   3.194   1.110  0.1712  0.0897 -0.6165
 7031TIP3   OH242727   1.469   0.135   7.517  0.3946 -0.8430 -0.3221
 7031TIP3    H142728   1.420   0.200   7.466  0.4788 -0.1803  0.4423
 7031TIP3    H242729   1.470   0.057   7.460  0.8291 -0.0047 -1.5077
 7032TIP3   OH242730   2.857   4.419   7.727  0.5082  0.0308  0.1933
 7032TIP3    H142731   2.833   4.448   7.815 -0.6438 -0.1733 -0.0451
 7032TIP3    H242732   2.790   4.457   7.670  1.0188 -0.1704 -0.5493
 7033TIP3   OH242733   2.562   1.294   7.068 -0.0811 -0.0491 -0.2533
 7033TIP3    H142734   2.488   1.312   7.126  0.2392 -2.8342  1.2054
 7033TIP3    H242735   2.639   1.314   7.120  0.1966 -0.6597 -0.4162
 7034TIP3   OH242736   4.747   1.352   6.749  0.0613 -0.2900  0.0353
 7034TIP3    H142737   4.657   1.351   6.716  0.5143  0.8360 -1.3909
 7034TIP3    H242738   4.791   1.282   6.701  0.5984  1.0219 -1.4881
 7035TIP3   OH242739   0.811   3.115   0.093  0.1997 -0.3200  0.4509
 7035TIP3    H142740   0.887   3.072   0.130  0.2988 -1.2806 -0.7941
 7035TIP3    H242741   0.789   3.063   0.016 -1.1981  0.4339  0.3004
 7036TIP3   OH242742   0.156   3.521   1.485 -0.7174  0.7122  0.2051
 7036TIP3    H142743   0.116   3.591   1.433 -0.9796  1.5861  1.5225
 7036TIP3    H242744   0.202   3.567   1.556 -1.2959 -0.4491  1.3744
 7037TIP3   OH242745   1.672   4.698   0.320 -0.3036  0.2014  0.0877
 7037TIP3    H142746   1.580   4.722   0.310 -0.5474 -0.7104  0.0697
 7037TIP3    H242747   1.676   4.607   0.292  0.6095  0.2334  0.0893
 7038TIP3   OH242748   1.928   5.013   7.368  0.1096  0.1105  0.0923
 7038TIP3    H142749   1.834   4.992   7.368  0.4582 -1.6202  0.9567
 7038TIP3    H242750   1.965   4.955   7.301  0.5500  0.9328 -0.3858
 7039TIP3   OH242751   1.890   1.827   0.315  0.5589 -0.1440 -0.1948
 7039TIP3    H142752   1.925   1.846   0.402 -0.5643  2.4337 -0.2097
 7039TIP3    H242753   1.904   1.908   0.266 -1.8299 -0.3467 -1.3588
 7040TIP3   OH242754   3.283   3.496   7.572 -0.3947 -0.1351  0.3727
 7040TIP3    H142755   3.279   3.418   7.516  0.1652  0.7810 -0.9959
 7040TIP3    H242756   3.376   3.516   7.578 -0.6255  1.5872 -1.0134
 7041TIP3   OH242757   3.735   6.710   8.339  0.4212 -0.7747 -0.4256
 7041TIP3    H142758   3.696   6.787   8.297  1.0381 -0.3150 -0.1764
 7041TIP3    H242759   3.723   6.639   8.275 -1.5002 -0.8547 -0.0489
 7042TIP3   OH242760   1.977   4.361   1.621 -0.2303 -0.1686  0.2509
 7042TIP3    H142761   1.912   4.407   1.675 -0.7599 -0.0283 -0.4979
 7042TIP3    H242762   1.942   4.366   1.532  0.6268 -0.4188 -0.1053
 7043TIP3   OH242763   0.334   0.674   1.654 -0.1818  0.5123 -0.2418
 7043TIP3    H142764   0.320   0.700   1.563  2.4654 -0.9329 -1.1861
 7043TIP3    H242765   0.424   0.642   1.656 -0.7674 -1.3399  2.4592
 7044TIP3   OH242766   0.871   0.862   1.747 -0.5124 -0.2295 -0.4905
 7044TIP3    H142767   0.862   0.929   1.815 -1.1787  0.2896 -1.0658
 7044TIP3    H242768   0.865   0.779   1.793 -0.8066  0.1152  0.0999
 7045TIP3   OH242769   6.114   4.335   1.603  0.1162  0.4142 -0.0697
 7045TIP3    H142770   6.043   4.385   1.644  0.1471  1.4842 -1.2673
 7045TIP3    H242771   6.168   4.307   1.677 -1.8976 -1.0400  0.9451
 7046TIP3   OH242772   4.969   4.566   8.447  0.1591  0.2825 -0.1271
 7046TIP3    H142773   4.919   4.528   8.374  0.1549  0.0329  0.0055
 7046TIP3    H242774   4.904   4.579   8.516 -0.0388  1.4300 -0.4974
 7047TIP3   OH242775   3.432   4.062   1.105  0.0298 -0.3236 -0.0755
 7047TIP3    H142776   3.353   4.041   1.155 -0.0409 -2.0834 -0.8506
 7047TIP3    H242777   3.402   4.126   1.040 -1.2828 -2.3192 -1.5655
 7048TIP3   OH242778   2.568   2.924   7.750 -0.2298 -0.3489 -0.2723
 7048TIP3    H142779   2.661   2.940   7.740 -0.1194 -0.0409  1.1148
 7048TIP3    H242780   2.552   2.929   7.844 -1.1443 -3.0687 -0.1754
 7049TIP3   OH242781   3.405   3.490   0.702  0.1837 -0.1638  0.3533
 7049TIP3    H142782   3.454   3.500   0.784 -0.4834 -1.5605  0.9598
 7049TIP3    H242783   3.469   3.453   0.641  0.7751  1.1901  0.1196
 7050TIP3   OH242784   2.628   4.093   8.940  0.8963  0.0370  0.1514
 7050TIP3    H142785   2.666   4.173   8.902  0.3958 -0.7334 -2.1196
 7050TIP3    H242786   2.534   4.101   8.924  0.8960 -1.2394 -0.6483
 7051TIP3   OH242787   4.293   1.679   8.484 -0.1091  0.6143 -0.1086
 7051TIP3    H142788   4.215   1.671   8.429 -0.1611 -0.6100  0.1169
 7051TIP3    H242789   4.261   1.721   8.564 -0.8874 -1.1970  0.5901
 7052TIP3   OH242790   3.493   3.958   7.245 -0.5870  0.2760  0.4888
 7052TIP3    H142791   3.587   3.940   7.243 -0.8909 -1.7615  1.4525
 7052TIP3    H242792   3.485   4.047   7.210  1.8125  1.0365  1.6259
 7053TIP3   OH242793   4.710   0.248   7.075  0.2845 -0.4691 -0.4913
 7053TIP3    H142794   4.713   0.217   7.165 -1.2581 -2.0788 -0.9298
 7053TIP3    H242795   4.617   0.259   7.056  0.6388  1.1069 -1.5145
 7054TIP3   OH242796   0.801   1.589   7.923  0.0220 -0.2709 -0.2693
 7054TIP3    H142797   0.758   1.632   7.849 -0.3113 -1.0854 -0.5479
 7054TIP3    H242798   0.804   1.657   7.991 -2.3208 -0.3707  0.0145
 7055TIP3   OH242799   4.480   2.497   2.416  0.0884  0.5380  0.6911
 7055TIP3    H142800   4.467   2.535   2.329 -3.3339  0.3927  1.0125
 7055TIP3    H242801   4.491   2.573   2.474  2.7504  0.6322  0.2272
 7056TIP3   OH242802   0.084   2.525   8.659  0.2368 -0.6455  0.1713
 7056TIP3    H142803   0.145   2.460   8.625  0.7122  0.2171 -0.6861
 7056TIP3    H242804   0.139   2.596   8.690 -0.2984 -0.2900  0.3228
 7057TIP3   OH242805   0.434   5.750   2.327 -0.2355 -0.1016 -0.2344
 7057TIP3    H142806   0.401   5.829   2.369  1.0398  0.8456 -0.9277
 7057TIP3    H242807   0.522   5.738   2.364 -0.9930 -2.1417  1.0543
 7058TIP3   OH242808   5.261   3.151   0.282  0.3947  0.1647 -0.5225
 7058TIP3    H142809   5.339   3.104   0.311 -0.2870  0.5295  2.0777
 7058TIP3    H242810   5.223   3.188   0.362 -2.1160  0.5334 -1.7839
 7059TIP3   OH242811   2.570   3.667   7.348 -0.5937 -0.6358 -0.4937
 7059TIP3    H142812   2.530   3.754   7.347 -0.6841 -0.6583  0.2332
 7059TIP3    H242813   2.509   3.613   7.399  0.5736 -0.5426  1.0924
 7060TIP3   OH242814   3.862   2.196   1.402  0.6526 -0.1623 -0.0607
 7060TIP3    H142815   3.843   2.218   1.493  0.2713 -0.6305 -0.0250
 7060TIP3    H242816   3.805   2.121   1.383  0.8868 -0.2016 -0.6171
 7061TIP3   OH242817   1.663   5.413   8.772 -0.4095  0.5669  0.1714
 7061TIP3    H142818   1.675   5.440   8.681 -1.9357  1.6521  0.2588
 7061TIP3    H242819   1.579   5.367   8.773  0.2100 -0.5869  0.8092
 7062TIP3   OH242820   1.148   5.093   1.987  0.1584  0.0975  0.0644
 7062TIP3    H142821   1.112   5.161   1.929 -0.6161  0.4695  0.9493
 7062TIP3    H242822   1.076   5.030   1.997  0.8458 -0.8443 -0.6888
 7063TIP3   OH242823   0.295   5.016   2.587  0.7522 -0.0085 -0.0792
 7063TIP3    H142824   0.312   4.922   2.577  1.5460  0.2375 -1.2928
 7063TIP3    H242825   0.366   5.047   2.644  2.0164  0.2692 -1.7277
 7064TIP3   OH242826   5.525   5.035   8.113 -1.0614  0.6209  0.1097
 7064TIP3    H142827   5.441   5.048   8.068 -1.3792 -1.2641  0.0690
 7064TIP3    H242828   5.535   4.940   8.119 -0.2251  0.7728  2.5391
 7065TIP3   OH242829   6.100   1.326   8.405 -0.0971 -0.1057  0.2065
 7065TIP3    H142830   6.107   1.391   8.335 -0.5919 -0.1037  0.1539
 7065TIP3    H242831   6.111   1.377   8.486 -3.6944  0.6867  0.3825
 7066TIP3   OH242832   6.227   4.744   7.925 -0.4780 -0.2498  0.0255
 7066TIP3    H142833   6.290   4.757   7.854 -0.9272  0.5901 -0.2347
 7066TIP3    H242834   6.195   4.832   7.945 -3.5403 -0.8055 -1.6549
 7067TIP3   OH242835   3.759   1.080   7.768  0.2168  0.2326  1.1590
 7067TIP3    H142836   3.816   1.004   7.758 -0.4462 -0.2251  0.8259
 7067TIP3    H242837   3.786   1.119   7.852  1.5732  0.5115  0.6203
 7068TIP3   OH242838   0.440   0.559   0.200 -0.0591  0.0190  0.0928
 7068TIP3    H142839   0.374   0.570   0.269  1.0853  2.2585  0.9314
 7068TIP3    H242840   0.486   0.643   0.198  0.3518 -0.1801 -3.0122
 7069TIP3   OH242841   4.764   3.587   0.441  0.3749 -0.1042  0.1381
 7069TIP3    H142842   4.811   3.549   0.515  1.4383 -1.4674 -1.1715
 7069TIP3    H242843   4.773   3.522   0.371 -0.0246  1.4130 -1.3950
 7070TIP3   OH242844   2.341   0.934   0.636  0.7121 -0.4645 -0.1650
 7070TIP3    H142845   2.384   1.008   0.678 -0.5051 -0.7555  1.7281
 7070TIP3    H242846   2.409   0.866   0.632  1.5132  0.3550 -0.8933
 7071TIP3   OH242847   1.816   2.252   6.979  0.0847  0.1714  0.2916
 7071TIP3    H142848   1.885   2.301   6.936  0.4619  0.1462  0.8568
 7071TIP3    H242849   1.737   2.303   6.963  0.3235  0.4855  0.1085
 7072TIP3   OH242850   5.698   0.209   0.490  0.5761 -0.1541 -0.1254
 7072TIP3    H142851   5.692   0.288   0.436  1.4904 -0.6479 -0.9893
 7072TIP3    H242852   5.675   0.138   0.430 -2.8574 -0.3873  1.2938
 7073TIP3   OH242853   6.245   5.688   6.828  0.1026 -0.2811  0.4440
 7073TIP3    H142854   6.283   5.740   6.757  0.6558 -2.8665 -1.2995
 7073TIP3    H242855   6.163   5.654   6.792 -0.4998 -0.2347  1.7173
 7074TIP3   OH242856   6.742   4.403   2.382  0.3534  0.2749  0.4675
 7074TIP3    H142857   6.695   4.483   2.355  2.3828  2.1089  2.0117
 7074TIP3    H242858   6.801   4.384   2.309  1.2413  1.3645  0.8876
 7075TIP3   OH242859   4.560   1.509   6.397 -0.2713  0.2018 -0.1563
 7075TIP3    H142860   4.513   1.517   6.480  1.2759 -0.5912  0.8379
 7075TIP3    H242861   4.583   1.416   6.392  0.5320  0.4321 -0.9625
 7076TIP3   OH242862   0.936   3.056   0.598 -0.1620 -0.4871  0.0851
 7076TIP3    H142863   0.982   3.010   0.527  1.1284  1.7049 -0.5683
 7076TIP3    H242864   1.000   3.062   0.668  0.5681  2.2776 -0.7013
 7077TIP3   OH242865   2.383   3.263   7.290  0.0206  0.3099 -0.0132
 7077TIP3    H142866   2.329   3.311   7.228  0.3362  1.3394  0.4938
 7077TIP3    H242867   2.343   3.280   7.375  0.1525 -0.3121  0.1795
 7078TIP3   OH242868   1.874   5.565   7.841  0.1037  0.8701 -0.4574
 7078TIP3    H142869   1.858   5.592   7.751 -1.5560  1.1589 -0.1093
 7078TIP3    H242870   1.845   5.474   7.844  2.0959  0.1888 -0.6889
 7079TIP3   OH242871   1.606   5.350   0.829 -0.2523  0.2618 -0.2962
 7079TIP3    H142872   1.670   5.317   0.892  1.0570  2.6011 -0.3148
 7079TIP3    H242873   1.653   5.351   0.746  0.7493  4.4585  0.1222
 7080TIP3   OH242874   2.805   5.490   0.985  0.2609  0.1621 -0.3135
 7080TIP3    H142875   2.892   5.453   1.002 -0.2041 -0.6084  0.4730
 7080TIP3    H242876   2.810   5.524   0.896  1.9378  1.7753  0.3326
 7081TIP3   OH242877   3.317   1.622   7.164 -0.2930  0.0256 -0.0273
 7081TIP3    H142878   3.383   1.590   7.226 -0.9317  0.2090  0.7716
 7081TIP3    H242879   3.355   1.606   7.078 -0.0937 -1.8622  0.3572
 7082TIP3   OH242880   2.073   3.281   1.298 -0.2687  0.1583 -0.4112
 7082TIP3    H142881   2.013   3.236   1.357  0.3540 -1.8403 -1.2220
 7082TIP3    H242882   2.017   3.318   1.229 -0.6218 -1.4622 -1.0195
 7083TIP3   OH242883   3.921   6.521   1.898  0.5071  0.7378 -0.0454
 7083TIP3    H142884   3.983   6.485   1.961 -0.4178 -0.4176  0.2455
 7083TIP3    H242885   3.915   6.454   1.830 -3.4178 -1.2237  1.8990
 7084TIP3   OH242886   5.178   5.588   0.371  0.0438 -0.0522 -0.0469
 7084TIP3    H142887   5.090   5.589   0.409 -0.5080  0.8023 -1.2665
 7084TIP3    H242888   5.167   5.542   0.287  0.8992 -0.4852  0.0615
 7085TIP3   OH242889   4.755   0.726   8.068  0.0437  0.0216 -0.3030
 7085TIP3    H142890   4.817   0.667   8.023  1.6774  0.4547  1.2543
 7085TIP3    H242891   4.725   0.675   8.144 -0.2588  0.4041 -0.1638
 7086TIP3   OH242892   4.046   1.574   7.115  0.4609 -0.4180 -0.3835
 7086TIP3    H142893   3.972   1.515   7.128 -1.5185  2.4988  4.1068
 7086TIP3    H242894   4.112   1.544   7.178  0.7489  0.2159 -0.3675
 7087TIP3   OH242895   5.437   3.847   0.910  0.3221 -0.2659  0.5027
 7087TIP3    H142896   5.416   3.755   0.924  0.0316 -0.1852  0.6128
 7087TIP3    H242897   5.368   3.879   0.851  0.7476 -0.2595  0.0072
 7088TIP3   OH242898   3.438   5.715   6.950  0.1177 -0.5447 -0.3687
 7088TIP3    H142899   3.443   5.782   6.883 -0.1863  2.1165  2.0684
 7088TIP3    H242900   3.344   5.700   6.962  0.1893 -2.1480 -1.4909
 7089TIP3   OH242901   5.968   6.314   1.778 -0.1056 -0.1961 -0.1244
 7089TIP3    H142902   5.960   6.283   1.688 -0.7603 -2.1303  0.5449
 7089TIP3    H242903   5.917   6.394   1.781  0.6555  0.3836 -1.6716
 7090TIP3   OH242904   5.834   5.489   0.415 -0.6289 -0.3339 -0.1801
 7090TIP3    H142905   5.796   5.520   0.333 -1.2619 -0.0099  0.2349
 7090TIP3    H242906   5.780   5.414   0.439 -2.2242  1.2232  1.3673
 7091TIP3   OH242907   3.389   3.685   6.823  0.2756 -0.0797 -0.5841
 7091TIP3    H142908   3.321   3.648   6.879 -0.8076 -0.0267 -1.8043
 7091TIP3    H242909   3.387   3.631   6.744 -0.2229  1.5480 -1.7403
 7092TIP3   OH242910   3.056   3.081   8.335  0.2228  0.3045  0.1553
 7092TIP3    H142911   3.048   2.985   8.330 -1.1150  0.4050  0.0973
 7092TIP3    H242912   3.105   3.105   8.256 -0.1085 -0.2643 -0.2308
 7093TIP3   OH242913   1.400   2.328   7.965  0.4079  0.7550 -0.1614
 7093TIP3    H142914   1.494   2.312   7.971  0.3094  0.1851 -0.1408
 7093TIP3    H242915   1.383   2.398   8.028  0.1979 -1.7106  2.7153
 7094TIP3   OH242916   3.504   4.730   1.986 -0.6941 -0.3938  0.4228
 7094TIP3    H142917   3.528   4.796   1.921  0.4129 -1.0774  0.1122
 7094TIP3    H242918   3.434   4.680   1.946 -0.5287 -0.3325  0.0544
 7095TIP3   OH242919   3.980   0.651   7.092 -0.4804 -0.3167 -0.2899
 7095TIP3    H142920   3.912   0.672   7.028 -3.1583 -2.0419  1.7946
 7095TIP3    H242921   3.970   0.558   7.108  1.2916 -0.2868  1.3610
 7096TIP3   OH242922   5.221   6.204   1.081 -0.1827  0.4896  0.0172
 7096TIP3    H142923   5.177   6.287   1.101  1.0035  1.2142 -0.2648
 7096TIP3    H242924   5.299   6.230   1.031  0.6281 -0.7350  0.6087
 7097TIP3   OH242925   5.440   1.765   8.756  0.4247  0.1364  0.0075
 7097TIP3    H142926   5.384   1.755   8.679 -0.3584 -0.1289  0.6041
 7097TIP3    H242927   5.407   1.702   8.819  1.8279 -0.5145  0.1357
 7098TIP3   OH242928   0.702   0.812   6.389 -0.1416  0.4143 -0.6583
 7098TIP3    H142929   0.678   0.881   6.451  0.8067  0.7232 -0.6170
 7098TIP3    H242930   0.637   0.819   6.319  0.2721  1.7555 -0.9429
 7099TIP3   OH242931   3.944   1.623   0.036 -0.2129 -0.3239 -0.3801
 7099TIP3    H142932   3.900   1.637  -0.048 -0.0203 -0.7003 -0.5495
 7099TIP3    H242933   4.011   1.556   0.017  0.6447  0.4664 -0.2063
 7100TIP3   OH242934   0.401   3.407   1.051 -0.0827  0.1339 -0.0205
 7100TIP3    H142935   0.431   3.487   1.092 -1.6806  1.6840 -1.7027
 7100TIP3    H242936   0.364   3.435   0.967 -0.3820 -2.3992 -0.8280
 7101TIP3   OH242937   0.496   2.860   8.539  0.1666 -0.0056  0.1625
 7101TIP3    H142938   0.573   2.915   8.526 -0.4810  0.8383 -0.1927
 7101TIP3    H242939   0.438   2.882   8.466 -0.1715 -1.0490  0.1064
 7102TIP3   OH242940   0.529   4.229   1.581  0.4448  0.0921 -0.6457
 7102TIP3    H142941   0.468   4.209   1.510 -0.2231 -1.3842  0.2776
 7102TIP3    H242942   0.572   4.309   1.554 -0.3394 -0.0118 -2.3554
 7103TIP3   OH242943   0.235   3.716   0.879 -0.3165 -0.1232  0.5258
 7103TIP3    H142944   0.227   3.621   0.869 -0.6950 -0.1070  0.6544
 7103TIP3    H242945   0.161   3.751   0.829 -0.9958  0.0499  1.6290
 7104TIP3   OH242946   2.772   5.785   6.677 -0.0441 -0.1942  0.0030
 7104TIP3    H142947   2.761   5.809   6.585  0.8698 -0.6564 -0.2404
 7104TIP3    H242948   2.835   5.712   6.676  0.9864  0.6354  1.0703
 7105TIP3   OH242949   3.557   4.091   0.286  0.0452 -0.5355 -0.2802
 7105TIP3    H142950   3.490   4.146   0.244  1.4670  0.6187 -1.1766
 7105TIP3    H242951   3.516   4.058   0.365 -1.8671 -0.5990 -1.2437
 7106TIP3   OH242952   5.507   1.614   1.453 -0.4695  0.2966  0.1825
 7106TIP3    H142953   5.552   1.558   1.389  0.5215  0.5350  0.6375
 7106TIP3    H242954   5.446   1.665   1.401 -0.9343 -0.7418 -0.3350
 7107TIP3   OH242955   1.191   6.184   7.328  0.2305 -0.4870 -0.3481
 7107TIP3    H142956   1.114   6.239   7.316  1.0484  1.0123  0.9136
 7107TIP3    H242957   1.157   6.102   7.364 -0.6650  0.7999  1.9009
 7108TIP3   OH242958   5.168   6.777   8.650  0.1483 -0.0976  0.0742
 7108TIP3    H142959   5.178   6.778   8.745 -0.0254  1.0301  0.1004
 7108TIP3    H242960   5.117   6.699   8.631  0.9083 -0.7875  0.8268
 7109TIP3   OH242961   4.713   2.889   7.001 -0.6465 -0.5905  0.0651
 7109TIP3    H142962   4.622   2.889   6.971 -1.0974  0.2999  1.3135
 7109TIP3    H242963   4.760   2.836   6.937 -1.9901 -0.8211 -0.7695
 7110TIP3   OH242964   5.435   0.184   1.608 -0.0564  0.7322  0.0778
 7110TIP3    H142965   5.392   0.106   1.644  2.2838 -0.2096  1.0472
 7110TIP3    H242966   5.392   0.257   1.652 -2.2456  0.0449 -0.7835
 7111TIP3   OH242967   0.282   5.498   8.524  0.1845 -0.4662  0.2849
 7111TIP3    H142968   0.369   5.528   8.553  0.4370 -1.0577  0.1535
 7111TIP3    H242969   0.241   5.463   8.603  0.0759 -0.2227  0.3379
 7112TIP3   OH242970   4.059   2.938   0.810 -0.7934  0.4084 -0.4230
 7112TIP3    H142971   4.065   2.924   0.905  1.8242  0.3727 -0.5258
 7112TIP3    H242972   4.084   3.029   0.798 -1.1886  0.4331 -1.0840
 7113TIP3   OH242973   6.004   3.780   1.930 -0.1474 -0.3855 -0.1181
 7113TIP3    H142974   6.048   3.843   1.988  0.4944 -2.0599  1.3114
 7113TIP3    H242975   5.913   3.779   1.960 -0.7320  1.4836 -1.6542
 7114TIP3   OH242976   5.081   6.364   1.552  0.3149  0.1499  0.2045
 7114TIP3    H142977   5.060   6.278   1.589  1.0936 -1.3188 -2.4455
 7114TIP3    H242978   5.136   6.406   1.617  1.8476 -2.3680  0.6788
 7115TIP3   OH242979   5.260   2.913   2.115 -0.4497 -0.8328  1.0745
 7115TIP3    H142980   5.206   2.926   2.193  0.6687  1.0250  1.6100
 7115TIP3    H242981   5.350   2.914   2.147  0.1798  2.3097 -0.3809
 7116TIP3   OH242982   4.218   4.027   2.190  0.4604 -0.2569  0.1220
 7116TIP3    H142983   4.143   4.086   2.196  0.1973 -0.6067  0.3887
 7116TIP3    H242984   4.181   3.947   2.152  1.3218  0.6118 -2.8142
 7117TIP3   OH242985   5.163   3.718   8.004  0.2184 -0.4977  0.0269
 7117TIP3    H142986   5.134   3.705   7.914  2.5904  0.9012 -1.0336
 7117TIP3    H242987   5.193   3.809   8.007 -2.4319  0.4571  3.0703
 7118TIP3   OH242988   1.859   4.504   8.513  0.1843  0.1070 -0.2901
 7118TIP3    H142989   1.868   4.594   8.544  1.1414  0.5182 -1.6887
 7118TIP3    H242990   1.805   4.461   8.580 -1.0378  1.9320 -0.0180
 7119TIP3   OH242991   2.622   0.153   7.810  0.2155  0.4535 -0.4457
 7119TIP3    H142992   2.696   0.210   7.788  1.0973 -0.4458  0.1219
 7119TIP3    H242993   2.602   0.172   7.902 -0.3663  0.7925 -0.6332
 7120TIP3   OH242994   4.388   1.957   1.735  0.4637  0.4435 -0.2708
 7120TIP3    H142995   4.410   1.981   1.825 -0.0337  1.9970 -0.5301
 7120TIP3    H242996   4.358   2.039   1.695 -0.5459 -0.4757 -1.4879
 7121TIP3   OH242997   4.994   3.119   8.557  0.0952  0.1195 -0.4871
 7121TIP3    H142998   5.065   3.055   8.561 -0.5827 -0.6984 -0.9556
 7121TIP3    H242999   4.949   3.111   8.641  0.9582  1.1505  0.1001
 7122TIP3   OH243000   6.330   5.159   1.606  0.1898 -0.1008 -0.1838
 7122TIP3    H143001   6.338   5.225   1.537 -0.1947 -1.3646 -1.4770
 7122TIP3    H243002   6.237   5.135   1.606 -0.2217  1.2280  2.1106
 7123TIP3   OH243003   4.743   2.171   2.299  0.3407 -0.0850 -0.8970
 7123TIP3    H143004   4.781   2.256   2.318 -0.3395  0.3090 -1.2686
 7123TIP3    H243005   4.767   2.117   2.375  0.2724  0.5983 -0.3726
 7124TIP3   OH243006   4.687   6.217   7.849  0.1617 -0.2092  0.3129
 7124TIP3    H143007   4.771   6.262   7.852 -0.4254  0.8880  1.9402
 7124TIP3    H243008   4.622   6.287   7.845 -0.7055 -1.0087  0.0066
 7125TIP3   OH243009   6.791   1.511   7.583  0.1853  0.2672  0.8756
 7125TIP3    H143010   6.696   1.521   7.585  0.0264 -1.0523  2.7355
 7125TIP3    H243011   6.824   1.596   7.552 -1.5879  0.4812 -0.5721
 7126TIP3   OH243012   1.120   4.002   1.406 -0.1240  0.2094  0.1475
 7126TIP3    H143013   1.054   4.068   1.426 -0.3147 -0.5838  2.3550
 7126TIP3    H243014   1.090   3.922   1.449  2.0971 -0.2530  0.9909
 7127TIP3   OH243015   2.302   3.824   1.136 -0.4433 -0.1173 -0.0723
 7127TIP3    H143016   2.262   3.860   1.215 -1.5602 -1.2875 -0.0660
 7127TIP3    H243017   2.385   3.786   1.166 -0.6524 -0.1655  0.4500
 7128TIP3   OH243018   2.587   6.555   8.593 -0.2313  0.2111 -0.1910
 7128TIP3    H143019   2.570   6.615   8.520  0.4295  0.3087 -0.2791
 7128TIP3    H243020   2.621   6.612   8.662 -1.8560  0.2735  0.5786
 7129TIP3   OH243021   5.351   1.801   8.211  0.7379  0.2599  0.1911
 7129TIP3    H143022   5.272   1.798   8.265 -0.1738 -1.7085 -1.1593
 7129TIP3    H243023   5.422   1.778   8.271 -0.1180 -0.8703  0.7967
 7130TIP3   OH243024   1.717   6.174   6.985 -0.3226 -0.0421  0.1830
 7130TIP3    H143025   1.774   6.131   6.922 -1.5731 -1.5341  0.0069
 7130TIP3    H243026   1.628   6.161   6.951 -0.8605  1.4965  0.8617
 7131TIP3   OH243027   1.912   2.721   0.385  0.1608  0.0560 -0.4130
 7131TIP3    H143028   1.862   2.766   0.453 -0.8065 -0.2996 -0.8744
 7131TIP3    H243029   1.857   2.647   0.359  1.4400 -1.0561 -0.1111
 7132TIP3   OH243030   5.960   5.909   0.791  0.3747  0.5151  0.4347
 7132TIP3    H143031   5.939   5.962   0.714 -0.6642 -0.5758 -0.0584
 7132TIP3    H243032   6.055   5.895   0.785  0.5514  1.7241  0.2029
 7133TIP3   OH243033   0.760   3.013   6.367  0.3664  0.4382 -0.3240
 7133TIP3    H143034   0.706   3.090   6.382 -1.7905 -1.0175 -0.1673
 7133TIP3    H243035   0.768   2.972   6.453 -1.4190 -1.2720 -0.9041
 7134TIP3   OH243036   4.558   1.881   7.740 -0.3779 -0.0440 -0.0305
 7134TIP3    H143037   4.473   1.926   7.733 -0.3464 -0.0849 -0.7526
 7134TIP3    H243038   4.535   1.793   7.770 -0.5510  0.0875  0.2265
 7135TIP3   OH243039   2.039   0.179   0.065 -0.2645  0.1947  0.6133
 7135TIP3    H143040   1.984   0.113   0.108 -0.6999  1.1808  1.6058
 7135TIP3    H243041   2.069   0.235   0.136 -1.4902  2.2479 -0.4176
 7136TIP3   OH243042   3.167   0.202   1.443  0.3313 -0.2196  0.0074
 7136TIP3    H143043   3.177   0.110   1.468  0.9738 -0.1985 -0.1399
 7136TIP3    H243044   3.160   0.249   1.527  0.7350 -0.3293  0.1043
 7137TIP3   OH243045   3.146   1.213   8.077  0.1441  0.2555 -0.5720
 7137TIP3    H143046   3.099   1.148   8.025 -0.9001  1.6035 -1.3881
 7137TIP3    H243047   3.136   1.295   8.028 -0.6059  1.5256  1.5825
 7138TIP3   OH243048   5.272   0.084   8.079 -0.4651  0.2718 -0.1520
 7138TIP3    H143049   5.223   0.138   8.141 -0.2895  0.7518 -0.4250
 7138TIP3    H243050   5.292   0.004   8.128 -0.4197  0.5989  0.3792
 7139TIP3   OH243051   5.230   5.413   1.018  0.3562  0.4966  0.1810
 7139TIP3    H143052   5.162   5.478   1.036  0.6663  1.3141 -1.4131
 7139TIP3    H243053   5.236   5.362   1.098 -1.0180  1.4213  0.9171
 7140TIP3   OH243054   6.658   5.672   1.344 -0.0403  0.1074 -0.0679
 7140TIP3    H143055   6.689   5.730   1.414  0.9500 -0.4013 -0.0710
 7140TIP3    H243056   6.736   5.649   1.295 -0.5653 -0.4503 -0.6632
 7141TIP3   OH243057   4.529   6.293   8.282 -0.2379  0.0258  0.1740
 7141TIP3    H143058   4.464   6.228   8.306 -0.3053 -0.3166 -0.8812
 7141TIP3    H243059   4.505   6.371   8.332 -2.3336  0.3567 -1.2382
 7142TIP3   OH243060   4.139   3.362   2.431 -0.3145 -0.0297  0.5342
 7142TIP3    H143061   4.195   3.426   2.475 -0.8343  1.2047 -0.5410
 7142TIP3    H243062   4.201   3.308   2.381 -0.0406  1.4463 -0.8007
 7143TIP3   OH243063   0.113   3.383   8.979 -0.2981  0.7821 -0.1675
 7143TIP3    H143064   0.081   3.473   8.990  1.4083  1.7699 -2.4474
 7143TIP3    H243065   0.205   3.388   9.006 -0.0224 -0.1208 -0.9216
 7144TIP3   OH243066   0.377   0.578   1.271 -0.3958 -0.1176  0.2665
 7144TIP3    H143067   0.435   0.636   1.221 -2.0068  0.4470 -1.0455
 7144TIP3    H243068   0.289   0.605   1.246 -1.2414 -1.1335  1.9836
 7145TIP3   OH243069   6.272   4.524   1.062 -0.3381  0.0320  0.8229
 7145TIP3    H143070   6.335   4.567   1.004 -0.9581  0.3104  0.3418
 7145TIP3    H243071   6.324   4.495   1.137  0.3150  0.4820  0.5529
 7146TIP3   OH243072   4.943   3.940   2.553  0.0046  0.5904  0.2930
 7146TIP3    H143073   4.863   3.889   2.543  0.7735 -0.4542 -0.9638
 7146TIP3    H243074   4.945   3.997   2.477  1.2093 -0.5525 -0.5874
 7147TIP3   OH243075   2.254   4.851   6.921  0.2538 -0.6301 -0.0422
 7147TIP3    H143076   2.308   4.930   6.908 -1.7589  0.7829 -0.2541
 7147TIP3    H243077   2.302   4.799   6.985  1.9703  0.4366 -0.3978
 7148TIP3   OH243078   6.168   3.707   1.415 -0.0176  0.1434 -0.1431
 7148TIP3    H143079   6.253   3.710   1.371 -0.0224 -0.0922 -0.1714
 7148TIP3    H243080   6.104   3.716   1.344 -0.0235 -0.1141 -0.1715
 7149TIP3   OH243081   1.480   4.090   6.322  0.0663  0.1947 -0.8642
 7149TIP3    H143082   1.508   4.181   6.328 -1.2701  0.7861 -2.6195
 7149TIP3    H243083   1.405   4.092   6.262 -1.1060 -1.8405  0.4276
 7150TIP3   OH243084   4.642   4.348   2.425  0.3958 -0.5258  0.2532
 7150TIP3    H143085   4.668   4.428   2.471 -0.6392 -0.2448  0.3948
 7150TIP3    H243086   4.624   4.285   2.495 -2.6830  0.3681  0.4074
 7151TIP3   OH243087   0.248   2.452   0.762  0.7515  0.1894 -0.0023
 7151TIP3    H143088   0.194   2.469   0.685  0.9125  2.0167  0.2312
 7151TIP3    H243089   0.186   2.448   0.835  0.6454 -1.0511 -0.1448
 7152TIP3   OH243090   4.378   0.976   1.614 -0.3744 -0.5325 -0.3784
 7152TIP3    H143091   4.408   1.057   1.573 -1.7047  0.0707 -0.2487
 7152TIP3    H243092   4.403   0.985   1.706  0.8480 -0.9828 -0.6562
 7153TIP3   OH243093   5.885   0.945   1.485  0.4191 -0.1122  0.1149
 7153TIP3    H143094   5.915   0.855   1.492  0.0859 -0.1269  1.6950
 7153TIP3    H243095   5.838   0.961   1.567 -0.9528  0.9728 -0.8258
 7154TIP3   OH243096   3.553   6.280   8.826 -0.1287  0.4396 -0.3202
 7154TIP3    H143097   3.545   6.189   8.799  0.5833  0.2229  0.1766
 7154TIP3    H243098   3.578   6.276   8.918 -0.3437  1.1361 -0.2292
 7155TIP3   OH243099   1.992   6.150   0.831 -0.1629 -0.2035  0.2404
 7155TIP3    H143100   2.085   6.163   0.813 -0.4460  2.0524  0.2368
 7155TIP3    H243101   1.990   6.070   0.884  1.7473 -0.3990  0.0985
 7156TIP3   OH243102   3.632   2.303   7.998  0.0383 -0.2064 -0.4707
 7156TIP3    H143103   3.651   2.381   7.945  0.3695 -0.9790 -1.5329
 7156TIP3    H243104   3.541   2.281   7.976 -0.0518 -0.1128 -0.1812
 7157TIP3   OH243105   3.712   3.718   8.591  0.4275 -0.4056  0.6172
 7157TIP3    H143106   3.784   3.770   8.557 -1.5573  0.8368 -2.0251
 7157TIP3    H243107   3.662   3.779   8.646 -1.2611  0.2837 -1.5542
 7158TIP3   OH243108   0.449   4.927   2.161 -0.0251  0.5416 -0.6427
 7158TIP3    H143109   0.415   4.995   2.219  2.3705  1.2791  0.0455
 7158TIP3    H243110   0.501   4.871   2.219 -1.8014 -1.8553 -1.2256
 7159TIP3   OH243111   1.308   4.066   8.958 -0.5600  0.1868 -0.3446
 7159TIP3    H143112   1.369   4.127   9.000 -1.2630  0.5548  0.1547
 7159TIP3    H243113   1.281   4.109   8.877 -1.1423  0.6016  0.0612
 7160TIP3   OH243114   2.687   0.018   0.323 -0.1290  0.0137  0.4010
 7160TIP3    H143115   2.662  -0.013   0.410  2.5245  1.0586  1.6411
 7160TIP3    H243116   2.715  -0.061   0.277  0.9390 -0.2360  1.4442
 7161TIP3   OH243117   4.980   2.131   8.615 -0.0013  0.8626  0.2379
 7161TIP3    H143118   4.988   2.054   8.672  1.2020  1.9855  1.6600
 7161TIP3    H243119   4.885   2.144   8.606 -0.2188 -0.1087  0.9008
 7162TIP3   OH243120   1.513   4.343   2.318  0.2180 -0.0784  0.4484
 7162TIP3    H143121   1.478   4.263   2.281  0.1924  0.0042  0.2954
 7162TIP3    H243122   1.450   4.368   2.386 -0.0258  0.0767  0.1666
 7163TIP3   OH243123   2.306   1.830   8.812  0.1413 -0.3803  0.5737
 7163TIP3    H143124   2.396   1.845   8.784 -0.2758 -0.1528 -0.6767
 7163TIP3    H243125   2.291   1.737   8.799  0.2713 -0.4730  1.0484
 7164TIP3   OH243126   2.293   2.544   1.323  0.1687  0.0339  0.9012
 7164TIP3    H143127   2.307   2.599   1.246 -2.9981  1.8532  1.4559
 7164TIP3    H243128   2.363   2.569   1.384  1.9906 -0.5690 -0.8359
 7165TIP3   OH243129   1.607   4.285   1.859 -0.1179  0.2024  0.6365
 7165TIP3    H143130   1.590   4.214   1.921  0.0579 -1.5799 -1.2645
 7165TIP3    H243131   1.666   4.247   1.795 -1.9349  1.2618 -1.8179
 7166TIP3   OH243132   2.012   4.174   1.081  0.0765 -0.4523  0.0685
 7166TIP3    H143133   2.043   4.258   1.048 -1.4469  0.3463  0.5989
 7166TIP3    H243134   2.070   4.155   1.155 -0.8850  1.2171  1.3126
 7167TIP3   OH243135   2.435   3.161   0.979  0.4136  0.0027  0.1836
 7167TIP3    H143136   2.523   3.124   0.991  0.9026  1.2150  0.5161
 7167TIP3    H243137   2.391   3.099   0.921  0.3187 -2.4323  2.6513
 7168TIP3   OH243138   1.921   2.916   1.781 -0.2376  0.0582 -0.4542
 7168TIP3    H143139   1.890   2.827   1.797 -0.4483  0.1482 -0.3557
 7168TIP3    H243140   2.005   2.905   1.736 -0.1677 -0.1900 -0.2623
 7169TIP3   OH243141   4.932   1.683   1.700  0.0034  0.0480 -0.0720
 7169TIP3    H143142   5.022   1.654   1.689 -0.1512 -1.1008  1.4479
 7169TIP3    H243143   4.927   1.715   1.790 -0.9404  0.7523 -0.3517
 7170TIP3   OH243144   6.205   4.618   7.134 -0.1927 -0.2620 -0.3020
 7170TIP3    H143145   6.200   4.529   7.169  0.5078 -0.6594 -1.1718
 7170TIP3    H243146   6.116   4.637   7.106 -0.4133 -0.5649  0.1726
 7171TIP3   OH243147   2.309   2.691   8.094 -0.0895 -0.0606  0.4181
 7171TIP3    H143148   2.288   2.716   8.184  1.0521  0.8352  0.4518
 7171TIP3    H243149   2.291   2.769   8.042  2.9603  0.8002  0.4436
 7172TIP3   OH243150   0.748   0.262   1.458  0.4213 -0.1028  0.1082
 7172TIP3    H143151   0.683   0.332   1.447 -1.2676 -1.7848 -1.4306
 7172TIP3    H243152   0.703   0.197   1.513  1.1290 -0.9181 -0.2543
 7173TIP3   OH243153   3.667   6.631   0.627  0.2125  0.6413 -0.4715
 7173TIP3    H143154   3.583   6.613   0.583 -0.0604 -0.9736  0.6003
 7173TIP3    H243155   3.672   6.565   0.696  1.1997  2.3119  1.1439
 7174TIP3   OH243156   6.650   3.264   0.708 -0.8997  0.2338  0.3288
 7174TIP3    H143157   6.701   3.246   0.629 -2.1236  0.6466 -0.5885
 7174TIP3    H243158   6.573   3.208   0.700 -1.8253  1.4471  0.4014
 7175TIP3   OH243159   2.263   3.441   7.805 -0.7460 -0.8556  0.0292
 7175TIP3    H143160   2.238   3.495   7.881 -1.3066 -0.6574 -0.2958
 7175TIP3    H243161   2.351   3.472   7.783 -1.3343  0.4527 -0.6010
 7176TIP3   OH243162   1.061   3.764   1.516 -0.3146  0.1127 -0.0931
 7176TIP3    H143163   1.083   3.678   1.482  0.9783  0.1659  0.5657
 7176TIP3    H243164   0.965   3.765   1.518 -0.3418 -1.3521  0.0400
 7177TIP3   OH243165   3.707   0.322   8.602 -0.3304 -0.1880  0.9678
 7177TIP3    H143166   3.744   0.389   8.660  0.8380 -0.0176  0.0569
 7177TIP3    H243167   3.653   0.372   8.540  2.5877  0.3288 -1.3573
 7178TIP3   OH243168   3.785   3.048   8.276 -0.4704  0.5784 -0.1389
 7178TIP3    H143169   3.697   3.068   8.245 -0.1293 -2.0045 -3.2547
 7178TIP3    H243170   3.773   2.981   8.343 -0.8924  0.0953 -0.6909
 7179TIP3   OH243171   0.025   1.368   7.867 -0.0650 -0.3860 -0.0704
 7179TIP3    H143172  -0.034   1.439   7.841 -0.1375 -0.0893  0.8576
 7179TIP3    H243173   0.024   1.307   7.794 -0.6225  0.1897 -0.5462
 7180TIP3   OH243174   5.038   5.337   8.360 -0.2800  0.3378 -0.6878
 7180TIP3    H143175   5.040   5.379   8.274  1.4356  0.8940 -0.4069
 7180TIP3    H243176   5.090   5.257   8.349 -1.3031 -0.3819 -0.5201
 7181TIP3   OH243177   6.774   3.602   1.824 -0.0450 -0.0246 -0.3649
 7181TIP3    H143178   6.799   3.518   1.863 -0.7122 -0.0452  0.0278
 7181TIP3    H243179   6.704   3.635   1.881  0.8322  1.2292  0.0219
 7182TIP3   OH243180   4.819   3.573   1.489 -0.2186 -0.0895  0.2610
 7182TIP3    H143181   4.752   3.610   1.432  1.0386  0.4736 -0.9353
 7182TIP3    H243182   4.797   3.480   1.496 -1.5059  0.2180  0.5046
 7183TIP3   OH243183   6.277   0.733   0.209  0.1010  0.7188  0.1003
 7183TIP3    H143184   6.260   0.824   0.182 -1.0861  0.2302 -0.8858
 7183TIP3    H243185   6.369   0.732   0.234  0.5758  1.8159 -1.4787
 7184TIP3   OH243186   2.703   5.107   1.767 -0.5915 -0.2117 -0.4730
 7184TIP3    H143187   2.627   5.054   1.794  0.9343 -1.8151  0.9117
 7184TIP3    H243188   2.693   5.189   1.815 -0.2964 -1.3010  1.5620
 7185TIP3   OH243189   0.177   2.122   8.227  0.0049  0.1898 -0.0123
 7185TIP3    H143190   0.168   2.182   8.153  1.5199  0.1105 -0.2956
 7185TIP3    H243191   0.210   2.041   8.189 -0.8019 -0.4170  0.5457
 7186TIP3   OH243192   1.479   3.763   8.398 -0.5237  0.3330  0.3165
 7186TIP3    H143193   1.392   3.739   8.431 -0.4247 -0.6373 -0.1014
 7186TIP3    H243194   1.539   3.702   8.441 -0.0971  0.6613  0.2008
 7187TIP3   OH243195   5.264   4.908   0.074  0.3857  0.1097  0.1489
 7187TIP3    H143196   5.183   4.887   0.028  0.3160  0.2712  0.1963
 7187TIP3    H243197   5.270   4.843   0.144  1.4359 -1.3073 -1.1915
 7188TIP3   OH243198   0.916   2.512   1.165  0.8461  0.3132  0.1920
 7188TIP3    H143199   0.947   2.528   1.254  0.7403  0.3781  0.2177
 7188TIP3    H243200   0.854   2.583   1.148  0.3642 -0.0767  0.3112
 7189TIP3   OH243201   3.887   6.219   0.822  0.1034 -0.4494 -0.3019
 7189TIP3    H143202   3.914   6.128   0.809  0.9694 -0.2614  0.0564
 7189TIP3    H243203   3.933   6.267   0.754  2.3719  0.1483  1.5260
 7190TIP3   OH243204   4.880   3.092   7.589 -0.5416  0.2105  0.0391
 7190TIP3    H143205   4.810   3.125   7.532 -1.0768  0.7965  0.9981
 7190TIP3    H243206   4.956   3.083   7.532 -1.0465  0.8483 -0.7567
   6.79192   6.79192   8.98879
