Title
43206
    1CHL1    C3    1   3.963   3.918   5.419 -0.7614  0.2226 -0.1986
    1CHL1    H3    2   3.855   3.909   5.396 -0.5041  1.6879 -2.1697
    1CHL1    O3    3   3.978   3.982   5.544 -0.1623  0.0233  0.4183
    1CHL1   H3'    4   4.072   3.978   5.561 -0.0240 -0.0400 -0.3116
    1CHL1    C4    5   4.021   3.776   5.418 -0.5352  0.3449 -0.0648
    1CHL1   H4A    6   4.128   3.796   5.441 -0.0513 -2.7196  0.7668
    1CHL1   H4B    7   3.983   3.714   5.501 -0.5117 -0.8456 -0.9156
    1CHL1    C5    8   4.012   3.698   5.284 -0.3898  0.1324 -0.2087
    1CHL1    C6    9   3.957   3.578   5.264 -0.0068  0.4904  0.2631
    1CHL1    H6   10   3.912   3.526   5.350 -3.0098  1.1416 -0.7891
    1CHL1    C7   11   3.951   3.507   5.124  0.4728  1.2940 -0.5030
    1CHL1   H7A   12   3.989   3.402   5.126 -1.0102  0.7365 -0.7758
    1CHL1   H7B   13   3.846   3.503   5.089 -0.4801  0.5955  2.1304
    1CHL1    C8   14   4.043   3.580   5.017  0.6070 -0.5376 -0.1968
    1CHL1    H8   15   4.148   3.546   5.030  0.6014 -0.7769 -0.7529
    1CHL1   C14   16   3.993   3.537   4.877 -0.9896 -0.4015 -0.1620
    1CHL1   H14   17   3.885   3.564   4.878 -0.5194  1.7497  1.6483
    1CHL1   C15   18   3.992   3.382   4.854 -0.5553 -0.1078 -0.2228
    1CHL1  H15A   19   4.089   3.332   4.879  0.9404  3.0756  0.9194
    1CHL1  H15B   20   3.913   3.317   4.897 -0.8161  0.0318 -0.4911
    1CHL1   C16   21   3.983   3.380   4.701  0.2765 -0.3830 -0.0248
    1CHL1  H16A   22   4.066   3.320   4.658  0.3396 -2.5217  2.7745
    1CHL1  H16B   23   3.886   3.333   4.676  0.6015 -1.8536  1.2914
    1CHL1   C17   24   3.987   3.525   4.647 -0.1404 -0.1489  0.2497
    1CHL1   H17   25   3.880   3.556   4.652  0.1769  0.8099  3.5601
    1CHL1   C13   26   4.065   3.602   4.758  0.1432  0.3181 -0.3242
    1CHL1   C18   27   4.219   3.564   4.758 -0.3297 -0.4166  0.3450
    1CHL1  H18A   28   4.263   3.544   4.858  0.0080  0.9157  0.4837
    1CHL1  H18B   29   4.240   3.475   4.695  1.6059 -0.1610  0.5660
    1CHL1  H18C   30   4.272   3.651   4.713  0.5777 -1.6595 -1.0807
    1CHL1   C12   31   4.052   3.753   4.775  0.1704 -0.6023  0.8829
    1CHL1  H12A   32   4.105   3.803   4.692  0.0529 -1.3523  0.3437
    1CHL1  H12B   33   3.942   3.770   4.766  0.8271  4.2013 -1.5048
    1CHL1   C11   34   4.087   3.807   4.911 -0.2601  0.1177 -0.1599
    1CHL1  H11A   35   4.198   3.803   4.912 -0.2324  0.0104 -1.4150
    1CHL1  H11B   36   4.046   3.909   4.924  0.5189  0.3784  0.3351
    1CHL1    C9   37   4.025   3.732   5.028 -0.3006 -0.1874 -0.4743
    1CHL1    H9   38   3.916   3.756   5.031 -0.0350  0.9733  0.3422
    1CHL1   C10   39   4.065   3.786   5.170  0.4933  0.3239  0.4816
    1CHL1   C19   40   4.218   3.782   5.174  0.6035 -0.4423 -0.2726
    1CHL1  H19A   41   4.258   3.678   5.166 -0.3481 -0.8306 -0.1473
    1CHL1  H19B   42   4.263   3.847   5.097  0.3530  0.4231  0.2947
    1CHL1  H19C   43   4.254   3.805   5.277  0.9130 -4.7386  0.7825
    1CHL1    C1   44   4.017   3.931   5.182 -0.0671  0.6247  0.5116
    1CHL1   H1A   45   4.070   3.995   5.108  1.3169 -1.3732 -0.3307
    1CHL1   H1B   46   3.910   3.933   5.152  0.5770 -3.0302 -2.8641
    1CHL1    C2   47   4.033   4.000   5.314  0.4468  0.7095  0.4094
    1CHL1   H2A   48   3.989   4.102   5.311 -1.9276 -0.2592  0.0295
    1CHL1   H2B   49   4.140   3.999   5.345  0.0544 -1.8107  1.9658
    1CHL1   C20   50   4.035   3.534   4.497  0.6735  0.2323 -0.5362
    1CHL1   H20   51   4.146   3.536   4.487  0.5386  1.0547 -2.5450
    1CHL1   C21   52   3.989   3.672   4.445 -0.8227  0.3987  0.6142
    1CHL1  H21A   53   4.014   3.664   4.337  1.4579 -3.1795  1.2316
    1CHL1  H21B   54   4.051   3.753   4.489  1.8229 -1.5568  0.7065
    1CHL1  H21C   55   3.882   3.698   4.453 -0.6846  1.4961 -0.6481
    1CHL1   C22   56   3.992   3.429   4.402  0.3630 -0.2138  0.3025
    1CHL1  H22A   57   4.032   3.449   4.300  0.9056 -0.3825  0.4754
    1CHL1  H22B   58   4.038   3.333   4.435  1.4873  0.1963 -0.0385
    1CHL1   C23   59   3.836   3.418   4.384  0.5365  0.2807 -0.0650
    1CHL1  H23A   60   3.796   3.342   4.455 -0.6935 -1.4308 -2.4722
    1CHL1  H23B   61   3.793   3.511   4.427 -3.2435 -2.2162  2.1460
    1CHL1   C24   62   3.770   3.391   4.247 -0.6751  0.2083 -0.6385
    1CHL1  H24A   63   3.661   3.411   4.246 -0.7086  0.0389 -0.3356
    1CHL1  H24B   64   3.810   3.465   4.175  1.8937 -1.6358 -1.2810
    1CHL1   C25   65   3.801   3.250   4.199  1.0334 -0.1047  0.4500
    1CHL1   H25   66   3.908   3.244   4.171  0.3223 -0.5429 -2.4983
    1CHL1   C26   67   3.770   3.142   4.303 -0.7230 -0.2515 -0.1963
    1CHL1  H26A   68   3.835   3.144   4.393 -0.7085 -1.1481 -0.1783
    1CHL1  H26B   69   3.667   3.153   4.344 -0.3497  0.4214  0.5974
    1CHL1  H26C   70   3.773   3.036   4.270  2.2502  0.1634 -1.6214
    1CHL1   C27   71   3.726   3.233   4.068 -0.3661  0.2522 -0.4130
    1CHL1  H27A   72   3.705   3.324   4.007 -0.3604 -0.4866 -1.5549
    1CHL1  H27B   73   3.778   3.158   4.004 -2.9267 -0.6811 -1.5430
    1CHL1  H27C   74   3.627   3.190   4.095  0.0792  0.2502  1.3163
    2CHL1    C3   75   3.695   3.588   5.714  0.2723  0.0724  0.3342
    2CHL1    H3   76   3.787   3.609   5.655 -0.1618  0.0184 -0.3762
    2CHL1    O3   77   3.712   3.596   5.858 -0.8953  0.4092  0.1842
    2CHL1   H3'   78   3.636   3.549   5.895  0.0175  0.0482  1.6565
    2CHL1    C4   79   3.580   3.671   5.677 -1.0123  0.1187  0.0309
    2CHL1   H4A   80   3.485   3.631   5.719 -1.0807  0.8149  0.5646
    2CHL1   H4B   81   3.591   3.774   5.718 -0.9720  0.0477  0.1974
    2CHL1    C5   82   3.571   3.672   5.524 -0.8465  0.4579 -0.7976
    2CHL1    C6   83   3.573   3.779   5.446 -0.0348 -0.2997  0.2436
    2CHL1    H6   84   3.571   3.875   5.500  0.6327  0.3597 -0.8498
    2CHL1    C7   85   3.557   3.783   5.297 -1.0281  0.6308  0.0885
    2CHL1   H7A   86   3.500   3.874   5.268  1.1335  3.1159  2.9348
    2CHL1   H7B   87   3.661   3.801   5.261 -1.3641  1.4599 -0.5039
    2CHL1    C8   88   3.503   3.662   5.230  0.4928  0.2914 -0.3731
    2CHL1    H8   89   3.393   3.673   5.235  0.3326 -1.5171  1.6031
    2CHL1   C14   90   3.548   3.652   5.082 -0.3397 -0.0820 -0.5422
    2CHL1   H14   91   3.659   3.641   5.083 -0.1098  1.5752 -1.7495
    2CHL1   C15   92   3.532   3.777   4.986 -1.0242 -0.2217  0.1147
    2CHL1  H15A   93   3.436   3.827   5.014 -0.4229  1.9140 -1.3984
    2CHL1  H15B   94   3.613   3.852   5.001 -2.5089  2.0365 -2.2381
    2CHL1   C16   95   3.539   3.710   4.844  0.2674 -0.6190  0.1962
    2CHL1  H16A   96   3.449   3.749   4.791  0.6340 -0.1309 -0.0690
    2CHL1  H16B   97   3.635   3.744   4.800 -0.7695  0.7494 -1.1088
    2CHL1   C17   98   3.537   3.554   4.870  0.8873  0.1497  0.5898
    2CHL1   H17   99   3.646   3.533   4.867  0.7127 -0.8000  0.3665
    2CHL1   C13  100   3.481   3.539   5.007 -0.2878 -0.0524 -0.6092
    2CHL1   C18  101   3.331   3.547   4.999 -0.1616 -0.1045 -0.4665
    2CHL1  H18A  102   3.284   3.462   4.945  0.5081  0.8199 -2.6233
    2CHL1  H18B  103   3.281   3.549   5.098 -0.5002  0.9598 -0.6429
    2CHL1  H18C  104   3.298   3.640   4.947  0.1744  2.8687  4.0453
    2CHL1   C12  105   3.525   3.416   5.087 -0.2095 -0.4077 -0.4982
    2CHL1  H12A  106   3.471   3.334   5.034  0.1406 -0.1198 -1.3179
    2CHL1  H12B  107   3.632   3.388   5.079 -0.9691 -3.9144  0.0729
    2CHL1   C11  108   3.492   3.413   5.237 -0.0768 -0.6276 -0.1380
    2CHL1  H11A  109   3.381   3.408   5.240 -0.1258  0.3407  0.2146
    2CHL1  H11B  110   3.544   3.319   5.264  2.0914  0.6692  0.5149
    2CHL1    C9  111   3.549   3.534   5.309  0.3630 -0.1031  0.1256
    2CHL1    H9  112   3.659   3.528   5.296  0.5924  0.6982  1.5207
    2CHL1   C10  113   3.540   3.534   5.464  0.7012 -0.0890  1.2773
    2CHL1   C19  114   3.394   3.488   5.509 -0.3632  0.1869 -0.2878
    2CHL1  H19A  115   3.358   3.402   5.447 -0.9106  0.6139 -0.5708
    2CHL1  H19B  116   3.387   3.468   5.618 -2.2921  1.6715 -0.0929
    2CHL1  H19C  117   3.314   3.564   5.501 -2.2351 -1.5782  0.5368
    2CHL1    C1  118   3.648   3.432   5.520  0.7613  0.5505 -0.2847
    2CHL1   H1A  119   3.604   3.333   5.494 -0.2732  0.7972  0.4937
    2CHL1   H1B  120   3.746   3.460   5.477  1.3729  1.6957  1.7664
    2CHL1    C2  121   3.670   3.438   5.672  0.5262 -0.1649 -0.6426
    2CHL1   H2A  122   3.758   3.375   5.699  0.4185  0.2733  0.8598
    2CHL1   H2B  123   3.590   3.399   5.739  1.7948  0.7316  1.5220
    2CHL1   C20  124   3.472   3.486   4.746 -0.9069  0.2056 -0.5520
    2CHL1   H20  125   3.362   3.487   4.759 -0.8290 -0.0914  0.1427
    2CHL1   C21  126   3.529   3.344   4.742 -0.2693 -0.6022 -0.2384
    2CHL1  H21A  127   3.636   3.351   4.712 -0.6707 -1.0989 -1.8841
    2CHL1  H21B  128   3.479   3.277   4.669 -1.1450 -1.7727  1.3891
    2CHL1  H21C  129   3.517   3.299   4.843 -0.2043  0.4379  0.2413
    2CHL1   C22  130   3.488   3.561   4.616 -0.6063  0.0096  0.4861
    2CHL1  H22A  131   3.444   3.663   4.613 -2.5510 -0.8134 -0.8386
    2CHL1  H22B  132   3.597   3.561   4.595 -0.4838  1.9383  0.9589
    2CHL1   C23  133   3.408   3.486   4.499  0.1293 -0.4737 -0.2005
    2CHL1  H23A  134   3.475   3.405   4.463 -0.2272 -0.8662  0.0106
    2CHL1  H23B  135   3.316   3.437   4.537  0.6702  0.4638  2.5573
    2CHL1   C24  136   3.386   3.566   4.374 -0.1718 -0.5140 -0.3381
    2CHL1  H24A  137   3.336   3.661   4.405  2.3972  0.1927  2.0225
    2CHL1  H24B  138   3.480   3.590   4.321 -0.1044 -0.8027 -0.3471
    2CHL1   C25  139   3.286   3.505   4.275 -0.1373  0.1509  0.5437
    2CHL1   H25  140   3.195   3.467   4.327 -1.3486  1.7461 -0.3359
    2CHL1   C26  141   3.257   3.598   4.155  1.0207  0.4952 -0.2961
    2CHL1  H26A  142   3.350   3.612   4.097  0.2393  0.3386 -1.6279
    2CHL1  H26B  143   3.180   3.546   4.094  0.1830 -0.3809  1.4192
    2CHL1  H26C  144   3.211   3.693   4.191  1.9966  0.8376  0.0768
    2CHL1   C27  145   3.345   3.369   4.220  0.1642 -0.2332 -0.8636
    2CHL1  H27A  146   3.433   3.390   4.155  1.4442  0.0792  0.8796
    2CHL1  H27B  147   3.374   3.301   4.303 -0.5176  1.1320  0.5423
    2CHL1  H27C  148   3.272   3.325   4.148 -1.4233  2.7150 -1.1816
    3CHL1    C3  149   3.146   3.979   5.645  0.0382  0.0677  0.3039
    3CHL1    H3  150   3.245   4.029   5.649 -0.2304  0.7897 -1.4394
    3CHL1    O3  151   3.116   3.933   5.772  0.4099  0.0178  0.1332
    3CHL1   H3'  152   3.196   3.892   5.803 -0.1107 -1.4944 -0.3906
    3CHL1    C4  153   3.049   4.086   5.594  0.5097 -0.1598  0.2757
    3CHL1   H4A  154   2.946   4.057   5.624 -0.0687 -1.8243 -2.8424
    3CHL1   H4B  155   3.067   4.171   5.663 -0.2390 -0.3376  0.6953
    3CHL1    C5  156   3.061   4.117   5.446  0.4245 -0.3349 -0.9435
    3CHL1    C6  157   3.071   4.246   5.407  0.0527 -0.1198  0.1951
    3CHL1    H6  158   3.070   4.332   5.475  1.2692 -0.2982  0.4637
    3CHL1    C7  159   3.075   4.283   5.266 -0.0334  0.2976  0.4345
    3CHL1   H7A  160   2.998   4.363   5.255 -0.1192  0.5488  2.5340
    3CHL1   H7B  161   3.171   4.330   5.235 -0.5496  0.2128 -1.4410
    3CHL1    C8  162   3.036   4.164   5.172  0.4743 -0.3322  0.9857
    3CHL1    H8  163   2.925   4.159   5.162  0.6096 -0.1012 -1.1176
    3CHL1   C14  164   3.077   4.190   5.020  0.1675 -0.4528 -0.1572
    3CHL1   H14  165   3.187   4.192   5.034  0.2394  0.7464 -0.7704
    3CHL1   C15  166   3.041   4.327   4.960 -0.2765 -0.2757  0.8065
    3CHL1  H15A  167   2.933   4.346   4.978 -0.5764 -2.4214  1.6307
    3CHL1  H15B  168   3.115   4.398   5.000  0.0023 -0.4085  0.5330
    3CHL1   C16  169   3.045   4.297   4.812  0.0781 -0.1556  0.7457
    3CHL1  H16A  170   2.946   4.314   4.764  1.7155 -3.0372 -4.5225
    3CHL1  H16B  171   3.112   4.367   4.757 -1.9128  0.8777 -0.5006
    3CHL1   C17  172   3.090   4.149   4.792  0.2497 -0.5250  0.1444
    3CHL1   H17  173   3.201   4.155   4.793  0.1738  2.2490  0.3164
    3CHL1   C13  174   3.040   4.082   4.919 -0.5043  0.3130  0.5918
    3CHL1   C18  175   2.888   4.053   4.914  1.0308 -0.0346 -0.2562
    3CHL1  H18A  176   2.857   4.027   5.018 -0.3034 -0.7326 -0.8133
    3CHL1  H18B  177   2.838   4.142   4.870 -2.2350 -2.3590 -1.5871
    3CHL1  H18C  178   2.880   3.969   4.843  2.1311  1.1554 -1.8528
    3CHL1   C12  179   3.117   3.955   4.960 -0.1620  0.3590  1.2077
    3CHL1  H12A  180   3.097   3.867   4.894 -1.5779  0.4866  1.4452
    3CHL1  H12B  181   3.224   3.980   4.943 -0.2171 -0.2729 -0.2252
    3CHL1   C11  182   3.094   3.919   5.107  0.3949  0.1705 -0.1537
    3CHL1  H11A  183   2.989   3.883   5.109 -0.0355  1.3168 -0.9485
    3CHL1  H11B  184   3.161   3.834   5.132  1.3332  0.7477 -0.6322
    3CHL1    C9  185   3.107   4.035   5.209  0.3377 -0.0705 -0.5902
    3CHL1    H9  186   3.217   4.048   5.214  0.8336 -2.6847 -2.3807
    3CHL1   C10  187   3.066   3.991   5.355 -0.0407 -0.4569 -0.3153
    3CHL1   C19  188   2.921   3.943   5.354  0.1887  0.0454  0.2015
    3CHL1  H19A  189   2.921   3.850   5.293 -0.5802  0.4443 -0.4242
    3CHL1  H19B  190   2.888   3.910   5.455 -0.6188 -0.9182 -0.3657
    3CHL1  H19C  191   2.847   4.018   5.317  0.0619 -0.7457 -1.2183
    3CHL1    C1  192   3.163   3.889   5.403  0.1633  0.2673 -0.2048
    3CHL1   H1A  193   3.171   3.789   5.355  2.0285  0.5647 -0.5864
    3CHL1   H1B  194   3.265   3.930   5.390 -0.6555  2.3498 -0.4218
    3CHL1    C2  195   3.155   3.853   5.555  0.2977  0.1262 -0.4550
    3CHL1   H2A  196   3.241   3.785   5.574 -1.6102 -1.7393  2.4283
    3CHL1   H2B  197   3.063   3.794   5.571 -0.1002  0.3954 -1.6622
    3CHL1   C20  198   3.047   4.094   4.652 -0.6356 -0.4951 -0.8502
    3CHL1   H20  199   2.938   4.072   4.658 -0.8960  1.0315  0.5667
    3CHL1   C21  200   3.110   3.962   4.625  0.1364 -0.0980  0.1852
    3CHL1  H21A  201   3.068   3.913   4.535 -1.1852 -1.6104  1.5663
    3CHL1  H21B  202   3.078   3.892   4.704  1.2451 -3.2669 -1.9937
    3CHL1  H21C  203   3.221   3.958   4.618  0.1125 -1.4060  0.3721
    3CHL1   C22  204   3.059   4.199   4.536 -0.3042  0.1693 -0.6732
    3CHL1  H22A  205   3.000   4.290   4.561  0.7087  0.0602  2.6889
    3CHL1  H22B  206   3.164   4.236   4.538  0.6108 -2.2727 -0.5562
    3CHL1   C23  207   3.012   4.152   4.400  0.4407  0.0425 -0.3803
    3CHL1  H23A  208   3.026   4.239   4.332 -0.1547 -0.0338 -0.6052
    3CHL1  H23B  209   3.066   4.058   4.376 -0.0967  0.5091 -3.8955
    3CHL1   C24  210   2.861   4.112   4.386  0.1734  1.5088  0.1872
    3CHL1  H24A  211   2.848   4.028   4.457  0.9362  1.0173 -0.2415
    3CHL1  H24B  212   2.801   4.203   4.408 -0.1517  1.7720 -1.6282
    3CHL1   C25  213   2.836   4.065   4.240  1.0885  0.3619  0.0125
    3CHL1   H25  214   2.913   3.988   4.219 -1.1387 -1.6885 -1.2164
    3CHL1   C26  215   2.694   3.997   4.237  0.3609 -0.2068  0.2243
    3CHL1  H26A  216   2.681   3.946   4.139 -1.2067  0.2929  0.1358
    3CHL1  H26B  217   2.685   3.921   4.318  1.2225 -1.0337 -0.4316
    3CHL1  H26C  218   2.610   4.069   4.236 -0.3935 -1.0587 -1.1074
    3CHL1   C27  219   2.844   4.181   4.137  0.3965  0.4976 -0.4997
    3CHL1  H27A  220   2.818   4.145   4.035 -2.0460  0.9099 -0.0810
    3CHL1  H27B  221   2.782   4.263   4.178  0.5743 -0.6214  2.1901
    3CHL1  H27C  222   2.944   4.229   4.136  1.9262 -2.4635 -0.9795
    4CHL1    C3  223   3.629   4.309   5.384  0.2335 -0.0952 -0.7983
    4CHL1    H3  224   3.653   4.204   5.408  1.2568  0.4566  0.7526
    4CHL1    O3  225   3.605   4.383   5.500  0.1841  0.1853  0.0222
    4CHL1   H3'  226   3.529   4.352   5.549 -0.0656  3.0979  1.6697
    4CHL1    C4  227   3.740   4.378   5.306  0.1339  0.8592 -0.2520
    4CHL1   H4A  228   3.735   4.489   5.299  0.9262  0.9602  0.6570
    4CHL1   H4B  229   3.832   4.353   5.362 -0.7810  0.0067  0.9283
    4CHL1    C5  230   3.743   4.307   5.171 -0.2535 -0.4839  0.2190
    4CHL1    C6  231   3.856   4.262   5.123  0.2562  0.9803 -0.2924
    4CHL1    H6  232   3.943   4.296   5.181 -0.0272  2.4222 -0.6688
    4CHL1    C7  233   3.875   4.202   4.987 -0.7580 -0.4589 -0.4853
    4CHL1   H7A  234   3.958   4.257   4.936  1.1960 -1.7960  1.1115
    4CHL1   H7B  235   3.906   4.096   4.992  3.5750  0.5658 -1.1130
    4CHL1    C8  236   3.757   4.213   4.900  0.7520  0.0311 -0.0692
    4CHL1    H8  237   3.759   4.312   4.850 -0.9296  0.4028  0.5134
    4CHL1   C14  238   3.757   4.107   4.791  0.5137  0.1785  0.1020
    4CHL1   H14  239   3.726   4.011   4.837  2.4443 -0.3337  0.3998
    4CHL1   C15  240   3.890   4.082   4.712  0.4556  0.2954  0.5167
    4CHL1  H15A  241   3.924   4.187   4.700 -1.5922  0.8830 -0.6685
    4CHL1  H15B  242   3.968   4.021   4.763  0.5959  0.8562  0.9803
    4CHL1   C16  243   3.841   4.021   4.584  0.5206 -0.0775  0.2904
    4CHL1  H16A  244   3.862   4.081   4.492 -1.7271 -1.0907 -0.9433
    4CHL1  H16B  245   3.882   3.918   4.579  0.3899 -0.0852 -1.1065
    4CHL1   C17  246   3.689   4.009   4.584 -0.4200  0.1456  0.7376
    4CHL1   H17  247   3.673   3.917   4.645 -0.5625 -0.3888 -0.0792
    4CHL1   C13  248   3.644   4.120   4.680  0.3666  1.1370 -0.3451
    4CHL1   C18  249   3.666   4.252   4.604  0.6814 -0.4236  0.1576
    4CHL1  H18A  250   3.670   4.344   4.666  0.3086  0.0692 -0.5357
    4CHL1  H18B  251   3.754   4.266   4.538 -0.6641 -0.9198 -1.8213
    4CHL1  H18C  252   3.577   4.272   4.540  0.1300  0.0595  1.0561
    4CHL1   C12  253   3.512   4.105   4.750  0.0050  0.3329 -0.2134
    4CHL1  H12A  254   3.435   4.134   4.674  0.9599  0.1684 -1.2674
    4CHL1  H12B  255   3.486   4.000   4.773 -2.0977  1.0350  0.9386
    4CHL1   C11  256   3.499   4.188   4.879 -0.6914 -0.1470  0.1671
    4CHL1  H11A  257   3.477   4.289   4.838 -2.6247 -0.6819 -0.2033
    4CHL1  H11B  258   3.411   4.161   4.941 -0.7496 -0.4043 -0.0275
    4CHL1    C9  259   3.625   4.189   4.974  0.2294 -0.2347  0.4753
    4CHL1    H9  260   3.627   4.085   5.013  1.3097 -0.4775 -0.1830
    4CHL1   C10  261   3.609   4.291   5.093  0.1878  0.4612 -0.3740
    4CHL1   C19  262   3.561   4.435   5.038  0.0742  0.4537  0.3376
    4CHL1  H19A  263   3.625   4.475   4.957 -0.5068 -0.2492 -0.4814
    4CHL1  H19B  264   3.459   4.431   4.996 -0.6696  0.9577  2.0211
    4CHL1  H19C  265   3.548   4.505   5.124  0.0141 -1.3115  1.8307
    4CHL1    C1  266   3.490   4.239   5.185 -0.6265  0.5601 -0.1430
    4CHL1   H1A  267   3.399   4.263   5.126  0.3214 -0.3750 -2.0952
    4CHL1   H1B  268   3.499   4.130   5.204  1.1387  0.5151 -0.9803
    4CHL1    C2  269   3.492   4.309   5.315 -0.5233  0.0344  0.4606
    4CHL1   H2A  270   3.419   4.253   5.378 -0.1715 -0.8305  0.1109
    4CHL1   H2B  271   3.465   4.416   5.302 -1.8855 -0.5011 -1.4619
    4CHL1   C20  272   3.631   3.996   4.441  0.7102 -0.1269 -0.1161
    4CHL1   H20  273   3.641   4.091   4.385  1.5111  0.0711  0.3499
    4CHL1   C21  274   3.482   3.958   4.447  0.5170  0.0995  0.1490
    4CHL1  H21A  275   3.459   3.852   4.472 -1.3581  0.9779  2.5799
    4CHL1  H21B  276   3.432   3.991   4.353 -0.9691 -0.5642  0.6617
    4CHL1  H21C  277   3.422   4.013   4.522 -2.3899 -0.7283 -1.3828
    4CHL1   C22  278   3.711   3.888   4.359  0.2097  0.0412  0.3714
    4CHL1  H22A  279   3.820   3.907   4.349  0.1377  0.0072 -0.5502
    4CHL1  H22B  280   3.693   3.793   4.414  0.0154 -0.0917  0.0794
    4CHL1   C23  281   3.659   3.868   4.214 -0.0879  0.2302 -0.7038
    4CHL1  H23A  282   3.553   3.833   4.209  0.3248 -1.0712 -0.8428
    4CHL1  H23B  283   3.670   3.970   4.171 -2.7558  0.8063 -0.2122
    4CHL1   C24  284   3.735   3.747   4.144 -0.0388  0.1074  0.6030
    4CHL1  H24A  285   3.841   3.770   4.167  0.1739  2.1029 -1.8629
    4CHL1  H24B  286   3.708   3.652   4.195  1.8510 -1.8779 -1.8828
    4CHL1   C25  287   3.703   3.742   3.995 -0.0817 -0.9022 -0.1350
    4CHL1   H25  288   3.720   3.846   3.960 -0.9439 -0.7467 -0.1182
    4CHL1   C26  289   3.799   3.653   3.918 -0.4402  0.1816  0.3580
    4CHL1  H26A  290   3.904   3.688   3.910  0.1303 -1.6333 -0.3972
    4CHL1  H26B  291   3.789   3.552   3.962 -0.4534  1.1375  2.7052
    4CHL1  H26C  292   3.768   3.644   3.812  2.8349 -1.1750 -0.5884
    4CHL1   C27  293   3.562   3.694   3.961 -0.2511  0.2250 -0.2085
    4CHL1  H27A  294   3.560   3.583   3.961  0.4630  0.1861 -1.8209
    4CHL1  H27B  295   3.482   3.737   4.026 -1.6171  1.9094 -2.8339
    4CHL1  H27C  296   3.542   3.724   3.856 -0.5826  1.0795  0.0878
    5CHL1    C3  297   4.234   4.510   5.475  0.2330 -0.2959  0.1411
    5CHL1    H3  298   4.219   4.620   5.478 -0.6196 -0.1317 -4.1819
    5CHL1    O3  299   4.239   4.462   5.602  0.5611 -0.0727 -0.3128
    5CHL1   H3'  300   4.227   4.367   5.601 -3.8639  0.0971  3.0734
    5CHL1    C4  301   4.113   4.450   5.399 -0.1235  0.2699  0.4350
    5CHL1   H4A  302   4.115   4.339   5.393 -3.1947  0.1929 -1.5775
    5CHL1   H4B  303   4.020   4.469   5.458  0.7523 -2.3173  2.8678
    5CHL1    C5  304   4.106   4.506   5.256 -0.6101  0.2863  0.5573
    5CHL1    C6  305   3.999   4.578   5.208 -0.7797 -0.3712 -0.1127
    5CHL1    H6  306   3.916   4.587   5.280  0.5896  1.3823  1.3649
    5CHL1    C7  307   3.986   4.632   5.069 -0.3557  0.0737  0.2385
    5CHL1   H7A  308   3.880   4.612   5.040 -0.0788 -0.1336 -0.6581
    5CHL1   H7B  309   4.006   4.742   5.067 -0.1488  0.0272 -1.7165
    5CHL1    C8  310   4.090   4.570   4.979 -0.3549  0.3991 -0.3196
    5CHL1    H8  311   4.067   4.462   4.968 -1.2552  0.2498  2.3616
    5CHL1   C14  312   4.094   4.644   4.847  0.2150 -0.3410  0.2950
    5CHL1   H14  313   4.133   4.745   4.874  2.1679 -0.7889 -0.6544
    5CHL1   C15  314   3.963   4.665   4.769 -0.2114 -0.6787  0.5221
    5CHL1  H15A  315   3.896   4.577   4.775 -2.0297  0.6181  0.2663
    5CHL1  H15B  316   3.900   4.753   4.795  0.4353  1.0226 -3.0482
    5CHL1   C16  317   4.015   4.689   4.620  0.0325  0.0556 -0.4879
    5CHL1  H16A  318   3.998   4.608   4.546  1.5320 -0.9756  0.2377
    5CHL1  H16B  319   3.978   4.786   4.580  0.3202  0.0392 -0.7995
    5CHL1   C17  320   4.171   4.690   4.624  0.6638  0.0278 -0.6355
    5CHL1   H17  321   4.203   4.794   4.649  1.7087  0.0954 -2.1325
    5CHL1   C13  322   4.202   4.593   4.745  0.3496 -0.0060 -0.5545
    5CHL1   C18  323   4.181   4.444   4.698  0.1585 -0.5558 -0.6390
    5CHL1  H18A  324   4.183   4.372   4.783 -0.9396  0.3115  0.1572
    5CHL1  H18B  325   4.086   4.422   4.645  0.2734  0.3389 -1.2322
    5CHL1  H18C  326   4.262   4.412   4.630  1.4444 -1.0733  1.0723
    5CHL1   C12  327   4.332   4.621   4.820  0.3900 -0.9330 -0.3578
    5CHL1  H12A  328   4.417   4.588   4.756  0.2677 -2.9654  0.4554
    5CHL1  H12B  329   4.343   4.732   4.829  0.0777 -1.0397  2.0187
    5CHL1   C11  330   4.341   4.548   4.953  0.7373  0.0168 -0.0988
    5CHL1  H11A  331   4.355   4.439   4.936  0.9685 -0.4072  2.3967
    5CHL1  H11B  332   4.437   4.566   5.007  0.1801 -0.6341  1.1587
    5CHL1    C9  333   4.228   4.570   5.051  1.0036  0.2101  0.4048
    5CHL1    H9  334   4.248   4.672   5.090  1.9464 -0.9142  3.1455
    5CHL1   C10  335   4.235   4.479   5.176  0.3934 -0.2261  0.2588
    5CHL1   C19  336   4.243   4.326   5.142  0.0514 -0.3808  0.0446
    5CHL1  H19A  337   4.349   4.299   5.120  0.0654 -1.2937  1.1484
    5CHL1  H19B  338   4.202   4.251   5.212  0.5882  0.9881  1.9299
    5CHL1  H19C  339   4.177   4.297   5.059  1.0824 -3.6128  0.2425
    5CHL1    C1  340   4.364   4.534   5.257 -0.2038  0.5726 -0.5878
    5CHL1   H1A  341   4.463   4.516   5.211 -1.3386  1.1549 -3.5181
    5CHL1   H1B  342   4.352   4.643   5.277 -2.4941  0.4432 -0.9937
    5CHL1    C2  343   4.362   4.473   5.401  0.2193 -0.7660  0.3266
    5CHL1   H2A  344   4.451   4.511   5.455  0.7601  1.6874 -2.1036
    5CHL1   H2B  345   4.372   4.362   5.394 -0.3716 -0.8127  0.1113
    5CHL1   C20  346   4.223   4.662   4.483  0.6802 -1.0037  0.6561
    5CHL1   H20  347   4.197   4.556   4.461 -0.1203 -1.0075  1.5461
    5CHL1   C21  348   4.380   4.667   4.490 -0.6490 -0.3767  0.3735
    5CHL1  H21A  349   4.425   4.658   4.389 -2.1542 -2.6820 -0.1712
    5CHL1  H21B  350   4.429   4.580   4.539 -3.0290 -1.6485  0.6466
    5CHL1  H21C  351   4.422   4.758   4.538  1.2046 -0.5412 -0.8204
    5CHL1   C22  352   4.176   4.757   4.376 -0.5377 -0.4186  0.7968
    5CHL1  H22A  353   4.065   4.755   4.377 -0.5535 -2.5117 -0.2077
    5CHL1  H22B  354   4.196   4.866   4.388 -1.9064 -0.0187 -0.3614
    5CHL1   C23  355   4.196   4.717   4.229 -0.4426 -0.4342 -0.1631
    5CHL1  H23A  356   4.302   4.724   4.196 -1.1775  0.8327 -2.4419
    5CHL1  H23B  357   4.158   4.612   4.224  0.4774 -1.1361  3.8155
    5CHL1   C24  358   4.123   4.808   4.129  0.2781 -0.3326  0.5347
    5CHL1  H24A  359   4.013   4.806   4.139  0.3059 -1.3028  0.7554
    5CHL1  H24B  360   4.154   4.914   4.143 -2.6444  0.8859 -1.3763
    5CHL1   C25  361   4.157   4.768   3.981  0.4647  0.4950  0.4995
    5CHL1   H25  362   4.087   4.822   3.914  0.9894  1.1362  0.4587
    5CHL1   C26  363   4.300   4.816   3.938  0.2844  0.2583  0.4961
    5CHL1  H26A  364   4.325   4.793   3.833  0.5812 -0.9848  0.8209
    5CHL1  H26B  365   4.307   4.926   3.956 -0.3889  0.3706  0.1048
    5CHL1  H26C  366   4.374   4.757   3.997 -1.0034 -2.6581 -0.6555
    5CHL1   C27  367   4.134   4.620   3.954 -0.3310 -0.0541 -0.1055
    5CHL1  H27A  368   4.228   4.569   3.984  1.1959  0.5718 -3.3673
    5CHL1  H27B  369   4.054   4.582   4.020  0.9434 -2.2212  0.2794
    5CHL1  H27C  370   4.118   4.589   3.848  0.3879 -1.2578  0.1171
    6CHL1    C3  371   3.216   2.447   5.484  0.0359 -0.1473 -0.4241
    6CHL1    H3  372   3.137   2.373   5.462 -0.4152 -0.2544  1.3665
    6CHL1    O3  373   3.228   2.447   5.624  0.3676 -0.5186  0.4708
    6CHL1   H3'  374   3.317   2.483   5.627  0.7276 -1.2606 -0.7197
    6CHL1    C4  375   3.353   2.417   5.405 -0.5556  0.6766 -0.3176
    6CHL1   H4A  376   3.428   2.479   5.459 -0.8280 -0.6582  1.7426
    6CHL1   H4B  377   3.391   2.314   5.425 -0.1576  0.6447 -1.2203
    6CHL1    C5  378   3.344   2.435   5.258 -0.6058 -0.0714  1.1087
    6CHL1    C6  379   3.379   2.331   5.177 -0.0083 -0.7680 -0.3450
    6CHL1    H6  380   3.430   2.242   5.217  1.3689 -0.8499 -2.1489
    6CHL1    C7  381   3.365   2.326   5.031  0.4993 -0.8983 -0.1964
    6CHL1   H7A  382   3.449   2.285   4.972 -1.2295 -1.6138 -2.3032
    6CHL1   H7B  383   3.281   2.254   5.019  0.4147 -1.2119  1.9236
    6CHL1    C8  384   3.337   2.468   4.973  0.0850  0.8269 -1.0986
    6CHL1    H8  385   3.434   2.523   4.967  0.8086 -0.0953  1.0495
    6CHL1   C14  386   3.267   2.448   4.838  0.9356 -0.1691 -0.5209
    6CHL1   H14  387   3.164   2.409   4.845  0.8599  0.0324 -0.5078
    6CHL1   C15  388   3.329   2.354   4.738 -0.4437 -0.0446  0.7435
    6CHL1  H15A  389   3.438   2.358   4.714 -1.1031 -0.0691 -2.7952
    6CHL1  H15B  390   3.299   2.249   4.759 -1.7515  0.3723  1.0098
    6CHL1   C16  391   3.250   2.392   4.612 -0.1307  1.5311 -0.1768
    6CHL1  H16A  392   3.322   2.370   4.530  1.7221 -1.5434  2.0262
    6CHL1  H16B  393   3.164   2.325   4.588  1.4846 -0.8871  0.3664
    6CHL1   C17  394   3.191   2.531   4.632  0.1449 -0.2589 -0.1713
    6CHL1   H17  395   3.084   2.518   4.657  0.0225 -0.4924 -0.8120
    6CHL1   C13  396   3.253   2.582   4.762 -0.0792  0.6816  0.6669
    6CHL1   C18  397   3.387   2.652   4.739 -0.5273  0.4433  0.4363
    6CHL1  H18A  398   3.465   2.581   4.703 -0.5299  0.7833 -0.2701
    6CHL1  H18B  399   3.375   2.733   4.664 -0.4891 -0.1432 -0.2150
    6CHL1  H18C  400   3.428   2.688   4.836  0.0711 -1.7276  1.0428
    6CHL1   C12  401   3.157   2.663   4.848  0.0303 -0.3659  0.4705
    6CHL1  H12A  402   3.142   2.760   4.796 -0.5202 -0.3422  0.6768
    6CHL1  H12B  403   3.065   2.603   4.852  0.5016 -1.0380  1.8749
    6CHL1   C11  404   3.212   2.686   4.989 -0.0863  0.3954  0.3418
    6CHL1  H11A  405   3.300   2.753   4.986  0.0314  0.3065  1.3640
    6CHL1  H11B  406   3.139   2.741   5.053 -0.5691  0.3981 -0.2019
    6CHL1    C9  407   3.237   2.546   5.055  0.0169 -0.1351 -0.8218
    6CHL1    H9  408   3.148   2.481   5.048  0.0454 -0.0876 -1.7747
    6CHL1   C10  409   3.275   2.561   5.204  0.2609  0.7026 -0.5739
    6CHL1   C19  410   3.382   2.679   5.224  0.2620  0.2163 -0.2733
    6CHL1  H19A  411   3.336   2.779   5.204 -0.8617 -0.4161 -0.9979
    6CHL1  H19B  412   3.409   2.689   5.331  2.8956  0.0619 -0.8541
    6CHL1  H19C  413   3.472   2.664   5.161 -0.2076 -1.4200 -0.6002
    6CHL1    C1  414   3.138   2.588   5.288 -0.0494 -0.4150  0.2356
    6CHL1   H1A  415   3.098   2.689   5.268 -0.4088 -0.5783  0.1243
    6CHL1   H1B  416   3.066   2.509   5.259 -1.0669  0.7211 -0.4285
    6CHL1    C2  417   3.155   2.582   5.439 -0.0655  0.4270 -0.3626
    6CHL1   H2A  418   3.052   2.601   5.476 -0.8293 -3.0032 -0.3417
    6CHL1   H2B  419   3.217   2.669   5.472  2.2816 -0.8330 -1.2003
    6CHL1   C20  420   3.174   2.607   4.504 -0.0287 -0.0339  0.2533
    6CHL1   H20  421   3.139   2.708   4.535 -1.9611 -0.8587  0.8968
    6CHL1   C21  422   3.065   2.546   4.420  0.4281  0.1234  0.8409
    6CHL1  H21A  423   2.972   2.523   4.476  0.8203 -2.5498  0.5193
    6CHL1  H21B  424   3.100   2.443   4.394 -2.2833 -0.7331  0.3139
    6CHL1  H21C  425   3.051   2.615   4.335 -1.6818 -0.0437  1.0061
    6CHL1   C22  426   3.300   2.611   4.407 -0.4514  0.4248  0.0290
    6CHL1  H22A  427   3.393   2.601   4.467  0.3801  1.2169 -1.0906
    6CHL1  H22B  428   3.293   2.529   4.333 -1.6150 -0.3992  1.0077
    6CHL1   C23  429   3.301   2.749   4.330  0.1436  0.5193 -0.5409
    6CHL1  H23A  430   3.199   2.756   4.287  0.0278 -3.0061 -1.1881
    6CHL1  H23B  431   3.334   2.827   4.401  2.1118  1.7021 -2.6398
    6CHL1   C24  432   3.400   2.740   4.210  0.1984 -0.2708  0.7569
    6CHL1  H24A  433   3.498   2.700   4.242  0.5883  1.1998  1.4700
    6CHL1  H24B  434   3.364   2.663   4.138 -0.2105  0.0802  0.5819
    6CHL1   C25  435   3.412   2.883   4.154  0.1906  0.6323  0.4890
    6CHL1   H25  436   3.312   2.922   4.124 -0.4566 -1.1922  0.0939
    6CHL1   C26  437   3.473   2.979   4.264  0.5126  0.1136  0.0663
    6CHL1  H26A  438   3.392   3.018   4.329 -2.5187 -1.3136 -2.5538
    6CHL1  H26B  439   3.549   2.927   4.325  0.7449 -0.8081 -0.9673
    6CHL1  H26C  440   3.520   3.069   4.217  0.3090 -0.0193 -0.4038
    6CHL1   C27  441   3.506   2.876   4.031 -0.0390  0.1274 -0.1011
    6CHL1  H27A  442   3.598   2.827   4.070 -0.5425 -1.6205 -1.0359
    6CHL1  H27B  443   3.459   2.824   3.945  0.1738  0.7193 -0.5818
    6CHL1  H27C  444   3.524   2.981   3.999  1.0052  1.2385  3.5569
    7CHL1    C3  445   4.574   2.702   5.718 -0.5466  0.3023  0.4056
    7CHL1    H3  446   4.615   2.799   5.684 -2.0190  1.4593  1.7612
    7CHL1    O3  447   4.615   2.685   5.854  0.3113  0.1865  0.7326
    7CHL1   H3'  448   4.619   2.589   5.864 -1.7370  0.0855  0.9581
    7CHL1    C4  449   4.417   2.702   5.711 -0.3868  0.1489 -0.1274
    7CHL1   H4A  450   4.367   2.614   5.759  0.6444 -2.1566 -3.0174
    7CHL1   H4B  451   4.384   2.799   5.754  2.2443  0.1762  2.0896
    7CHL1    C5  452   4.367   2.699   5.567 -0.6453 -0.1562 -0.6361
    7CHL1    C6  453   4.280   2.795   5.523 -0.1181  0.4062  0.1422
    7CHL1    H6  454   4.248   2.880   5.585 -2.5798 -0.6100  0.3532
    7CHL1    C7  455   4.239   2.802   5.378  0.2217  0.5792  0.2295
    7CHL1   H7A  456   4.130   2.823   5.374  0.4573  2.1203  1.1375
    7CHL1   H7B  457   4.293   2.888   5.333  0.8940 -0.1325 -0.3443
    7CHL1    C8  458   4.269   2.678   5.288  0.3526  0.0767  0.0478
    7CHL1    H8  459   4.192   2.601   5.312  0.1029 -0.2158 -1.5912
    7CHL1   C14  460   4.251   2.717   5.140 -0.7834 -0.1848  0.2006
    7CHL1   H14  461   4.318   2.804   5.125 -2.3702  0.8388 -1.2978
    7CHL1   C15  462   4.112   2.772   5.097  0.2823  0.1120 -0.1413
    7CHL1  H15A  463   4.046   2.691   5.133  1.2647 -1.4308 -1.6099
    7CHL1  H15B  464   4.099   2.879   5.124  1.8481  0.5749 -1.0793
    7CHL1   C16  465   4.112   2.750   4.945 -0.4133 -0.1942  0.6423
    7CHL1  H16A  466   4.020   2.699   4.910 -0.7319 -0.0131  1.2051
    7CHL1  H16B  467   4.123   2.848   4.895  1.4383 -0.2340  0.9068
    7CHL1   C17  468   4.249   2.683   4.913 -0.0241  0.3767 -0.0231
    7CHL1   H17  469   4.320   2.769   4.914 -0.6075  0.8899  1.6582
    7CHL1   C13  470   4.289   2.604   5.042  0.4662  0.6811  0.1051
    7CHL1   C18  471   4.193   2.477   5.054 -0.2290 -0.3488  0.2520
    7CHL1  H18A  472   4.244   2.389   5.009  1.2857  1.5069 -1.8667
    7CHL1  H18B  473   4.179   2.454   5.162  0.8962  1.8767  0.9239
    7CHL1  H18C  474   4.105   2.500   4.990 -0.8702  0.6966  1.4720
    7CHL1   C12  475   4.438   2.572   5.071  0.4354  0.4720  0.0789
    7CHL1  H12A  476   4.470   2.488   5.006  1.7381 -0.1623  1.4600
    7CHL1  H12B  477   4.505   2.657   5.048 -0.9201  0.6889 -3.7271
    7CHL1   C11  478   4.464   2.529   5.214  0.0603  0.3083 -0.8693
    7CHL1  H11A  479   4.417   2.431   5.237  3.2152 -1.1927 -0.2730
    7CHL1  H11B  480   4.571   2.508   5.233 -0.0460  1.0976  0.7794
    7CHL1    C9  481   4.409   2.637   5.319  0.0503 -0.3380  1.4605
    7CHL1    H9  482   4.474   2.728   5.316 -0.7299  0.3552  3.6373
    7CHL1   C10  483   4.431   2.601   5.470 -0.2904  0.3706 -0.2013
    7CHL1   C19  484   4.361   2.459   5.489  0.2099 -0.0374  0.6374
    7CHL1  H19A  485   4.366   2.425   5.594  0.1157 -2.7770 -0.1685
    7CHL1  H19B  486   4.255   2.469   5.455  0.6385  0.8492 -0.5241
    7CHL1  H19C  487   4.418   2.386   5.426  2.2252  0.7697  1.4483
    7CHL1    C1  488   4.589   2.596   5.489 -0.3680 -0.0322  0.2814
    7CHL1   H1A  489   4.619   2.500   5.440 -1.1553 -0.2568  0.2250
    7CHL1   H1B  490   4.641   2.682   5.443  0.1096 -0.5766 -0.2132
    7CHL1    C2  491   4.631   2.581   5.635  0.0807 -0.4898  0.1561
    7CHL1   H2A  492   4.740   2.571   5.654 -0.3087 -3.1830  1.5697
    7CHL1   H2B  493   4.596   2.478   5.659  2.5508 -1.4286  0.0836
    7CHL1   C20  494   4.240   2.615   4.770 -0.0413  0.4914  0.0785
    7CHL1   H20  495   4.148   2.552   4.771  0.8964 -0.9658 -1.5751
    7CHL1   C21  496   4.357   2.519   4.736 -0.9110  0.0466  0.0904
    7CHL1  H21A  497   4.440   2.588   4.710 -2.1287  1.5629  0.0740
    7CHL1  H21B  498   4.331   2.451   4.651  1.3028 -2.1144  1.0075
    7CHL1  H21C  499   4.382   2.449   4.819 -1.4480 -0.1368  0.1046
    7CHL1   C22  500   4.219   2.718   4.661  0.3517 -0.7746  0.2219
    7CHL1  H22A  501   4.115   2.757   4.666  0.1142 -1.2889 -0.5115
    7CHL1  H22B  502   4.290   2.802   4.674 -0.4028 -0.0921  0.0277
    7CHL1   C23  503   4.253   2.665   4.518 -0.1112  0.5026  0.0299
    7CHL1  H23A  504   4.363   2.652   4.508 -0.1428 -0.3305  0.6163
    7CHL1  H23B  505   4.200   2.567   4.526 -1.1809  1.1823  5.7309
    7CHL1   C24  506   4.193   2.746   4.404  0.1792 -0.0068 -0.3002
    7CHL1  H24A  507   4.089   2.780   4.427  0.5763 -0.7310  3.0881
    7CHL1  H24B  508   4.256   2.838   4.403  0.0910  0.0520 -0.4438
    7CHL1   C25  509   4.207   2.677   4.271  0.6279  0.4127  0.5554
    7CHL1   H25  510   4.305   2.624   4.277  1.0340  0.9246 -1.2546
    7CHL1   C26  511   4.102   2.574   4.247 -0.0078  0.1616 -0.0106
    7CHL1  H26A  512   4.136   2.510   4.164  0.3272  0.2893  0.0253
    7CHL1  H26B  513   4.115   2.502   4.331  2.2562 -0.5448 -0.8863
    7CHL1  H26C  514   4.004   2.622   4.226  0.0862 -0.1126 -1.1112
    7CHL1   C27  515   4.213   2.776   4.154  0.5889 -0.0041 -0.7072
    7CHL1  H27A  516   4.113   2.818   4.129 -0.2760 -0.6983  1.4233
    7CHL1  H27B  517   4.273   2.863   4.188 -2.3561  1.9966 -0.2883
    7CHL1  H27C  518   4.260   2.728   4.065 -0.0477 -2.6951  0.3271
    8CHL1    C3  519   2.656   2.970   5.623 -0.2928 -0.4691 -0.6852
    8CHL1    H3  520   2.573   3.036   5.589 -0.9664 -1.4981 -1.0834
    8CHL1    O3  521   2.669   2.965   5.766 -0.1619  0.0902 -0.4936
    8CHL1   H3'  522   2.701   2.875   5.776 -0.7908 -0.3336 -1.9651
    8CHL1    C4  523   2.615   2.827   5.585  0.0909 -0.6538  1.2610
    8CHL1   H4A  524   2.680   2.746   5.625  0.1588 -1.3167 -0.1580
    8CHL1   H4B  525   2.512   2.811   5.623 -0.6815 -0.2062 -0.5352
    8CHL1    C5  526   2.594   2.817   5.435 -0.4964  0.4229 -0.5441
    8CHL1    C6  527   2.485   2.781   5.374  0.1266  0.8954  0.3240
    8CHL1    H6  528   2.403   2.747   5.439 -0.6496 -0.9458 -1.4743
    8CHL1    C7  529   2.462   2.765   5.227 -0.1422  0.4699 -0.7758
    8CHL1   H7A  530   2.407   2.669   5.213 -0.4945  0.8107 -1.8575
    8CHL1   H7B  531   2.394   2.846   5.193 -2.2705 -1.5119 -1.5307
    8CHL1    C8  532   2.594   2.762   5.146 -0.0513  0.2097  0.2116
    8CHL1    H8  533   2.642   2.662   5.160 -0.2060  0.1059  0.0072
    8CHL1   C14  534   2.569   2.784   5.004  0.2613 -0.2179  0.6448
    8CHL1   H14  535   2.526   2.886   4.993  2.1886  0.6382  0.6199
    8CHL1   C15  536   2.471   2.678   4.931 -0.2564 -0.3211  0.7675
    8CHL1  H15A  537   2.498   2.576   4.966  0.8409 -0.6705 -1.0059
    8CHL1  H15B  538   2.365   2.709   4.944  0.3232  2.6524 -0.7901
    8CHL1   C16  539   2.503   2.676   4.782  0.1460  0.5802 -0.3140
    8CHL1  H16A  540   2.538   2.577   4.745  0.2324  0.5168 -0.0667
    8CHL1  H16B  541   2.415   2.697   4.718  1.0977 -0.4711 -2.0741
    8CHL1   C17  542   2.627   2.779   4.769  1.1879 -0.1305 -0.9447
    8CHL1   H17  543   2.595   2.885   4.755  1.3714 -0.3206 -3.3583
    8CHL1   C13  544   2.691   2.770   4.913  0.2013  0.2057 -0.1620
    8CHL1   C18  545   2.763   2.631   4.926  0.5490 -0.0349 -0.3530
    8CHL1  H18A  546   2.845   2.630   4.850  0.9584  3.4211 -0.1537
    8CHL1  H18B  547   2.809   2.606   5.023  0.7301 -3.0059 -1.1010
    8CHL1  H18C  548   2.695   2.548   4.898 -1.3514  0.7747  1.6515
    8CHL1   C12  549   2.770   2.893   4.956 -0.3339  1.2171 -0.1327
    8CHL1  H12A  550   2.869   2.913   4.910 -0.6330  0.2729 -1.2507
    8CHL1  H12B  551   2.717   2.989   4.936 -2.1139  0.0730 -1.2820
    8CHL1   C11  552   2.804   2.885   5.101 -0.0433 -0.2043 -0.2603
    8CHL1  H11A  553   2.882   2.812   5.131 -0.8161 -0.2122  1.9348
    8CHL1  H11B  554   2.837   2.988   5.125 -0.0958 -0.6239  1.8223
    8CHL1    C9  555   2.682   2.866   5.197  0.1356  0.4112 -0.0453
    8CHL1    H9  556   2.638   2.966   5.176  1.2464  1.1290  0.8750
    8CHL1   C10  557   2.717   2.858   5.350  0.2529 -0.0721  0.4530
    8CHL1   C19  558   2.823   2.741   5.373  0.5853 -0.2008  0.3419
    8CHL1  H19A  559   2.772   2.644   5.355  0.5913 -0.2402  0.5302
    8CHL1  H19B  560   2.911   2.760   5.309 -0.9195  0.7266 -1.5595
    8CHL1  H19C  561   2.849   2.748   5.481 -0.4850  2.3715  0.5073
    8CHL1    C1  562   2.774   2.994   5.393 -0.1553 -0.6378  0.2577
    8CHL1   H1A  563   2.867   3.008   5.334 -0.7769 -0.5658 -0.7393
    8CHL1   H1B  564   2.702   3.075   5.365 -0.4407 -0.5894  1.0918
    8CHL1    C2  565   2.782   3.016   5.548  0.5988 -0.2692  0.0312
    8CHL1   H2A  566   2.795   3.125   5.564 -0.4324 -0.1840  0.3433
    8CHL1   H2B  567   2.862   2.952   5.591  0.6925  1.4763  2.6895
    8CHL1   C20  568   2.710   2.746   4.643 -0.2293  0.1528  0.6114
    8CHL1   H20  569   2.731   2.637   4.646  1.4216  0.4716  2.2521
    8CHL1   C21  570   2.847   2.817   4.641  0.1468 -0.3977  0.4226
    8CHL1  H21A  571   2.910   2.800   4.731 -1.9628 -2.0035  1.6922
    8CHL1  H21B  572   2.834   2.927   4.633 -1.0705 -0.5417  0.3528
    8CHL1  H21C  573   2.906   2.785   4.552 -1.0662 -0.8127 -0.2541
    8CHL1   C22  574   2.631   2.781   4.518 -0.6047 -0.4176  0.1175
    8CHL1  H22A  575   2.524   2.754   4.529 -0.7570  0.8164  2.1067
    8CHL1  H22B  576   2.638   2.890   4.497  0.8079 -0.6698 -0.8737
    8CHL1   C23  577   2.687   2.697   4.403  0.1468  0.0742  0.5829
    8CHL1  H23A  578   2.786   2.744   4.381  1.0296  0.4528  4.5376
    8CHL1  H23B  579   2.696   2.594   4.444 -0.0312  0.0774  0.6267
    8CHL1   C24  580   2.597   2.690   4.273  0.8993 -0.3261 -0.1790
    8CHL1  H24A  581   2.495   2.666   4.310  1.5081 -1.7523  0.6513
    8CHL1  H24B  582   2.598   2.792   4.229  0.2381 -0.3853 -0.3432
    8CHL1   C25  583   2.632   2.580   4.169  0.4759  0.5620  0.3711
    8CHL1   H25  584   2.640   2.490   4.233  0.6072  1.6925  2.0166
    8CHL1   C26  585   2.525   2.566   4.062 -0.3777  0.3280 -0.2171
    8CHL1  H26A  586   2.513   2.651   3.991 -2.4519 -1.5480 -2.2557
    8CHL1  H26B  587   2.544   2.481   3.993 -0.2881 -0.1365  0.3809
    8CHL1  H26C  588   2.427   2.548   4.110 -0.2220 -0.0243 -0.0345
    8CHL1   C27  589   2.775   2.589   4.111  0.4778  0.1678 -0.1051
    8CHL1  H27A  590   2.852   2.605   4.189  1.5344 -3.3376 -0.2507
    8CHL1  H27B  591   2.807   2.495   4.062  0.4462  0.7469 -1.2906
    8CHL1  H27C  592   2.789   2.675   4.042  0.2259  1.6138  1.6008
    9CHL1    C3  593   5.206   3.564   5.567 -0.5141  0.4933  0.5566
    9CHL1    H3  594   5.210   3.675   5.568  2.2692  0.5401 -1.7138
    9CHL1    O3  595   5.197   3.499   5.696  0.0766  0.2257  0.0032
    9CHL1   H3'  596   5.259   3.545   5.753 -1.7888  2.7389  0.1844
    9CHL1    C4  597   5.094   3.507   5.482 -0.2272 -0.1080  0.6742
    9CHL1   H4A  598   5.109   3.397   5.481 -1.9050 -0.6122 -4.6557
    9CHL1   H4B  599   4.995   3.529   5.528 -0.2131 -0.7392  1.0145
    9CHL1    C5  600   5.101   3.553   5.338 -0.4020 -0.4742  0.6236
    9CHL1    C6  601   5.004   3.619   5.279 -0.3766 -0.0022 -0.4609
    9CHL1    H6  602   4.904   3.625   5.325  0.1533  3.0734  0.5432
    9CHL1    C7  603   5.006   3.675   5.134  0.5232  0.2808 -0.5739
    9CHL1   H7A  604   4.915   3.652   5.075  0.5765 -3.4919  0.5594
    9CHL1   H7B  605   5.020   3.785   5.137  0.2858  0.3101  1.6810
    9CHL1    C8  606   5.118   3.605   5.058 -0.7800  0.5715 -0.0362
    9CHL1    H8  607   5.078   3.504   5.039 -2.7659  1.2772  0.1243
    9CHL1   C14  608   5.139   3.665   4.915  0.0302  0.1665 -0.5130
    9CHL1   H14  609   5.157   3.773   4.932  1.7549 -0.1293 -0.3596
    9CHL1   C15  610   5.014   3.662   4.825 -0.2387  0.0888 -0.4497
    9CHL1  H15A  611   4.977   3.557   4.828 -0.4071  0.1436 -0.6263
    9CHL1  H15B  612   4.934   3.735   4.848  0.2623  0.2359  0.9289
    9CHL1   C16  613   5.068   3.698   4.685 -1.2029 -0.0683 -0.3331
    9CHL1  H16A  614   5.027   3.639   4.600 -0.5502 -1.1295  0.0627
    9CHL1  H16B  615   5.039   3.804   4.668 -2.6748 -0.6214 -1.5454
    9CHL1   C17  616   5.220   3.684   4.691 -0.5771 -0.2616  0.5438
    9CHL1   H17  617   5.273   3.780   4.709  0.2764 -1.0587  2.5063
    9CHL1   C13  618   5.252   3.612   4.827 -0.1279 -0.3285 -0.0924
    9CHL1   C18  619   5.231   3.452   4.808 -0.9796 -0.9287  0.5877
    9CHL1  H18A  620   5.207   3.409   4.908 -1.8613  2.5540  2.0304
    9CHL1  H18B  621   5.139   3.437   4.748  0.2577 -2.1933 -1.0766
    9CHL1  H18C  622   5.328   3.420   4.764 -1.1295 -0.9914  0.3018
    9CHL1   C12  623   5.387   3.632   4.903 -0.3338  0.1050  0.1520
    9CHL1  H12A  624   5.477   3.589   4.854  0.2212  0.7579  0.5873
    9CHL1  H12B  625   5.414   3.738   4.923  2.0879 -0.2234 -0.9716
    9CHL1   C11  626   5.376   3.562   5.047  0.0608 -0.0259 -0.9269
    9CHL1  H11A  627   5.378   3.452   5.036 -0.1722 -0.4838  2.5972
    9CHL1  H11B  628   5.466   3.584   5.108 -0.7514 -1.0307  0.6818
    9CHL1    C9  629   5.249   3.598   5.135 -0.5855  0.0184 -0.6596
    9CHL1    H9  630   5.268   3.703   5.164 -1.5938  0.8039 -2.6949
    9CHL1   C10  631   5.235   3.520   5.271 -0.2158  0.6124  0.4037
    9CHL1   C19  632   5.237   3.367   5.252 -0.0829  0.2131  0.1149
    9CHL1  H19A  633   5.153   3.329   5.189 -1.8268  2.4728  0.9123
    9CHL1  H19B  634   5.333   3.342   5.203 -1.2048 -0.2550 -1.9948
    9CHL1  H19C  635   5.232   3.314   5.349 -0.5872  0.9341  0.4942
    9CHL1    C1  636   5.351   3.564   5.365 -0.6214  0.6267  0.1668
    9CHL1   H1A  637   5.451   3.532   5.327 -0.1720  0.8095  1.1731
    9CHL1   H1B  638   5.349   3.674   5.374  1.2632  0.7557 -0.4584
    9CHL1    C2  639   5.344   3.523   5.510 -0.9357  0.1618  0.1826
    9CHL1   H2A  640   5.432   3.564   5.564 -0.0661 -1.9687  0.4939
    9CHL1   H2B  641   5.362   3.414   5.517 -0.2288  0.2085 -0.7425
    9CHL1   C20  642   5.289   3.626   4.559  0.0538  0.2619 -0.9725
    9CHL1   H20  643   5.294   3.517   4.581 -1.9668 -0.4252 -3.4847
    9CHL1   C21  644   5.442   3.680   4.556  0.2564  0.7920  0.4053
    9CHL1  H21A  645   5.504   3.637   4.474  1.8420  1.4694  1.2090
    9CHL1  H21B  646   5.495   3.658   4.651  0.9853 -1.0499 -0.3577
    9CHL1  H21C  647   5.454   3.790   4.558  0.4128  0.7652  1.6573
    9CHL1   C22  648   5.218   3.635   4.421  0.6399 -0.4453 -0.0127
    9CHL1  H22A  649   5.121   3.583   4.431 -0.0154  0.0824 -2.7186
    9CHL1  H22B  650   5.197   3.744   4.411 -0.6084 -0.7007 -0.3820
    9CHL1   C23  651   5.293   3.571   4.301 -0.3867 -0.1062  0.0599
    9CHL1  H23A  652   5.401   3.594   4.294  0.4172 -2.7949  1.6920
    9CHL1  H23B  653   5.291   3.460   4.298  1.6723 -0.2263  1.2781
    9CHL1   C24  654   5.246   3.611   4.160  0.0167 -0.1351  0.2529
    9CHL1  H24A  655   5.137   3.589   4.150 -0.5830  2.4280  0.6166
    9CHL1  H24B  656   5.249   3.721   4.151  0.4885 -0.2208 -0.7845
    9CHL1   C25  657   5.312   3.556   4.029 -0.1812 -0.3262 -0.4343
    9CHL1   H25  658   5.312   3.449   4.058  1.3379  0.1149  1.4305
    9CHL1   C26  659   5.240   3.595   3.907  0.6612  0.2758 -0.1406
    9CHL1  H26A  660   5.287   3.555   3.815  0.2886 -0.0529 -0.1881
    9CHL1  H26B  661   5.134   3.560   3.910  0.8467 -0.3506 -0.6695
    9CHL1  H26C  662   5.240   3.706   3.897  1.2753  0.1290 -2.4185
    9CHL1   C27  663   5.462   3.598   4.025 -1.1511  0.6682 -0.2905
    9CHL1  H27A  664   5.471   3.705   3.995 -0.0590  0.4323 -0.8520
    9CHL1  H27B  665   5.521   3.594   4.119 -0.5784  0.7446 -0.6441
    9CHL1  H27C  666   5.511   3.553   3.936 -0.4015 -1.1817  0.9976
   10CHL1    C3  667   4.573   5.240   5.659  0.2297 -0.1270 -0.1379
   10CHL1    H3  668   4.479   5.237   5.717 -0.0324  3.6938 -0.0980
   10CHL1    O3  669   4.663   5.241   5.768 -0.0136 -0.1411 -0.9615
   10CHL1   H3'  670   4.655   5.327   5.812 -0.2269 -1.6841  2.3110
   10CHL1    C4  671   4.586   5.110   5.580 -0.0506  0.4582  0.1947
   10CHL1   H4A  672   4.693   5.092   5.556 -0.3983 -0.4918 -0.7100
   10CHL1   H4B  673   4.559   5.031   5.653 -0.2923  1.6024  1.3733
   10CHL1    C5  674   4.510   5.107   5.448  0.7375  0.0224  0.3007
   10CHL1    C6  675   4.420   5.007   5.421  0.8287  0.1831 -0.9193
   10CHL1    H6  676   4.421   4.927   5.496 -1.5774  3.4114  2.9655
   10CHL1    C7  677   4.341   4.988   5.295 -0.1577  0.5056 -0.0870
   10CHL1   H7A  678   4.340   4.886   5.251 -0.1081 -0.6228  2.3407
   10CHL1   H7B  679   4.235   5.016   5.315  0.5029  0.4624  4.5215
   10CHL1    C8  680   4.383   5.091   5.184  0.4081  0.2091 -0.2517
   10CHL1    H8  681   4.477   5.050   5.142  0.2608  0.4221 -0.7980
   10CHL1   C14  682   4.281   5.107   5.070  0.2510 -0.0543  0.3532
   10CHL1   H14  683   4.193   5.165   5.105  1.0692  3.1485 -2.3854
   10CHL1   C15  684   4.223   4.975   5.019 -0.4554  0.2553 -0.3960
   10CHL1  H15A  685   4.311   4.910   5.000  0.2647  0.5161  1.7152
   10CHL1  H15B  686   4.158   4.918   5.089  0.8302 -3.4207 -1.9156
   10CHL1   C16  687   4.162   5.015   4.888 -0.3302 -0.0287 -0.3410
   10CHL1  H16A  688   4.193   4.933   4.820 -1.7679  0.4779 -1.6685
   10CHL1  H16B  689   4.052   5.017   4.900 -0.2182  3.4745  1.6299
   10CHL1   C17  690   4.210   5.160   4.854  0.7335 -0.0967 -0.6692
   10CHL1   H17  691   4.131   5.223   4.902 -0.1159 -1.2707 -0.4966
   10CHL1   C13  692   4.330   5.185   4.948  0.7067 -0.2753  0.3924
   10CHL1   C18  693   4.467   5.141   4.889  0.5306 -0.5791  0.0516
   10CHL1  H18A  694   4.552   5.148   4.960 -1.7393  1.9733  2.7952
   10CHL1  H18B  695   4.444   5.037   4.859 -0.9553  0.4778 -2.8779
   10CHL1  H18C  696   4.495   5.207   4.804  1.0887  0.0333  0.7033
   10CHL1   C12  697   4.343   5.329   4.999 -0.2979 -0.0849 -0.5098
   10CHL1  H12A  698   4.359   5.403   4.918 -0.1451  1.0737  0.5484
   10CHL1  H12B  699   4.245   5.360   5.040  0.1597  0.8905 -0.1191
   10CHL1   C11  700   4.446   5.338   5.119 -0.7393  0.0203  0.2543
   10CHL1  H11A  701   4.550   5.324   5.082 -0.9615  1.9857 -1.2255
   10CHL1  H11B  702   4.445   5.443   5.155 -0.3939  0.8718 -2.0957
   10CHL1    C9  703   4.415   5.235   5.242 -1.1513  0.4323  0.0075
   10CHL1    H9  704   4.317   5.270   5.281 -1.0015  0.6246  0.2138
   10CHL1   C10  705   4.515   5.233   5.364 -1.3640  0.6002 -0.3718
   10CHL1   C19  706   4.657   5.210   5.298 -0.4001 -0.0312 -0.0560
   10CHL1  H19A  707   4.654   5.127   5.224  2.0104 -2.1789  2.0600
   10CHL1  H19B  708   4.694   5.302   5.248 -0.7864  1.6799  2.6068
   10CHL1  H19C  709   4.734   5.200   5.377 -0.9290 -3.0960  0.2127
   10CHL1    C1  710   4.518   5.364   5.439  0.3118 -0.0195 -0.4049
   10CHL1   H1A  711   4.548   5.441   5.365 -1.2483 -0.3224 -1.4136
   10CHL1   H1B  712   4.409   5.385   5.452  0.1722  0.2278 -1.7947
   10CHL1    C2  713   4.586   5.360   5.574 -0.7313 -0.2409 -0.2721
   10CHL1   H2A  714   4.578   5.457   5.628  3.9121  0.5405 -0.5941
   10CHL1   H2B  715   4.693   5.360   5.545 -0.9205  0.1338 -0.9933
   10CHL1   C20  716   4.221   5.186   4.713 -0.1543  0.3433  0.4297
   10CHL1   H20  717   4.299   5.120   4.670 -2.3141 -2.4539  0.4588
   10CHL1   C21  718   4.251   5.340   4.674  0.0095  0.0298  0.2802
   10CHL1  H21A  719   4.350   5.363   4.718  0.0547  0.3211  0.0305
   10CHL1  H21B  720   4.168   5.396   4.722 -1.9547 -3.8337  1.8259
   10CHL1  H21C  721   4.264   5.347   4.564 -0.8028  2.4072  0.2793
   10CHL1   C22  722   4.092   5.135   4.638 -0.1335  0.2542 -0.2532
   10CHL1  H22A  723   4.111   5.142   4.529 -0.4306  1.0205 -0.2668
   10CHL1  H22B  724   4.058   5.030   4.650  1.3310 -0.2261 -0.0799
   10CHL1   C23  725   3.962   5.223   4.663 -0.1605 -0.4677  0.1509
   10CHL1  H23A  726   3.922   5.208   4.765  1.2325  1.0488  0.9587
   10CHL1  H23B  727   3.996   5.328   4.656 -2.3701  0.1933 -2.6286
   10CHL1   C24  728   3.845   5.205   4.555 -0.0442  0.6497 -0.9063
   10CHL1  H24A  729   3.903   5.204   4.461  0.2872 -3.0264 -0.8263
   10CHL1  H24B  730   3.812   5.099   4.565  3.0394 -0.3005  0.6676
   10CHL1   C25  731   3.726   5.305   4.560 -0.2067 -0.4740 -0.0179
   10CHL1   H25  732   3.780   5.401   4.576  0.2334 -0.5592 -0.9186
   10CHL1   C26  733   3.651   5.308   4.428 -0.2713 -0.7355  0.1276
   10CHL1  H26A  734   3.567   5.380   4.430  0.0985 -0.2865 -0.0924
   10CHL1  H26B  735   3.717   5.347   4.347 -1.6558 -1.4332 -1.3998
   10CHL1  H26C  736   3.612   5.209   4.398  1.3754 -0.5402 -3.1051
   10CHL1   C27  737   3.636   5.266   4.671  0.4302 -0.5629  0.3366
   10CHL1  H27A  738   3.689   5.276   4.768  2.7908  0.1330 -0.9497
   10CHL1  H27B  739   3.547   5.333   4.671  0.2294 -0.6054 -3.7155
   10CHL1  H27C  740   3.608   5.159   4.660  0.8233 -0.8054  1.5415
   11CHL1    C3  741   2.659   2.382   5.436  0.1978 -0.8718  0.0766
   11CHL1    H3  742   2.611   2.472   5.391  0.8059 -1.0577 -0.9802
   11CHL1    O3  743   2.652   2.410   5.576 -0.1935  0.1854  0.4517
   11CHL1   H3'  744   2.719   2.360   5.623 -0.6509  0.6166  1.5879
   11CHL1    C4  745   2.575   2.263   5.398  0.4621  0.3677 -0.0471
   11CHL1   H4A  746   2.617   2.174   5.448 -1.4402 -1.2831 -1.2437
   11CHL1   H4B  747   2.472   2.278   5.438  0.7511  0.6289  0.6164
   11CHL1    C5  748   2.590   2.235   5.249  0.0879  0.5473  0.2843
   11CHL1    C6  749   2.476   2.230   5.176 -0.0168 -0.1000 -0.5452
   11CHL1    H6  750   2.381   2.242   5.232  0.3633  6.1132 -0.5763
   11CHL1    C7  751   2.476   2.205   5.026 -0.2131 -0.5191 -0.0599
   11CHL1   H7A  752   2.396   2.131   5.004 -0.3726  0.5289 -3.6518
   11CHL1   H7B  753   2.444   2.295   4.969  0.5099 -1.1978 -1.6047
   11CHL1    C8  754   2.607   2.161   4.964 -0.2403  0.0471 -0.4930
   11CHL1    H8  755   2.617   2.051   4.975 -1.0673  0.1354  1.7099
   11CHL1   C14  756   2.607   2.193   4.814  0.9469 -0.2065 -0.6896
   11CHL1   H14  757   2.603   2.304   4.812  1.9534 -0.1633 -2.3374
   11CHL1   C15  758   2.489   2.135   4.728 -0.4879 -0.3687 -0.4569
   11CHL1  H15A  759   2.463   2.035   4.769 -1.8221 -0.0397 -0.4546
   11CHL1  H15B  760   2.403   2.204   4.741 -0.4572 -0.5147  0.6110
   11CHL1   C16  761   2.551   2.128   4.588  0.1711 -0.0743  0.3820
   11CHL1  H16A  762   2.551   2.022   4.555 -2.8083  0.7843 -3.0602
   11CHL1  H16B  763   2.484   2.185   4.520 -0.0625 -0.7632  0.0330
   11CHL1   C17  764   2.700   2.183   4.594  0.5465 -0.6272  0.9128
   11CHL1   H17  765   2.695   2.293   4.578 -0.0556 -0.6580  0.8462
   11CHL1   C13  766   2.739   2.160   4.741  0.7938  0.8587 -0.8416
   11CHL1   C18  767   2.776   2.011   4.762  0.1199  0.2932  0.5284
   11CHL1  H18A  768   2.703   1.941   4.716  1.9288 -0.7741 -0.8525
   11CHL1  H18B  769   2.872   1.994   4.709 -0.9534  0.4144 -1.5653
   11CHL1  H18C  770   2.785   1.988   4.870  1.9290 -2.2863 -0.0696
   11CHL1   C12  771   2.841   2.250   4.810  0.3340 -0.0556  0.5469
   11CHL1  H12A  772   2.940   2.222   4.767  0.0518  1.7630 -1.4660
   11CHL1  H12B  773   2.822   2.357   4.788 -0.3393 -0.4987 -1.2121
   11CHL1   C11  774   2.853   2.233   4.967  0.4520 -0.4954  0.3909
   11CHL1  H11A  775   2.890   2.130   4.988  0.0586 -1.0170 -1.3402
   11CHL1  H11B  776   2.920   2.314   5.004 -1.7265  1.8388 -0.5335
   11CHL1    C9  777   2.720   2.244   5.035  0.1931  0.7000  0.3414
   11CHL1    H9  778   2.699   2.351   5.013  0.7789  0.6029 -0.7227
   11CHL1   C10  779   2.726   2.223   5.191 -0.3607  0.0991 -0.7008
   11CHL1   C19  780   2.796   2.082   5.212 -0.2531  0.2318 -0.3908
   11CHL1  H19A  781   2.763   2.001   5.144  0.8746 -0.6736  0.1053
   11CHL1  H19B  782   2.906   2.085   5.194  0.3622 -1.6569  2.4078
   11CHL1  H19C  783   2.777   2.056   5.319 -0.7379 -2.4926 -1.0689
   11CHL1    C1  784   2.824   2.335   5.253 -0.4502  0.1184 -0.1476
   11CHL1   H1A  785   2.930   2.305   5.239  0.0941  2.0153 -0.3752
   11CHL1   H1B  786   2.813   2.429   5.195  0.8182  1.5071  1.7533
   11CHL1    C2  787   2.806   2.359   5.401  0.1042  0.2153  0.6726
   11CHL1   H2A  788   2.868   2.445   5.435 -0.7024  1.5643 -1.1190
   11CHL1   H2B  789   2.828   2.258   5.443 -0.1225 -1.0113 -1.9655
   11CHL1   C20  790   2.783   2.123   4.486  0.7212  0.2868  0.7396
   11CHL1   H20  791   2.802   2.015   4.501  0.8105  0.2855  0.6152
   11CHL1   C21  792   2.919   2.184   4.480  0.1077  0.0161  0.1439
   11CHL1  H21A  793   2.908   2.294   4.467 -1.1296 -0.0462  0.5626
   11CHL1  H21B  794   2.961   2.149   4.383 -4.3324  1.5206 -2.6303
   11CHL1  H21C  795   2.983   2.155   4.566  0.1475 -0.7458 -0.1387
   11CHL1   C22  796   2.715   2.133   4.343 -0.1975 -0.1192  0.2908
   11CHL1  H22A  797   2.605   2.147   4.340 -0.2800 -0.6245  0.8930
   11CHL1  H22B  798   2.754   2.229   4.303 -1.8873  1.5998  2.5142
   11CHL1   C23  799   2.751   2.021   4.245  0.1438 -0.0278 -0.3302
   11CHL1  H23A  800   2.861   2.011   4.239  0.4647  0.7566  2.6813
   11CHL1  H23B  801   2.712   1.925   4.283 -1.2381 -0.0537 -1.7193
   11CHL1   C24  802   2.697   2.055   4.102 -0.0470  0.7287 -1.0722
   11CHL1  H24A  803   2.738   2.145   4.052  0.3374  0.8982 -0.4664
   11CHL1  H24B  804   2.723   1.962   4.048  0.3964 -1.1801  2.1289
   11CHL1   C25  805   2.550   2.063   4.085 -0.5759 -0.2770  0.4226
   11CHL1   H25  806   2.519   2.145   4.152  1.2709 -0.4341  1.5193
   11CHL1   C26  807   2.501   2.095   3.942 -0.0187  0.1389  0.1634
   11CHL1  H26A  808   2.516   2.201   3.911 -0.0313  0.1623  0.2386
   11CHL1  H26B  809   2.536   2.020   3.868 -3.1065 -1.3592  0.0476
   11CHL1  H26C  810   2.394   2.070   3.926  0.1929 -2.4074  2.1125
   11CHL1   C27  811   2.475   1.939   4.135  0.2056  0.3202 -1.1936
   11CHL1  H27A  812   2.366   1.957   4.137  0.3432  1.1980  0.8947
   11CHL1  H27B  813   2.510   1.847   4.082 -2.8145  0.7909 -4.3336
   11CHL1  H27C  814   2.520   1.923   4.235  2.3508 -2.1963 -2.4221
   12CHL1    C3  815   4.559   1.433   5.652  0.0415 -0.4656  0.1728
   12CHL1    H3  816   4.652   1.388   5.692  0.7709 -0.1946 -1.1583
   12CHL1    O3  817   4.466   1.421   5.756 -0.5001  0.3661  0.2981
   12CHL1   H3'  818   4.391   1.377   5.715 -1.6636  1.6561  0.9783
   12CHL1    C4  819   4.591   1.581   5.617 -0.1439 -0.2917  0.2803
   12CHL1   H4A  820   4.499   1.631   5.581 -1.0327  0.4674  3.2676
   12CHL1   H4B  821   4.628   1.638   5.705  3.4608 -1.2505 -0.4440
   12CHL1    C5  822   4.690   1.579   5.502  0.0665  0.6185  0.3792
   12CHL1    C6  823   4.811   1.638   5.514 -0.2072 -0.2489  0.5166
   12CHL1    H6  824   4.832   1.687   5.611  0.7454  2.4554 -0.9472
   12CHL1    C7  825   4.906   1.654   5.396  0.4975 -0.1156  0.1661
   12CHL1   H7A  826   4.947   1.757   5.393  2.2671 -0.8027 -1.1094
   12CHL1   H7B  827   4.993   1.589   5.418 -0.4070 -0.8266  1.7998
   12CHL1    C8  828   4.836   1.637   5.263 -0.7776 -0.3035 -0.0298
   12CHL1    H8  829   4.772   1.726   5.244  0.5385  0.8865  0.9140
   12CHL1   C14  830   4.938   1.613   5.145  0.5260 -0.5586  0.0461
   12CHL1   H14  831   4.988   1.515   5.165  1.5308 -0.4271 -1.6619
   12CHL1   C15  832   5.055   1.705   5.139  0.9477 -0.4258 -0.3706
   12CHL1  H15A  833   5.039   1.814   5.154  2.0573 -0.4038  0.9335
   12CHL1  H15B  834   5.134   1.679   5.213  0.5804  2.7901  1.3336
   12CHL1   C16  835   5.114   1.680   5.001 -1.0604 -0.4355 -0.5893
   12CHL1  H16A  836   5.112   1.775   4.943  1.5253 -0.1214 -0.2827
   12CHL1  H16B  837   5.219   1.646   5.014 -0.5630  1.1251 -0.2802
   12CHL1   C17  838   5.015   1.581   4.927 -0.5586  0.2981  0.2986
   12CHL1   H17  839   5.052   1.477   4.941 -1.4326 -0.3115 -1.5670
   12CHL1   C13  840   4.884   1.596   5.001 -0.1483 -0.7331  0.5355
   12CHL1   C18  841   4.809   1.728   4.959  0.1275 -0.6039  0.2540
   12CHL1  H18A  842   4.729   1.760   5.029 -0.4373 -1.2550 -0.0846
   12CHL1  H18B  843   4.873   1.817   4.943 -0.2347 -0.3190  0.3810
   12CHL1  H18C  844   4.755   1.716   4.863 -2.7099  0.3788  1.6224
   12CHL1   C12  845   4.799   1.464   5.005 -0.1653  0.0809 -0.5134
   12CHL1  H12A  846   4.744   1.437   4.912 -0.2679  0.5895 -0.6036
   12CHL1  H12B  847   4.859   1.374   5.027  0.6497  0.1247 -2.3978
   12CHL1   C11  848   4.689   1.480   5.119 -0.0690 -0.1189  0.2454
   12CHL1  H11A  849   4.633   1.569   5.082 -1.0386 -0.0760  1.7526
   12CHL1  H11B  850   4.626   1.389   5.124 -1.2636  0.5838 -1.2283
   12CHL1    C9  851   4.750   1.507   5.263 -0.4798 -0.1465  0.2865
   12CHL1    H9  852   4.811   1.420   5.294 -0.2511 -1.1470 -2.6053
   12CHL1   C10  853   4.639   1.513   5.372  0.6569  0.4557  0.6068
   12CHL1   C19  854   4.516   1.582   5.314  0.1812 -0.1522  0.0594
   12CHL1  H19A  855   4.542   1.682   5.273 -2.0048  0.7391  0.6862
   12CHL1  H19B  856   4.467   1.520   5.236 -1.0391 -0.6986  1.2253
   12CHL1  H19C  857   4.432   1.603   5.383 -0.5671  0.8989 -1.1358
   12CHL1    C1  858   4.606   1.364   5.412  0.2011 -0.3352 -0.2569
   12CHL1   H1A  859   4.557   1.308   5.330 -1.6016  0.3580  0.2760
   12CHL1   H1B  860   4.703   1.318   5.439  0.3451 -0.0044 -0.1961
   12CHL1    C2  861   4.505   1.353   5.529 -0.0972  0.3117 -0.2247
   12CHL1   H2A  862   4.500   1.247   5.561 -0.5263 -0.2747 -2.0746
   12CHL1   H2B  863   4.401   1.379   5.499  0.0248 -1.7994 -2.9620
   12CHL1   C20  864   5.012   1.606   4.773  0.0340  0.7252  0.5201
   12CHL1   H20  865   4.975   1.709   4.753 -3.3636 -0.2797  0.9976
   12CHL1   C21  866   4.924   1.503   4.697 -0.2421 -0.0903 -0.7691
   12CHL1  H21A  867   4.954   1.510   4.590 -1.0581 -0.9529 -1.0627
   12CHL1  H21B  868   4.817   1.533   4.699 -0.7597 -1.8513  0.1811
   12CHL1  H21C  869   4.932   1.399   4.733  0.8308  0.4000  0.5227
   12CHL1   C22  870   5.155   1.607   4.728 -0.1399  0.2892 -0.0147
   12CHL1  H22A  871   5.199   1.701   4.767 -0.3334 -0.4467  2.0985
   12CHL1  H22B  872   5.215   1.522   4.767  0.1012  1.4639  2.3024
   12CHL1   C23  873   5.189   1.613   4.577  0.1795 -0.3673 -0.3264
   12CHL1  H23A  874   5.166   1.516   4.527  1.0310  0.5292 -2.5828
   12CHL1  H23B  875   5.154   1.705   4.526  1.6747  1.1142  1.2018
   12CHL1   C24  876   5.341   1.617   4.555 -0.2659  0.1195 -0.7190
   12CHL1  H24A  877   5.397   1.684   4.623  2.0895 -0.7471 -1.6922
   12CHL1  H24B  878   5.374   1.513   4.576 -1.0106  0.4019  2.3244
   12CHL1   C25  879   5.402   1.641   4.408  0.1002  0.2064  0.0521
   12CHL1   H25  880   5.366   1.742   4.378 -3.9970 -1.0968 -0.0104
   12CHL1   C26  881   5.554   1.646   4.401 -0.3004 -0.6225  0.1721
   12CHL1  H26A  882   5.595   1.681   4.303 -1.7569  0.8302  0.0400
   12CHL1  H26B  883   5.588   1.733   4.462 -1.1712 -0.5048  0.5098
   12CHL1  H26C  884   5.591   1.549   4.439  2.4328  0.3107  0.1175
   12CHL1   C27  885   5.348   1.541   4.311 -0.3309  0.2654 -0.3391
   12CHL1  H27A  886   5.351   1.589   4.211 -0.0954 -0.6353 -0.7811
   12CHL1  H27B  887   5.411   1.450   4.319 -0.6112  0.1244  0.2977
   12CHL1  H27C  888   5.244   1.512   4.337  0.3001 -0.4275  1.5602
   13CHL1    C3  889   3.871   0.810   5.924 -1.5840 -0.1341  0.2690
   13CHL1    H3  890   3.977   0.826   5.894 -1.2905 -1.4425  0.5654
   13CHL1    O3  891   3.868   0.772   6.054 -0.5142 -0.0453 -0.1255
   13CHL1   H3'  892   3.917   0.690   6.064 -0.4731 -0.1027 -0.8047
   13CHL1    C4  893   3.801   0.942   5.912  0.6699 -0.3296  0.3551
   13CHL1   H4A  894   3.702   0.948   5.962  0.9229  0.3736  0.7917
   13CHL1   H4B  895   3.871   1.012   5.964  0.6050 -0.4488  0.6029
   13CHL1    C5  896   3.780   0.982   5.763 -0.1619 -0.6987  0.0761
   13CHL1    C6  897   3.810   1.106   5.714 -0.1467  0.1488  0.4456
   13CHL1    H6  898   3.851   1.185   5.778  0.0410  0.4942 -0.0990
   13CHL1    C7  899   3.777   1.144   5.568  0.3762  0.0528 -0.5164
   13CHL1   H7A  900   3.727   1.243   5.572  0.2503 -0.0073 -0.5957
   13CHL1   H7B  901   3.876   1.161   5.522 -0.3092 -0.9482 -2.4739
   13CHL1    C8  902   3.697   1.036   5.488  0.3119 -1.0269  0.0108
   13CHL1    H8  903   3.589   1.044   5.511 -0.7430 -3.7991 -3.1987
   13CHL1   C14  904   3.723   1.064   5.342 -0.3644  0.4774  0.0997
   13CHL1   H14  905   3.826   1.035   5.311 -0.5344 -1.2657  1.0015
   13CHL1   C15  906   3.703   1.210   5.293  0.1566  0.5144 -0.4510
   13CHL1  H15A  907   3.607   1.259   5.320  0.8276  1.1671  0.8091
   13CHL1  H15B  908   3.793   1.266   5.325 -1.1652  1.3445  2.0444
   13CHL1   C16  909   3.701   1.194   5.140 -0.0888  0.1745 -0.0582
   13CHL1  H16A  910   3.604   1.236   5.105 -1.2038  0.0176  2.6240
   13CHL1  H16B  911   3.788   1.222   5.078 -1.3600  1.8027 -1.1886
   13CHL1   C17  912   3.684   1.035   5.119  0.6511  0.1848  0.3098
   13CHL1   H17  913   3.785   0.990   5.107  0.1235 -0.4232 -2.5102
   13CHL1   C13  914   3.640   0.975   5.251  0.3437  0.9955  0.2468
   13CHL1   C18  915   3.485   0.980   5.266  0.1093 -0.2175  0.0146
   13CHL1  H18A  916   3.455   0.960   5.371 -2.7560 -1.3950 -0.9182
   13CHL1  H18B  917   3.455   1.083   5.239  2.2907  0.6315  0.6673
   13CHL1  H18C  918   3.427   0.906   5.207 -0.0155 -1.3004  1.4277
   13CHL1   C12  919   3.687   0.831   5.281  0.0093  0.3767  0.5107
   13CHL1  H12A  920   3.632   0.764   5.212  0.5629 -0.7816  1.1567
   13CHL1  H12B  921   3.798   0.826   5.267  0.1431  3.8001 -0.5676
   13CHL1   C11  922   3.664   0.787   5.426 -0.1392 -0.2409 -0.0319
   13CHL1  H11A  923   3.555   0.785   5.447 -0.1509  1.0770  0.1255
   13CHL1  H11B  924   3.709   0.686   5.433  0.8597  0.1419 -0.6756
   13CHL1    C9  925   3.730   0.896   5.522  0.7956  0.8660  0.1480
   13CHL1    H9  926   3.839   0.898   5.499  0.2399 -2.4406 -4.2685
   13CHL1   C10  927   3.722   0.864   5.677 -0.5379 -0.2373  0.4126
   13CHL1   C19  928   3.576   0.853   5.712  0.0957  0.5716  0.2049
   13CHL1  H19A  929   3.561   0.809   5.814  0.5644 -1.4571 -0.5484
   13CHL1  H19B  930   3.504   0.935   5.689 -0.1148  0.5584  0.7977
   13CHL1  H19C  931   3.532   0.768   5.655  1.5296 -0.0639  0.0135
   13CHL1    C1  932   3.805   0.734   5.698  0.2487 -0.4754 -0.1900
   13CHL1   H1A  933   3.758   0.649   5.644 -1.8511  0.5350 -0.0659
   13CHL1   H1B  934   3.902   0.769   5.656 -0.6745  0.8657 -1.3174
   13CHL1    C2  935   3.824   0.692   5.844  0.1443 -0.1437  0.0249
   13CHL1   H2A  936   3.872   0.593   5.857  2.2072  1.0721  2.2692
   13CHL1   H2B  937   3.720   0.676   5.880  0.0886  1.7155  0.8062
   13CHL1   C20  938   3.608   0.999   4.988 -0.0651 -0.2034  0.1028
   13CHL1   H20  939   3.502   1.027   5.004 -0.1446 -0.6632  0.4173
   13CHL1   C21  940   3.604   0.839   4.961 -0.1685 -0.2440  0.0763
   13CHL1  H21A  941   3.705   0.791   4.964  0.3644  0.6588 -1.8606
   13CHL1  H21B  942   3.574   0.832   4.854 -0.0469 -0.7096  0.0715
   13CHL1  H21C  943   3.536   0.782   5.027  0.3308 -0.2447  0.6011
   13CHL1   C22  944   3.655   1.066   4.856  0.1665  0.7542  0.8947
   13CHL1  H22A  945   3.594   1.039   4.767  3.2613 -0.8382 -0.9048
   13CHL1  H22B  946   3.642   1.173   4.881 -1.0633  0.3759  2.0132
   13CHL1   C23  947   3.807   1.051   4.819  0.0500  0.4314  0.3203
   13CHL1  H23A  948   3.862   1.046   4.915 -0.0226 -3.0684  0.2839
   13CHL1  H23B  949   3.831   0.952   4.775  3.1032 -0.0025  2.6926
   13CHL1   C24  950   3.858   1.161   4.724 -0.7240 -0.1811  0.2525
   13CHL1  H24A  951   3.832   1.256   4.776 -1.1697 -0.9634  1.5189
   13CHL1  H24B  952   3.967   1.144   4.712 -0.6694  0.2346  0.1592
   13CHL1   C25  953   3.797   1.157   4.577  0.2851 -0.4464 -0.3201
   13CHL1   H25  954   3.688   1.169   4.592  0.3892  1.7915 -0.9949
   13CHL1   C26  955   3.848   1.277   4.497  0.1271 -0.3122 -0.6593
   13CHL1  H26A  956   3.808   1.376   4.528 -0.0328 -0.0241 -1.7655
   13CHL1  H26B  957   3.958   1.270   4.506 -0.1047 -1.5878  2.6188
   13CHL1  H26C  958   3.806   1.269   4.395 -2.0933 -0.8851  0.2273
   13CHL1   C27  959   3.831   1.028   4.500 -0.4207  0.2054  0.3809
   13CHL1  H27A  960   3.939   1.028   4.474 -0.2998  0.7058  0.8704
   13CHL1  H27B  961   3.810   0.944   4.569  1.9165  0.5550  1.6433
   13CHL1  H27C  962   3.767   1.017   4.410  2.5172 -0.1979 -1.8316
   14CHL1    C3  963   2.216   6.108   6.034 -0.6995  0.0045 -0.2405
   14CHL1    H3  964   2.324   6.131   6.050 -0.4676 -0.6230 -0.8234
   14CHL1    O3  965   2.145   6.131   6.150 -0.0208 -0.1241 -0.5855
   14CHL1   H3'  966   2.055   6.145   6.121 -0.6101  0.5244  1.4298
   14CHL1    C4  967   2.180   6.194   5.911  0.2630 -0.3540 -0.3112
   14CHL1   H4A  968   2.071   6.177   5.899  0.4784 -3.0463  0.7537
   14CHL1   H4B  969   2.184   6.301   5.942 -1.8357 -0.1065 -0.7528
   14CHL1    C5  970   2.252   6.162   5.786 -0.4541 -0.4520  0.3400
   14CHL1    C6  971   2.325   6.253   5.723  0.3393  0.0999  0.4531
   14CHL1    H6  972   2.322   6.354   5.765  2.0002  1.3306 -2.1623
   14CHL1    C7  973   2.406   6.238   5.594 -0.1793 -0.5523  0.0922
   14CHL1   H7A  974   2.398   6.332   5.536  0.0279  0.3316  1.4485
   14CHL1   H7B  975   2.514   6.226   5.618  0.0867 -0.3212 -0.9463
   14CHL1    C8  976   2.355   6.113   5.520 -0.2552  1.2480  0.1018
   14CHL1    H8  977   2.249   6.130   5.490 -0.2792  0.3860 -0.3529
   14CHL1   C14  978   2.441   6.078   5.404  0.4484  0.0677  0.2886
   14CHL1   H14  979   2.544   6.063   5.444  0.4313  0.5017  0.5047
   14CHL1   C15  980   2.464   6.188   5.298  0.8110  0.4518 -0.6155
   14CHL1  H15A  981   2.368   6.228   5.259  0.3265  0.1553  0.2516
   14CHL1  H15B  982   2.533   6.270   5.329  1.3471 -0.5970  1.1097
   14CHL1   C16  983   2.529   6.104   5.184  0.8526  0.4497  0.2062
   14CHL1  H16A  984   2.468   6.130   5.095 -1.5184 -0.0687  1.5977
   14CHL1  H16B  985   2.634   6.139   5.176  0.9552 -0.0771 -0.8777
   14CHL1   C17  986   2.521   5.949   5.219  0.2621 -0.6290  0.1528
   14CHL1   H17  987   2.612   5.919   5.275 -1.0078 -3.2168  0.9694
   14CHL1   C13  988   2.404   5.946   5.320 -0.2520  0.0085 -0.4684
   14CHL1   C18  989   2.266   5.960   5.251  0.0401 -0.3028  0.1962
   14CHL1  H18A  990   2.239   5.860   5.212  0.3943 -0.5812  0.6593
   14CHL1  H18B  991   2.186   6.008   5.311 -0.7177 -0.4834 -0.6408
   14CHL1  H18C  992   2.285   6.028   5.165  0.5789 -0.5132  0.1425
   14CHL1   C12  993   2.402   5.828   5.418  0.8895 -0.1943 -0.1896
   14CHL1  H12A  994   2.362   5.747   5.354  0.8065  0.0876 -0.4979
   14CHL1  H12B  995   2.508   5.808   5.444  2.2298  5.9375  0.5815
   14CHL1   C11  996   2.319   5.855   5.544 -0.4063  0.2297 -0.0763
   14CHL1  H11A  997   2.218   5.880   5.505  0.3126  0.5645 -1.8105
   14CHL1  H11B  998   2.330   5.775   5.620  2.3134 -1.7833 -2.4016
   14CHL1    C9  999   2.350   5.992   5.620  0.5902  0.0272 -1.0740
   14CHL1    H9 1000   2.450   5.964   5.660 -0.2517 -1.6206  0.0329
   14CHL1   C10 1001   2.252   6.016   5.745 -0.4554  0.0989 -0.1446
   14CHL1   C19 1002   2.108   5.989   5.706  0.7613  0.0403  0.0658
   14CHL1  H19A 1003   2.093   6.024   5.601  0.8196 -1.4714 -0.4725
   14CHL1  H19B 1004   2.087   5.880   5.700 -1.2028  0.4219 -0.6277
   14CHL1  H19C 1005   2.026   6.035   5.765  1.0997  1.9254 -0.8488
   14CHL1    C1 1006   2.294   5.932   5.874 -0.2094 -0.3529 -0.6351
   14CHL1   H1A 1007   2.285   5.829   5.834  1.6516  0.3753 -3.2106
   14CHL1   H1B 1008   2.403   5.947   5.891 -0.2922  1.0410 -1.2034
   14CHL1    C2 1009   2.211   5.961   6.001 -1.0697  0.6956  0.7711
   14CHL1   H2A 1010   2.242   5.908   6.093 -0.8757 -0.4066  0.0821
   14CHL1   H2B 1011   2.104   5.943   5.979 -0.3217 -1.0571 -1.9879
   14CHL1   C20 1012   2.520   5.865   5.088 -0.0704  0.4101  0.3932
   14CHL1   H20 1013   2.413   5.865   5.060 -0.6059  3.1010  2.1048
   14CHL1   C21 1014   2.577   5.719   5.113 -0.5358  0.0021  0.3139
   14CHL1  H21A 1015   2.687   5.721   5.092 -0.8848 -0.6785 -1.8971
   14CHL1  H21B 1016   2.526   5.647   5.046  0.4921 -0.6161  0.1681
   14CHL1  H21C 1017   2.541   5.684   5.212 -1.4944 -0.6797 -0.2615
   14CHL1   C22 1018   2.601   5.921   4.970  0.1857 -0.5208 -0.8233
   14CHL1  H22A 1019   2.572   6.025   4.943  0.6820 -0.1869 -0.0937
   14CHL1  H22B 1020   2.709   5.924   4.997  0.4042  0.4634 -1.7494
   14CHL1   C23 1021   2.601   5.845   4.830  0.0172 -0.2476 -0.3879
   14CHL1  H23A 1022   2.603   5.736   4.852  1.1504  0.0074  0.8878
   14CHL1  H23B 1023   2.506   5.873   4.779 -0.6826  1.5420  1.7198
   14CHL1   C24 1024   2.724   5.881   4.743  0.4281  0.1925  0.0991
   14CHL1  H24A 1025   2.701   5.979   4.696  0.3350  0.5296  0.8320
   14CHL1  H24B 1026   2.820   5.881   4.799  0.0569 -0.7888  0.7545
   14CHL1   C25 1027   2.738   5.778   4.628 -0.1388 -0.6356 -0.2620
   14CHL1   H25 1028   2.633   5.755   4.600 -0.3662 -0.2967  0.3122
   14CHL1   C26 1029   2.823   5.838   4.516  0.8181  0.3257 -0.4843
   14CHL1  H26A 1030   2.852   5.768   4.434 -1.6715 -2.2832  0.6829
   14CHL1  H26B 1031   2.758   5.912   4.464 -0.5144  0.3298  1.1252
   14CHL1  H26C 1032   2.899   5.905   4.560  0.5245 -0.4638  1.2879
   14CHL1   C27 1033   2.800   5.644   4.675  0.5570 -0.5341  0.1125
   14CHL1  H27A 1034   2.848   5.589   4.590 -0.3722  0.4185 -1.0645
   14CHL1  H27B 1035   2.871   5.664   4.758 -1.3175 -1.0472  1.9020
   14CHL1  H27C 1036   2.714   5.587   4.714 -0.7871  0.9602 -0.5544
   15CHL1    C3 1037   1.104   5.474   5.679  0.2221 -0.1720 -0.1546
   15CHL1    H3 1038   1.000   5.442   5.657  0.6990 -0.3804 -2.3008
   15CHL1    O3 1039   1.095   5.546   5.801  0.2064 -0.0223 -0.1438
   15CHL1   H3' 1040   1.188   5.567   5.811  0.0956  2.3964 -2.8177
   15CHL1    C4 1041   1.207   5.356   5.679 -0.3526 -0.0533 -0.2252
   15CHL1   H4A 1042   1.302   5.406   5.706 -0.8612  0.4381  0.7448
   15CHL1   H4B 1043   1.181   5.286   5.762  0.2531 -1.5902 -1.3023
   15CHL1    C5 1044   1.217   5.282   5.550 -0.8037  0.2328  0.5053
   15CHL1    C6 1045   1.198   5.146   5.535  0.7946 -0.3826 -0.1134
   15CHL1    H6 1046   1.168   5.093   5.626 -1.9470 -0.7200 -1.1319
   15CHL1    C7 1047   1.226   5.074   5.408 -0.0325  0.7248  0.0094
   15CHL1   H7A 1048   1.289   4.983   5.413 -2.0036 -0.6661  1.5515
   15CHL1   H7B 1049   1.130   5.034   5.368  0.9273  0.3038 -1.9732
   15CHL1    C8 1050   1.283   5.159   5.293  0.3261 -0.3716  0.6779
   15CHL1    H8 1051   1.392   5.176   5.304  0.4374 -0.7483  0.2049
   15CHL1   C14 1052   1.237   5.093   5.165  0.3307 -0.4808 -0.3208
   15CHL1   H14 1053   1.128   5.072   5.166  0.6358 -2.3368  2.1148
   15CHL1   C15 1054   1.292   4.952   5.149  0.2099  0.1098  0.3956
   15CHL1  H15A 1055   1.395   4.955   5.192 -0.1695  1.7117  1.2769
   15CHL1  H15B 1056   1.229   4.878   5.202 -1.7154 -0.9766 -3.0889
   15CHL1   C16 1057   1.286   4.920   5.002  0.0020 -0.0639  0.6336
   15CHL1  H16A 1058   1.381   4.890   4.953 -1.5970  0.9777 -3.5964
   15CHL1  H16B 1059   1.212   4.838   4.985 -1.9623  1.6303  0.6082
   15CHL1   C17 1060   1.241   5.053   4.936 -0.4358 -0.3792 -0.5734
   15CHL1   H17 1061   1.131   5.043   4.939 -0.4386 -0.3623  2.4309
   15CHL1   C13 1062   1.276   5.162   5.036  0.0076 -0.1450 -0.1121
   15CHL1   C18 1063   1.434   5.184   5.020 -0.0119  0.0313 -0.1927
   15CHL1  H18A 1064   1.494   5.091   5.019  0.4040  0.1916  2.5044
   15CHL1  H18B 1065   1.464   5.234   4.925 -0.4955 -1.1683 -0.9946
   15CHL1  H18C 1066   1.475   5.241   5.107 -3.6258  1.0268  1.0537
   15CHL1   C12 1067   1.199   5.296   5.040  0.5130 -0.4777  0.0965
   15CHL1  H12A 1068   1.251   5.360   4.966 -1.5107  0.7456 -0.3556
   15CHL1  H12B 1069   1.092   5.288   5.008  0.8892  0.6698 -1.5857
   15CHL1   C11 1070   1.227   5.377   5.165 -0.6956  0.5518  0.8458
   15CHL1  H11A 1071   1.334   5.408   5.160 -1.0472  2.0566  1.8442
   15CHL1  H11B 1072   1.160   5.465   5.177 -1.2930  0.1868  0.2187
   15CHL1    C9 1073   1.209   5.293   5.296  0.1968  0.0277 -0.1558
   15CHL1    H9 1074   1.100   5.268   5.299  0.1958 -0.0313 -0.5435
   15CHL1   C10 1075   1.234   5.371   5.425  0.6827 -0.0154  0.2049
   15CHL1   C19 1076   1.374   5.432   5.426  0.0415  0.0216  0.4613
   15CHL1  H19A 1077   1.368   5.512   5.349  0.1349  0.3343  0.7753
   15CHL1  H19B 1078   1.408   5.490   5.514 -0.3165  2.7100 -1.0573
   15CHL1  H19C 1079   1.442   5.351   5.394 -0.3107  0.8061 -2.6478
   15CHL1    C1 1080   1.130   5.488   5.435  0.0068 -0.4094  0.3737
   15CHL1   H1A 1081   1.151   5.558   5.351  0.0933 -2.4836 -1.4484
   15CHL1   H1B 1082   1.035   5.432   5.422  2.3911 -4.6300 -1.1144
   15CHL1    C2 1083   1.133   5.571   5.566  0.3388  0.0081 -0.0751
   15CHL1   H2A 1084   1.059   5.654   5.557  0.3874 -0.0350 -0.9530
   15CHL1   H2B 1085   1.234   5.617   5.574 -0.1000  1.3644 -1.5286
   15CHL1   C20 1086   1.290   5.062   4.790 -0.2182 -0.5172 -0.0208
   15CHL1   H20 1087   1.400   5.045   4.788 -0.1418 -0.0229 -0.5804
   15CHL1   C21 1088   1.245   5.202   4.735 -0.3519 -0.8859 -0.5850
   15CHL1  H21A 1089   1.138   5.219   4.759 -0.0613 -1.0991  0.9749
   15CHL1  H21B 1090   1.270   5.206   4.627  1.5887 -2.8409 -0.2635
   15CHL1  H21C 1091   1.305   5.292   4.761 -0.7480  0.1439 -2.9981
   15CHL1   C22 1092   1.232   4.948   4.704  0.1691 -0.0925 -0.3880
   15CHL1  H22A 1093   1.264   4.847   4.738  0.5504 -0.4871 -1.8462
   15CHL1  H22B 1094   1.121   4.957   4.711  0.2717  0.7849  0.5045
   15CHL1   C23 1095   1.266   4.952   4.556 -0.4211  0.2469  0.4975
   15CHL1  H23A 1096   1.218   5.037   4.504  0.5401  1.2670  1.2235
   15CHL1  H23B 1097   1.376   4.959   4.546 -0.5996  1.1830 -1.1345
   15CHL1   C24 1098   1.231   4.823   4.483  0.5625  0.0297  0.1923
   15CHL1  H24A 1099   1.302   4.744   4.516  0.4394 -0.2020 -0.0879
   15CHL1  H24B 1100   1.126   4.796   4.506  0.5017  0.0303 -0.0782
   15CHL1   C25 1101   1.254   4.831   4.329  0.0514 -0.1782 -0.1880
   15CHL1   H25 1102   1.166   4.891   4.297 -0.7354 -1.1672  0.0508
   15CHL1   C26 1103   1.389   4.899   4.290 -0.0121  0.4922  0.6768
   15CHL1  H26A 1104   1.407   4.992   4.347  1.1279  0.5409  0.2568
   15CHL1  H26B 1105   1.472   4.829   4.310 -0.2776  0.2073  0.7996
   15CHL1  H26C 1106   1.380   4.921   4.182  1.0472 -0.2732  0.4246
   15CHL1   C27 1107   1.244   4.693   4.262  0.3206 -0.0074 -0.4183
   15CHL1  H27A 1108   1.338   4.634   4.276  0.4290  0.4880  1.1457
   15CHL1  H27B 1109   1.158   4.645   4.313  0.0974  0.4741 -0.3434
   15CHL1  H27C 1110   1.222   4.704   4.154 -0.3094 -0.3460 -0.3286
   16CHL1    C3 1111   0.929   2.193   5.727 -0.8471  0.0561 -0.6994
   16CHL1    H3 1112   0.989   2.100   5.727  2.6052  2.0864  0.4410
   16CHL1    O3 1113   0.854   2.212   5.845  0.2292  0.0036 -0.0724
   16CHL1   H3' 1114   0.911   2.263   5.903  1.4199 -1.8862  0.5364
   16CHL1    C4 1115   1.042   2.299   5.723  0.5816  0.2535 -0.5814
   16CHL1   H4A 1116   0.995   2.400   5.722 -1.7849 -0.7724 -0.1869
   16CHL1   H4B 1117   1.106   2.294   5.813  1.0435 -1.2144 -0.9701
   16CHL1    C5 1118   1.122   2.292   5.592 -0.4834  0.0957  0.4622
   16CHL1    C6 1119   1.256   2.281   5.599 -0.0371 -0.3512  0.9789
   16CHL1    H6 1120   1.309   2.290   5.695 -1.0948 -0.0645  1.5636
   16CHL1    C7 1121   1.340   2.267   5.472 -0.4390 -0.0402 -1.0493
   16CHL1   H7A 1122   1.433   2.328   5.469  0.4492 -1.3594 -0.9530
   16CHL1   H7B 1123   1.373   2.161   5.473  1.0164  0.3210  1.9944
   16CHL1    C8 1124   1.260   2.296   5.342  0.4889  0.4471 -0.4544
   16CHL1    H8 1125   1.244   2.406   5.348 -0.3823  0.4290 -1.9978
   16CHL1   C14 1126   1.345   2.248   5.227  0.0572  0.0516  0.8141
   16CHL1   H14 1127   1.358   2.142   5.255 -1.3104 -0.7102 -1.2299
   16CHL1   C15 1128   1.489   2.299   5.218 -0.0848  0.3732  0.6765
   16CHL1  H15A 1129   1.501   2.408   5.231  0.8447  0.2714  0.7655
   16CHL1  H15B 1130   1.548   2.253   5.299  1.2223  1.8385  0.5927
   16CHL1   C16 1131   1.531   2.259   5.074  0.1556  0.4795 -0.4309
   16CHL1  H16A 1132   1.554   2.358   5.029  0.6871  0.2926 -0.5772
   16CHL1  H16B 1133   1.622   2.196   5.069 -0.1519  0.0650 -0.8526
   16CHL1   C17 1134   1.408   2.185   5.008  0.7775 -0.0327 -0.8257
   16CHL1   H17 1135   1.426   2.081   5.044  1.3297  0.6956  1.1047
   16CHL1   C13 1136   1.286   2.246   5.086 -0.0202  0.0257 -0.1063
   16CHL1   C18 1137   1.245   2.389   5.041 -0.6508  0.4039 -0.6769
   16CHL1  H18A 1138   1.163   2.375   4.968 -1.4999  0.1252  0.3153
   16CHL1  H18B 1139   1.213   2.457   5.122 -1.9263 -0.8957 -0.0428
   16CHL1  H18C 1140   1.325   2.440   4.983  1.0681 -1.3544  0.0230
   16CHL1   C12 1141   1.153   2.162   5.101  0.4436  0.2123 -0.6376
   16CHL1  H12A 1142   1.095   2.159   5.007 -1.8074 -2.6309  0.6846
   16CHL1  H12B 1143   1.184   2.063   5.140  2.9837  1.1114 -0.1379
   16CHL1   C11 1144   1.058   2.207   5.211  0.6104  0.6461 -0.3015
   16CHL1  H11A 1145   1.022   2.306   5.176  0.1131 -0.8968 -4.8639
   16CHL1  H11B 1146   0.970   2.141   5.219  1.0111 -0.0206 -1.2515
   16CHL1    C9 1147   1.126   2.222   5.346 -0.8681  0.3062 -0.5541
   16CHL1    H9 1148   1.152   2.120   5.382  0.0287  1.2592  1.7085
   16CHL1   C10 1149   1.033   2.275   5.463  0.4998 -0.1126  0.6124
   16CHL1   C19 1150   0.967   2.405   5.430  0.5073  0.1598  0.2180
   16CHL1  H19A 1151   0.907   2.450   5.512 -3.0219 -0.6541 -1.7246
   16CHL1  H19B 1152   1.047   2.479   5.406  0.0153  0.2353 -1.2768
   16CHL1  H19C 1153   0.900   2.396   5.342  1.3513 -0.9376 -0.3339
   16CHL1    C1 1154   0.918   2.172   5.482  0.5880 -0.1474  0.2669
   16CHL1   H1A 1155   0.851   2.190   5.396 -0.0308 -0.3619  0.6993
   16CHL1   H1B 1156   0.950   2.066   5.473 -1.9281 -0.8920 -0.4622
   16CHL1    C2 1157   0.836   2.183   5.607 -0.1422  0.1031  0.3017
   16CHL1   H2A 1158   0.776   2.089   5.609 -1.7696  1.1248  1.1733
   16CHL1   H2B 1159   0.775   2.276   5.607 -0.5173 -0.1373  0.0966
   16CHL1   C20 1160   1.399   2.193   4.855  0.6646  0.0986  0.4497
   16CHL1   H20 1161   1.328   2.276   4.836 -0.4210 -1.4672 -3.1792
   16CHL1   C21 1162   1.328   2.068   4.799  0.2242  0.0144  0.8270
   16CHL1  H21A 1163   1.307   2.083   4.691  1.4881  2.3409  0.8297
   16CHL1  H21B 1164   1.236   2.043   4.857  0.1706 -1.1474  0.2634
   16CHL1  H21C 1165   1.390   1.977   4.808  0.3206  0.2179  2.7278
   16CHL1   C22 1166   1.536   2.226   4.784  0.7056 -0.7887 -0.3722
   16CHL1  H22A 1167   1.569   2.331   4.800 -0.8943 -0.4653  1.2951
   16CHL1  H22B 1168   1.615   2.160   4.824 -1.3932 -1.7750  2.5434
   16CHL1   C23 1169   1.537   2.214   4.626  0.2705 -0.2021 -0.3081
   16CHL1  H23A 1170   1.646   2.195   4.610  0.5651 -0.8787  2.0316
   16CHL1  H23B 1171   1.481   2.123   4.599  0.3084 -0.3427  0.0749
   16CHL1   C24 1172   1.488   2.336   4.546  0.0784 -0.4301 -0.2866
   16CHL1  H24A 1173   1.385   2.357   4.583 -0.6776  0.2176 -2.5796
   16CHL1  H24B 1174   1.535   2.433   4.573 -0.7466  0.2064 -1.0721
   16CHL1   C25 1175   1.490   2.313   4.390 -0.4760  0.4660  0.4470
   16CHL1   H25 1176   1.486   2.203   4.379  0.3861  0.1666  2.6576
   16CHL1   C26 1177   1.377   2.385   4.323  0.5373  0.5369  0.4542
   16CHL1  H26A 1178   1.283   2.357   4.375  0.4844  1.3387  0.7940
   16CHL1  H26B 1179   1.385   2.495   4.330  0.3399  0.4792  1.9645
   16CHL1  H26C 1180   1.378   2.344   4.219 -2.0402 -0.8685  0.9047
   16CHL1   C27 1181   1.623   2.360   4.326 -0.0240 -0.7973 -0.6358
   16CHL1  H27A 1182   1.705   2.294   4.358  0.1904  0.1872  0.9251
   16CHL1  H27B 1183   1.618   2.367   4.215 -0.2057 -3.8152 -0.9029
   16CHL1  H27C 1184   1.653   2.460   4.365 -0.3492 -0.6119 -0.8462
   17CHL1    C3 1185   1.721   5.862   5.530  0.3231  0.1824 -0.3408
   17CHL1    H3 1186   1.654   5.949   5.513  0.1181  0.2284  0.6428
   17CHL1    O3 1187   1.742   5.844   5.673 -0.5027 -0.2863  0.0049
   17CHL1   H3' 1188   1.675   5.781   5.702 -0.8003 -1.3413 -2.6225
   17CHL1    C4 1189   1.646   5.740   5.471  0.3648 -0.4827  0.7285
   17CHL1   H4A 1190   1.697   5.643   5.490  2.7592  0.1495 -1.8159
   17CHL1   H4B 1191   1.545   5.738   5.519  0.3732 -0.0005  0.7716
   17CHL1    C5 1192   1.634   5.761   5.320  0.4302  0.4837 -0.0559
   17CHL1    C6 1193   1.518   5.755   5.257  0.9194  0.3329  0.3069
   17CHL1    H6 1194   1.424   5.755   5.314  0.0824 -2.7502 -0.8573
   17CHL1    C7 1195   1.498   5.758   5.112 -0.4159 -0.8115  0.0179
   17CHL1   H7A 1196   1.406   5.706   5.079 -2.6123  2.5949  0.2507
   17CHL1   H7B 1197   1.498   5.868   5.095 -1.8288 -0.5401  1.5130
   17CHL1    C8 1198   1.627   5.709   5.039  0.9494 -0.0748 -0.6655
   17CHL1    H8 1199   1.632   5.599   5.052  1.6038 -0.0074 -0.3377
   17CHL1   C14 1200   1.610   5.731   4.891 -0.0411  0.2685  0.6282
   17CHL1   H14 1201   1.589   5.840   4.881 -3.3763 -0.1822  1.3649
   17CHL1   C15 1202   1.477   5.680   4.819 -0.1951  0.0235 -0.1238
   17CHL1  H15A 1203   1.450   5.583   4.866  0.1558 -0.1975 -0.3753
   17CHL1  H15B 1204   1.406   5.765   4.821 -0.8218 -0.5033  1.0014
   17CHL1   C16 1205   1.521   5.669   4.672 -0.5874 -0.5803  0.1630
   17CHL1  H16A 1206   1.528   5.559   4.657 -1.5111 -0.7812  1.1280
   17CHL1  H16B 1207   1.446   5.708   4.598  1.1347  0.9682 -0.8594
   17CHL1   C17 1208   1.667   5.732   4.670 -0.5010 -0.4018 -0.0400
   17CHL1   H17 1209   1.651   5.842   4.677  0.7061 -0.2965  2.2293
   17CHL1   C13 1210   1.729   5.693   4.804  0.1002  0.0845 -0.1316
   17CHL1   C18 1211   1.758   5.540   4.818  0.8494  0.7052 -0.5666
   17CHL1  H18A 1212   1.670   5.484   4.778 -0.7107  2.1790  0.6005
   17CHL1  H18B 1213   1.847   5.506   4.761  0.1804 -1.3935 -0.4392
   17CHL1  H18C 1214   1.762   5.509   4.925  0.0516 -0.0030 -0.7231
   17CHL1   C12 1215   1.846   5.780   4.857  0.2988  0.1324  1.0432
   17CHL1  H12A 1216   1.934   5.753   4.794 -1.0755 -1.0059 -0.4786
   17CHL1  H12B 1217   1.823   5.888   4.846 -2.2523 -0.5178 -0.8600
   17CHL1   C11 1218   1.877   5.751   5.003  0.0271  0.1565 -0.3914
   17CHL1  H11A 1219   1.912   5.646   5.001 -0.3859  0.0305 -1.3168
   17CHL1  H11B 1220   1.962   5.817   5.030 -0.2534  0.9886 -1.4622
   17CHL1    C9 1221   1.749   5.781   5.090  0.4582  0.9599  0.4310
   17CHL1    H9 1222   1.723   5.887   5.069  0.1586  0.7659 -0.2001
   17CHL1   C10 1223   1.767   5.764   5.245 -0.2578 -0.3987 -0.2274
   17CHL1   C19 1224   1.843   5.628   5.264 -0.3725 -0.2127  0.0506
   17CHL1  H19A 1225   1.944   5.643   5.220 -0.9771  2.1296 -0.7159
   17CHL1  H19B 1226   1.861   5.607   5.371  0.1891  2.0730  0.4675
   17CHL1  H19C 1227   1.811   5.536   5.210  0.6201  0.6510 -2.1824
   17CHL1    C1 1228   1.837   5.889   5.304  0.7515 -0.1073  0.4924
   17CHL1   H1A 1229   1.937   5.888   5.256  0.3671  2.1623 -0.4920
   17CHL1   H1B 1230   1.782   5.984   5.287  0.6576 -0.4802 -1.5473
   17CHL1    C2 1231   1.850   5.886   5.459  0.0427 -0.2981 -0.0447
   17CHL1   H2A 1232   1.871   5.992   5.486 -0.4876  0.0722 -1.0587
   17CHL1   H2B 1233   1.941   5.830   5.488  0.3473  0.7828  1.2096
   17CHL1   C20 1234   1.742   5.711   4.537  0.0659  0.7603  0.1566
   17CHL1   H20 1235   1.678   5.766   4.465  0.0560  1.0581  0.3899
   17CHL1   C21 1236   1.759   5.573   4.487  0.2002  0.5639  0.2338
   17CHL1  H21A 1237   1.666   5.514   4.499 -0.6869  2.4177  3.8009
   17CHL1  H21B 1238   1.834   5.520   4.550  2.3824  2.2227 -0.8412
   17CHL1  H21C 1239   1.783   5.568   4.379  0.6318  2.2122  0.2218
   17CHL1   C22 1240   1.874   5.795   4.534  0.7453 -0.1215 -0.2044
   17CHL1  H22A 1241   1.843   5.899   4.556 -0.5950 -0.5256 -0.0736
   17CHL1  H22B 1242   1.942   5.762   4.615 -3.0079 -1.4600  2.6716
   17CHL1   C23 1243   1.951   5.795   4.404  0.6387  0.5462 -0.1634
   17CHL1  H23A 1244   2.053   5.833   4.429  0.4952  1.1345 -0.4746
   17CHL1  H23B 1245   1.968   5.693   4.363  0.3089  0.6877 -0.6537
   17CHL1   C24 1246   1.877   5.879   4.303  0.4540 -0.3168 -0.0962
   17CHL1  H24A 1247   1.771   5.846   4.296  0.9545 -1.7097 -1.5536
   17CHL1  H24B 1248   1.870   5.985   4.335 -0.7713 -0.1535 -0.8253
   17CHL1   C25 1249   1.946   5.874   4.160  0.2109  0.5168 -0.4034
   17CHL1   H25 1250   1.960   5.766   4.135  0.9431  0.9033 -1.7494
   17CHL1   C26 1251   1.848   5.930   4.060 -0.6573 -0.2616  0.3318
   17CHL1  H26A 1252   1.772   5.852   4.036  1.4092 -1.8055 -1.6174
   17CHL1  H26B 1253   1.790   6.010   4.110  0.4064  1.4553 -1.0857
   17CHL1  H26C 1254   1.894   5.966   3.966  1.6102  0.6467  1.6995
   17CHL1   C27 1255   2.083   5.932   4.148 -1.0084 -0.0289  0.5266
   17CHL1  H27A 1256   2.145   5.863   4.209 -1.1014 -0.1836  0.4450
   17CHL1  H27B 1257   2.108   5.923   4.040  0.6277 -0.8921  0.9499
   17CHL1  H27C 1258   2.086   6.036   4.188  2.5325  0.2335 -0.1546
   18CHL1    C3 1259   4.200   0.510   5.729 -0.3194  0.2656  0.2929
   18CHL1    H3 1260   4.134   0.589   5.770 -1.5176  0.0480 -1.1426
   18CHL1    O3 1261   4.306   0.481   5.819 -0.1146  0.0455  0.1451
   18CHL1   H3' 1262   4.371   0.530   5.769 -1.0203  0.3140 -0.8095
   18CHL1    C4 1263   4.107   0.391   5.715 -0.1634 -0.4869  0.0527
   18CHL1   H4A 1264   4.164   0.297   5.702 -0.5624 -0.9276  1.3190
   18CHL1   H4B 1265   4.051   0.389   5.811 -2.3320  2.7973 -0.9776
   18CHL1    C5 1266   4.008   0.411   5.597  0.4525  0.0566  0.3769
   18CHL1    C6 1267   3.873   0.394   5.609 -0.3564 -0.1951  0.0887
   18CHL1    H6 1268   3.831   0.362   5.706  0.9722 -1.8953  0.1444
   18CHL1    C7 1269   3.779   0.382   5.493 -1.2097 -0.2038  0.3642
   18CHL1   H7A 1270   3.709   0.298   5.514 -2.6051  1.0420  0.8577
   18CHL1   H7B 1271   3.706   0.465   5.497 -1.0945 -0.0901  0.1399
   18CHL1    C8 1272   3.850   0.369   5.351 -0.5469  0.3421 -0.1623
   18CHL1    H8 1273   3.887   0.265   5.336  1.9502  1.2183 -0.5506
   18CHL1   C14 1274   3.750   0.400   5.246  0.4806  0.8629 -0.1210
   18CHL1   H14 1275   3.709   0.500   5.268 -0.7881  0.4603 -0.6067
   18CHL1   C15 1276   3.626   0.307   5.239  0.1605  0.2826 -0.5866
   18CHL1  H15A 1277   3.662   0.202   5.236 -1.8425 -0.6059  2.4274
   18CHL1  H15B 1278   3.563   0.321   5.329  0.1411  1.9594 -0.8277
   18CHL1   C16 1279   3.569   0.346   5.098 -0.0589  0.0793  0.3239
   18CHL1  H16A 1280   3.552   0.247   5.052  0.4338  0.6631 -1.1870
   18CHL1  H16B 1281   3.477   0.408   5.096 -0.3925 -0.3208  2.1703
   18CHL1   C17 1282   3.675   0.427   5.020  0.3101 -0.0562  0.7971
   18CHL1   H17 1283   3.645   0.534   5.030 -1.5582 -0.4315 -0.2888
   18CHL1   C13 1284   3.804   0.404   5.101  0.0183 -0.0556  0.6207
   18CHL1   C18 1285   3.864   0.271   5.064 -0.4834  0.7384 -0.3342
   18CHL1  H18A 1286   3.943   0.234   5.133  0.2055  0.5441 -1.2049
   18CHL1  H18B 1287   3.791   0.187   5.060  0.1903  0.1566 -0.5130
   18CHL1  H18C 1288   3.902   0.274   4.960 -2.0888 -2.8775 -1.1589
   18CHL1   C12 1289   3.912   0.514   5.101  0.2902 -0.3099  0.1396
   18CHL1  H12A 1290   3.965   0.523   5.004  1.8187  2.1321  1.1099
   18CHL1  H12B 1291   3.854   0.606   5.125 -0.2005 -0.7468  0.6611
   18CHL1   C11 1292   4.025   0.487   5.206 -0.2333  0.5018 -0.1884
   18CHL1  H11A 1293   4.074   0.394   5.170  0.7449  0.6550  0.6975
   18CHL1  H11B 1294   4.104   0.565   5.204 -0.6354  0.8913 -1.3181
   18CHL1    C9 1295   3.968   0.471   5.351  0.5821 -0.2832 -0.0034
   18CHL1    H9 1296   3.911   0.565   5.367 -1.8108 -1.9434  2.0467
   18CHL1   C10 1297   4.078   0.453   5.461  0.0048  0.0991  0.3799
   18CHL1   C19 1298   4.173   0.341   5.423  0.4805  0.3534 -0.5927
   18CHL1  H19A 1299   4.221   0.364   5.326 -0.6323  0.1336 -1.2154
   18CHL1  H19B 1300   4.251   0.319   5.499  1.6532 -2.4453 -2.4304
   18CHL1  H19C 1301   4.117   0.246   5.414 -0.4495  0.7490  0.7343
   18CHL1    C1 1302   4.147   0.590   5.495 -0.2972 -0.5098  0.6355
   18CHL1   H1A 1303   4.198   0.628   5.405 -0.7062  0.4957  0.8138
   18CHL1   H1B 1304   4.074   0.667   5.528  1.6951  1.6630  0.1826
   18CHL1    C2 1305   4.256   0.577   5.601 -0.1267 -0.2762  0.2074
   18CHL1   H2A 1306   4.290   0.682   5.615  0.1749 -0.0117 -2.0432
   18CHL1   H2B 1307   4.339   0.508   5.574  0.5088  0.2315  0.8288
   18CHL1   C20 1308   3.685   0.399   4.863  0.9656 -0.2181  0.0135
   18CHL1   H20 1309   3.738   0.302   4.855  0.1103 -0.8142  1.1800
   18CHL1   C21 1310   3.737   0.514   4.777  0.1369  0.4253 -0.4792
   18CHL1  H21A 1311   3.661   0.594   4.767 -0.6806 -0.0929  1.2882
   18CHL1  H21B 1312   3.770   0.471   4.680  0.2885 -0.8204  0.1093
   18CHL1  H21C 1313   3.829   0.566   4.811  0.4760  1.1280 -2.3409
   18CHL1   C22 1314   3.540   0.366   4.801 -0.3326  0.5272 -0.0270
   18CHL1  H22A 1315   3.480   0.305   4.872  0.4774  0.8831  0.9917
   18CHL1  H22B 1316   3.485   0.463   4.789  0.5024  1.2582  1.6886
   18CHL1   C23 1317   3.540   0.301   4.665  0.3500 -0.2810 -0.1580
   18CHL1  H23A 1318   3.544   0.381   4.588 -3.0690 -0.9175 -1.1811
   18CHL1  H23B 1319   3.619   0.224   4.652  0.4576  0.0602 -1.7397
   18CHL1   C24 1320   3.416   0.210   4.650  0.0324 -0.2148  0.7426
   18CHL1  H24A 1321   3.415   0.127   4.723 -0.4704 -0.2215  0.7320
   18CHL1  H24B 1322   3.325   0.269   4.673  0.9484  1.9085 -0.6956
   18CHL1   C25 1323   3.386   0.151   4.506  0.1812 -0.1032  0.8706
   18CHL1   H25 1324   3.342   0.238   4.451 -0.1436 -1.5406 -1.2695
   18CHL1   C26 1325   3.511   0.111   4.433  0.0198  0.6121  0.1953
   18CHL1  H26A 1326   3.484   0.054   4.341 -0.0159 -0.8049  1.0375
   18CHL1  H26B 1327   3.576   0.198   4.410 -0.2286  0.9350  0.6980
   18CHL1  H26C 1328   3.571   0.045   4.500 -1.8208  0.1059  1.4318
   18CHL1   C27 1329   3.288   0.039   4.520  0.2067  0.0492  0.4332
   18CHL1  H27A 1330   3.275  -0.025   4.430  1.1933 -1.5085  1.3426
   18CHL1  H27B 1331   3.323  -0.017   4.609  0.6660  0.9562  0.8343
   18CHL1  H27C 1332   3.188   0.075   4.553 -0.2946 -2.6328  2.1393
   19CHL1    C3 1333   2.434   1.312   5.772 -0.2285  0.1343 -0.1775
   19CHL1    H3 1334   2.435   1.418   5.738 -2.9419  0.2637 -0.0528
   19CHL1    O3 1335   2.423   1.297   5.914  0.2215  0.2351  0.4578
   19CHL1   H3' 1336   2.351   1.357   5.934  0.1601 -0.3167  2.0094
   19CHL1    C4 1337   2.319   1.243   5.702 -0.2092 -0.2505 -0.2980
   19CHL1   H4A 1338   2.300   1.142   5.744 -0.1953 -0.3092 -0.4311
   19CHL1   H4B 1339   2.233   1.311   5.722  0.4833  0.5241  0.1311
   19CHL1    C5 1340   2.337   1.235   5.555  0.2903 -0.2100 -0.2517
   19CHL1    C6 1341   2.239   1.288   5.477  0.1555  0.1586  0.6990
   19CHL1    H6 1342   2.165   1.356   5.521  0.7916 -0.8712  3.5761
   19CHL1    C7 1343   2.255   1.292   5.330  0.1952 -0.1204 -0.1575
   19CHL1   H7A 1344   2.155   1.268   5.288  0.6728 -1.1978 -0.7310
   19CHL1   H7B 1345   2.292   1.391   5.295  0.7641  0.0495  0.8940
   19CHL1    C8 1346   2.356   1.185   5.280 -1.0736  0.3339 -0.3404
   19CHL1    H8 1347   2.309   1.084   5.283  0.6775 -0.5202 -0.2880
   19CHL1   C14 1348   2.385   1.223   5.133 -0.0246  0.3375  0.8696
   19CHL1   H14 1349   2.431   1.324   5.131  0.2725  0.1939 -0.1209
   19CHL1   C15 1350   2.266   1.241   5.030  0.3601 -0.2932 -0.1219
   19CHL1  H15A 1351   2.184   1.170   5.056 -1.8223  2.1507  0.0183
   19CHL1  H15B 1352   2.215   1.338   5.047 -0.6514 -0.9353  0.6298
   19CHL1   C16 1353   2.337   1.230   4.898  0.2280 -0.2640  0.4328
   19CHL1  H16A 1354   2.300   1.136   4.853 -1.0407  0.3190  0.2111
   19CHL1  H16B 1355   2.317   1.320   4.835  1.1184  0.4011  1.0706
   19CHL1   C17 1356   2.489   1.191   4.923  1.0582 -0.0167 -0.5646
   19CHL1   H17 1357   2.542   1.288   4.939 -0.3138  0.6798 -0.0352
   19CHL1   C13 1358   2.490   1.131   5.055 -0.0415  0.2176 -0.4546
   19CHL1   C18 1359   2.424   0.988   5.048 -0.6474 -0.7302  0.0437
   19CHL1  H18A 1360   2.499   0.925   4.995  1.0734 -0.0905  1.5991
   19CHL1  H18B 1361   2.412   0.952   5.152  0.5210  1.9555  1.2005
   19CHL1  H18C 1362   2.327   0.977   4.994 -0.1780 -0.6661 -0.8331
   19CHL1   C12 1363   2.618   1.120   5.135 -0.3203  0.0202 -0.5424
   19CHL1  H12A 1364   2.678   1.032   5.102 -1.9561 -1.5775  0.5934
   19CHL1  H12B 1365   2.672   1.216   5.119  0.4843 -0.4800 -0.8929
   19CHL1   C11 1366   2.598   1.107   5.284  0.3329 -0.2637  0.0453
   19CHL1  H11A 1367   2.572   1.001   5.307 -1.0982  0.1166  0.3310
   19CHL1  H11B 1368   2.697   1.128   5.329  0.0187 -0.1523  0.6961
   19CHL1    C9 1369   2.491   1.193   5.350 -0.4288 -0.6488 -0.0913
   19CHL1    H9 1370   2.533   1.294   5.332  0.1421 -1.1521 -1.7283
   19CHL1   C10 1371   2.474   1.169   5.504 -0.7085 -0.3487 -0.1649
   19CHL1   C19 1372   2.473   1.018   5.535  0.2817  0.5137  1.1141
   19CHL1  H19A 1373   2.575   0.983   5.507  0.0587  0.9660 -0.3575
   19CHL1  H19B 1374   2.461   1.007   5.645 -0.3669  0.6365  1.0616
   19CHL1  H19C 1375   2.404   0.954   5.477  0.7793  1.1863 -0.2658
   19CHL1    C1 1376   2.594   1.238   5.581  0.6281 -0.2141  0.3204
   19CHL1   H1A 1377   2.681   1.174   5.555  0.9617  0.2267  0.3304
   19CHL1   H1B 1378   2.616   1.337   5.535  0.1426 -0.3377 -0.1873
   19CHL1    C2 1379   2.572   1.254   5.729  0.4800 -0.3158 -0.7868
   19CHL1   H2A 1380   2.659   1.309   5.772  2.3508 -2.7770 -1.2584
   19CHL1   H2B 1381   2.567   1.153   5.773 -0.2866 -0.2789 -0.7737
   19CHL1   C20 1382   2.562   1.127   4.803 -0.2236  0.2937  0.8635
   19CHL1   H20 1383   2.523   1.026   4.778  0.8047  0.1234 -0.1481
   19CHL1   C21 1384   2.714   1.115   4.826 -0.4869  0.5197  0.4885
   19CHL1  H21A 1385   2.757   1.200   4.883  1.3811  1.0674 -1.6133
   19CHL1  H21B 1386   2.769   1.111   4.730  0.6302 -1.0538  1.1476
   19CHL1  H21C 1387   2.744   1.025   4.883 -0.3660  0.6236  0.5906
   19CHL1   C22 1388   2.542   1.217   4.667  0.4630  0.1556 -0.4909
   19CHL1  H22A 1389   2.447   1.273   4.657  1.2148  2.0538  2.0738
   19CHL1  H22B 1390   2.620   1.296   4.659 -0.3181  1.1555  1.3832
   19CHL1   C23 1391   2.555   1.117   4.544  0.0474 -0.4856 -0.1056
   19CHL1  H23A 1392   2.637   1.042   4.550  1.2908  0.8769  0.3103
   19CHL1  H23B 1393   2.466   1.051   4.559 -0.1361 -0.1281  0.4231
   19CHL1   C24 1394   2.549   1.186   4.406  0.4383  0.4892 -0.0079
   19CHL1  H24A 1395   2.446   1.224   4.393  0.1671  0.1521  1.0332
   19CHL1  H24B 1396   2.629   1.263   4.399 -0.0228  1.3326  2.7096
   19CHL1   C25 1397   2.569   1.087   4.285 -0.0877 -0.3580  0.0188
   19CHL1   H25 1398   2.582   1.162   4.205  1.6941 -0.5820  0.0574
   19CHL1   C26 1399   2.707   1.015   4.291 -0.1329  0.0710 -0.1760
   19CHL1  H26A 1400   2.720   0.963   4.194 -0.0474  0.7899 -0.5592
   19CHL1  H26B 1401   2.792   1.087   4.294  0.7180 -0.9459  1.0798
   19CHL1  H26C 1402   2.724   0.952   4.381 -2.6193 -1.7749 -0.8938
   19CHL1   C27 1403   2.456   0.984   4.271  0.2327 -0.1185  0.5143
   19CHL1  H27A 1404   2.469   0.895   4.335 -0.4138 -0.9733 -0.5073
   19CHL1  H27B 1405   2.350   1.015   4.266 -0.1131 -1.2952  0.4375
   19CHL1  H27C 1406   2.480   0.931   4.176  0.3815 -1.0747  1.0795
   20CHL1    C3 1407   2.244   0.729   5.649  0.3679  0.6859 -0.1823
   20CHL1    H3 1408   2.315   0.807   5.614  0.1787  0.2257 -1.6702
   20CHL1    O3 1409   2.264   0.698   5.786  0.7713 -0.6158 -0.3027
   20CHL1   H3' 1410   2.255   0.783   5.829  4.2592  0.1098 -0.7270
   20CHL1    C4 1411   2.101   0.776   5.618 -0.9057 -1.2025  0.1763
   20CHL1   H4A 1412   2.034   0.694   5.651 -1.9291 -0.4657 -0.0146
   20CHL1   H4B 1413   2.085   0.865   5.683  2.6700 -0.3684  0.1129
   20CHL1    C5 1414   2.083   0.803   5.476 -0.3930 -0.2965 -0.6311
   20CHL1    C6 1415   2.052   0.930   5.443  0.3876  0.3647  0.0024
   20CHL1    H6 1416   2.037   0.999   5.527  0.4929 -0.1931  0.4823
   20CHL1    C7 1417   2.027   0.974   5.307  0.4481 -0.1533  1.1044
   20CHL1   H7A 1418   1.926   1.019   5.306  0.2172 -0.5920  2.6079
   20CHL1   H7B 1419   2.099   1.051   5.271  0.4302  0.5035  2.4202
   20CHL1    C8 1420   2.018   0.853   5.204  0.4843  0.6300 -0.2182
   20CHL1    H8 1421   1.918   0.806   5.211  0.2826  0.9190 -0.9874
   20CHL1   C14 1422   2.032   0.907   5.066  0.3248  0.0963 -0.3599
   20CHL1   H14 1423   2.133   0.954   5.074  0.3330  0.0850 -0.3930
   20CHL1   C15 1424   1.939   1.019   5.012  0.0552 -0.0998 -0.0617
   20CHL1  H15A 1425   1.836   1.006   5.052  0.0238  0.1890 -0.0469
   20CHL1  H15B 1426   1.967   1.112   5.065  0.3801 -1.7605  2.9512
   20CHL1   C16 1427   1.952   1.019   4.857  0.4307  0.7134 -0.1297
   20CHL1  H16A 1428   1.846   1.001   4.830  0.1767 -1.5988  2.0491
   20CHL1  H16B 1429   1.985   1.117   4.816  1.4339  0.3203 -0.2912
   20CHL1   C17 1430   2.047   0.898   4.821 -0.2825  0.1082  0.3253
   20CHL1   H17 1431   2.151   0.936   4.820 -0.7266  1.3590 -0.2103
   20CHL1   C13 1432   2.038   0.803   4.948  1.1031 -0.3847  0.7479
   20CHL1   C18 1433   1.896   0.728   4.927 -0.4606  0.3770  0.6367
   20CHL1  H18A 1434   1.821   0.797   4.882 -0.1429 -0.2834 -0.9840
   20CHL1  H18B 1435   1.905   0.639   4.860  0.2398  1.1062 -0.2682
   20CHL1  H18C 1436   1.879   0.689   5.029 -0.3366 -1.3961  0.0153
   20CHL1   C12 1437   2.150   0.704   4.981  0.1253  0.6052  0.0017
   20CHL1  H12A 1438   2.154   0.624   4.904 -0.8177 -1.7325  2.2479
   20CHL1  H12B 1439   2.242   0.766   4.970  0.2296  0.0131 -3.9587
   20CHL1   C11 1440   2.142   0.646   5.123  0.6529 -0.6244 -0.5700
   20CHL1  H11A 1441   2.051   0.584   5.130 -0.0248  0.3383 -0.6619
   20CHL1  H11B 1442   2.232   0.583   5.136  1.5586  0.6208 -0.5520
   20CHL1    C9 1443   2.130   0.758   5.234  1.0510  0.2940  0.2688
   20CHL1    H9 1444   2.224   0.816   5.233  2.7122 -2.2054  1.4703
   20CHL1   C10 1445   2.112   0.694   5.376  0.1646 -0.0446  0.6817
   20CHL1   C19 1446   1.994   0.592   5.373 -0.7888  0.0557  0.3388
   20CHL1  H19A 1447   1.897   0.641   5.348 -0.9210 -0.0286  0.6751
   20CHL1  H19B 1448   2.004   0.504   5.307 -0.1698  0.1208  0.3420
   20CHL1  H19C 1449   1.997   0.546   5.474  1.0488  1.5847  1.0562
   20CHL1    C1 1450   2.254   0.629   5.412  0.0568 -0.4931 -0.2229
   20CHL1   H1A 1451   2.267   0.530   5.365 -0.6330 -0.0959 -1.2967
   20CHL1   H1B 1452   2.326   0.697   5.360 -1.7118 -0.4222 -2.7240
   20CHL1    C2 1453   2.271   0.605   5.563 -0.0300 -0.0522  0.3490
   20CHL1   H2A 1454   2.365   0.547   5.572 -0.3459 -1.0141 -1.7454
   20CHL1   H2B 1455   2.200   0.525   5.592 -1.8860  0.7165 -1.7313
   20CHL1   C20 1456   2.011   0.839   4.683 -0.2280  0.4604  0.2488
   20CHL1   H20 1457   1.912   0.789   4.686 -0.1255  0.0241 -1.8683
   20CHL1   C21 1458   2.118   0.733   4.661  0.2347 -0.0923  0.5057
   20CHL1  H21A 1459   2.218   0.773   4.687  1.1415 -2.2384  0.4904
   20CHL1  H21B 1460   2.126   0.697   4.556  0.6520 -1.6235  1.0338
   20CHL1  H21C 1461   2.091   0.640   4.714  2.7140 -0.8954  0.5004
   20CHL1   C22 1462   2.016   0.940   4.567 -0.2210 -0.2608  0.0385
   20CHL1  H22A 1463   1.946   1.023   4.593  0.9060  1.2222 -1.3997
   20CHL1  H22B 1464   2.122   0.976   4.571 -0.0482 -0.7950  0.3683
   20CHL1   C23 1465   1.977   0.877   4.435 -0.4914  0.4128 -0.1511
   20CHL1  H23A 1466   2.065   0.815   4.409 -0.7300  0.2781 -0.6639
   20CHL1  H23B 1467   1.895   0.802   4.440  0.3142 -0.6161 -1.6564
   20CHL1   C24 1468   1.937   0.976   4.325 -0.4347 -0.4024  0.1253
   20CHL1  H24A 1469   1.835   1.011   4.351  0.2976  2.2762 -0.2756
   20CHL1  H24B 1470   2.004   1.065   4.319 -1.9019  0.6782 -1.1243
   20CHL1   C25 1471   1.919   0.913   4.181 -0.0398 -0.5947  0.3937
   20CHL1   H25 1472   1.846   0.829   4.181 -0.8250  0.0437  2.0271
   20CHL1   C26 1473   1.861   1.022   4.084 -0.0780  0.2688  0.4230
   20CHL1  H26A 1474   1.759   1.058   4.109 -0.9138 -0.7685 -1.2751
   20CHL1  H26B 1475   1.940   1.097   4.059  0.8139 -1.0942 -1.0887
   20CHL1  H26C 1476   1.851   0.970   3.986  0.8686 -1.4312  1.1886
   20CHL1   C27 1477   2.054   0.859   4.122  0.4449  0.0662  0.3935
   20CHL1  H27A 1478   2.086   0.779   4.192 -0.6194 -0.7561 -0.0302
   20CHL1  H27B 1479   2.043   0.811   4.022 -2.2095 -1.4262  1.3216
   20CHL1  H27C 1480   2.132   0.939   4.128  1.4862 -0.4584 -3.3683
   21CHL1    C3 1481   6.753   2.353   5.374  0.0628  0.2841 -0.1671
   21CHL1    H3 1482   6.858   2.390   5.382 -0.5110  1.9161  0.2668
   21CHL1    O3 1483   6.693   2.368   5.500  0.7164 -0.3377  0.4089
   21CHL1   H3' 1484   6.608   2.324   5.489  0.0099  0.9289  0.6898
   21CHL1    C4 1485   6.677   2.432   5.275  0.5282  0.8347 -0.1174
   21CHL1   H4A 1486   6.575   2.389   5.276  0.5168  0.8243 -1.0231
   21CHL1   H4B 1487   6.660   2.533   5.318 -0.3174  1.1193 -1.0823
   21CHL1    C5 1488   6.737   2.434   5.139 -0.6588 -0.0287  0.1565
   21CHL1    C6 1489   6.775   2.546   5.075 -0.5684  0.4320  0.2361
   21CHL1    H6 1490   6.757   2.647   5.115 -0.6435  0.5609 -0.1127
   21CHL1    C7 1491   6.827   2.548   4.931  0.0656 -0.0049 -0.1857
   21CHL1   H7A 1492   6.769   2.615   4.865  2.3909  0.1978 -2.1319
   21CHL1   H7B 1493   6.936   2.570   4.929  0.0415  0.1218 -0.1190
   21CHL1    C8 1494   6.812   2.407   4.864 -0.0626 -0.4870  0.2260
   21CHL1    H8 1495   6.713   2.385   4.818  1.0611  0.2370 -2.7905
   21CHL1   C14 1496   6.907   2.405   4.745 -0.4472  0.6302  0.2014
   21CHL1   H14 1497   7.008   2.423   4.788 -0.1414 -1.5305  0.4665
   21CHL1   C15 1498   6.890   2.510   4.646  0.6083 -0.3897  0.0740
   21CHL1  H15A 1499   6.784   2.515   4.614  0.0377 -0.4065  1.8647
   21CHL1  H15B 1500   6.926   2.612   4.670  0.3436 -0.7695  2.3778
   21CHL1   C16 1501   6.956   2.464   4.513  0.0257 -0.3888 -0.0470
   21CHL1  H16A 1502   6.881   2.452   4.432 -0.9204  0.2188  0.7155
   21CHL1  H16B 1503   7.044   2.529   4.495 -1.8397  2.2725 -0.2316
   21CHL1   C17 1504   7.004   2.322   4.546  0.1006  0.1235  0.0228
   21CHL1   H17 1505   7.102   2.334   4.597 -0.3843  0.6752  0.8493
   21CHL1   C13 1506   6.923   2.281   4.670 -0.0607  0.2569 -0.5337
   21CHL1   C18 1507   6.789   2.235   4.609  0.5349  0.5086  0.0242
   21CHL1  H18A 1508   6.714   2.223   4.690  0.8085 -0.7483  0.1029
   21CHL1  H18B 1509   6.751   2.309   4.535 -2.8509  1.0728  2.1136
   21CHL1  H18C 1510   6.794   2.134   4.564 -1.2799  1.4469 -2.5154
   21CHL1   C12 1511   6.979   2.181   4.768  0.4737 -0.2027 -0.1477
   21CHL1  H12A 1512   6.998   2.078   4.732  2.9970 -0.3068  1.2717
   21CHL1  H12B 1513   7.082   2.209   4.799  1.1793 -2.7165 -0.0206
   21CHL1   C11 1514   6.880   2.167   4.888 -0.2713  0.6997  0.1713
   21CHL1  H11A 1515   6.785   2.129   4.845  0.1833 -1.9852  1.3829
   21CHL1  H11B 1516   6.909   2.089   4.962 -0.9690 -0.4264 -0.7190
   21CHL1    C9 1517   6.852   2.297   4.960  0.3461  0.3383  1.0667
   21CHL1    H9 1518   6.952   2.335   4.989  0.0079  2.4869 -0.3017
   21CHL1   C10 1519   6.760   2.291   5.078 -0.4467  0.0612 -0.2583
   21CHL1   C19 1520   6.627   2.220   5.035 -0.3373  0.4567  0.0836
   21CHL1  H19A 1521   6.623   2.111   5.056  0.4027  0.6282  1.2311
   21CHL1  H19B 1522   6.549   2.267   5.099 -0.6705  0.5726 -0.4069
   21CHL1  H19C 1523   6.610   2.232   4.926  1.8774  1.4032 -0.2237
   21CHL1    C1 1524   6.832   2.210   5.186  0.0407  0.6228 -0.2064
   21CHL1   H1A 1525   6.838   2.104   5.153  0.4985  1.2451 -2.2735
   21CHL1   H1B 1526   6.934   2.252   5.198  0.1526  0.8708 -1.7360
   21CHL1    C2 1527   6.764   2.208   5.328 -0.2360  0.4682  0.3367
   21CHL1   H2A 1528   6.828   2.136   5.384 -0.7544 -0.8661 -0.7162
   21CHL1   H2B 1529   6.665   2.161   5.309  0.4189 -0.3565 -1.2893
   21CHL1   C20 1530   7.032   2.227   4.423  0.1364 -0.9376  0.1556
   21CHL1   H20 1531   6.939   2.172   4.396 -0.4754  0.3852 -0.5204
   21CHL1   C21 1532   7.136   2.121   4.471  0.6175  0.0237  0.5927
   21CHL1  H21A 1533   7.160   2.046   4.392  0.9886  1.4338 -0.6845
   21CHL1  H21B 1534   7.098   2.081   4.567 -1.3415  0.1770 -0.0690
   21CHL1  H21C 1535   7.233   2.170   4.494  0.6546  1.4099 -2.1538
   21CHL1   C22 1536   7.086   2.299   4.297 -0.5954  0.5065 -0.0979
   21CHL1  H22A 1537   7.020   2.385   4.273 -0.8927  0.4802  0.6144
   21CHL1  H22B 1538   7.179   2.353   4.326 -1.8341  2.1620  0.9825
   21CHL1   C23 1539   7.106   2.230   4.160  0.6708 -0.1067  1.3810
   21CHL1  H23A 1540   7.160   2.133   4.173  0.1394 -1.0329 -2.1775
   21CHL1  H23B 1541   7.004   2.207   4.123  0.7458  0.1819  0.9946
   21CHL1   C24 1542   7.179   2.311   4.054 -0.2020 -0.0414  0.2637
   21CHL1  H24A 1543   7.141   2.415   4.053  0.1017  0.0717 -0.5495
   21CHL1  H24B 1544   7.284   2.310   4.090 -0.0235  2.0688 -0.0960
   21CHL1   C25 1545   7.177   2.244   3.911  0.4443 -0.0031 -0.4251
   21CHL1   H25 1546   7.074   2.261   3.874 -0.2259  0.4367  1.5250
   21CHL1   C26 1547   7.268   2.313   3.816 -0.0194  0.3176  0.3947
   21CHL1  H26A 1548   7.372   2.285   3.846 -0.1484 -2.6780 -1.5539
   21CHL1  H26B 1549   7.251   2.278   3.712 -1.6483  0.9322  0.4355
   21CHL1  H26C 1550   7.261   2.424   3.811 -2.8955  0.2214  0.9778
   21CHL1   C27 1551   7.211   2.092   3.907  0.6373 -0.1187  0.1014
   21CHL1  H27A 1552   7.148   2.029   3.974  1.7641 -2.2692 -0.7565
   21CHL1  H27B 1553   7.200   2.052   3.804  2.0121 -1.2630  0.3624
   21CHL1  H27C 1554   7.316   2.074   3.937  1.1992  1.8699 -0.4912
   22CHL1    C3 1555   0.727   5.058   5.519  0.4095  0.2348 -0.2492
   22CHL1    H3 1556   0.667   4.964   5.510  0.4017  0.2714 -0.5996
   22CHL1    O3 1557   0.766   5.084   5.654  0.0761  0.2315 -0.0628
   22CHL1   H3' 1558   0.679   5.099   5.691 -1.2503  0.3238 -2.9574
   22CHL1    C4 1559   0.860   5.046   5.448  0.0380  0.4554 -0.1461
   22CHL1   H4A 1560   0.933   5.128   5.467  1.2753 -0.6931  0.1935
   22CHL1   H4B 1561   0.913   4.958   5.490  0.9091  0.6470 -0.8151
   22CHL1    C5 1562   0.836   5.029   5.297 -0.3817  0.1200  0.0882
   22CHL1    C6 1563   0.877   4.918   5.235  0.2613 -0.6075 -0.3452
   22CHL1    H6 1564   0.939   4.845   5.288  1.3666  0.7375  0.2548
   22CHL1    C7 1565   0.870   4.899   5.088  0.6386 -0.2002 -0.2716
   22CHL1   H7A 1566   0.968   4.874   5.043  0.7666 -0.5239  0.1848
   22CHL1   H7B 1567   0.809   4.806   5.078  1.8988 -1.1721  0.8246
   22CHL1    C8 1568   0.814   5.012   5.010  0.6834 -0.6167  0.2072
   22CHL1    H8 1569   0.900   5.076   4.983  1.2204 -0.0535  2.9439
   22CHL1   C14 1570   0.754   4.970   4.875  0.0048  1.0250  0.1072
   22CHL1   H14 1571   0.669   4.907   4.908  0.8664  0.9461  2.2842
   22CHL1   C15 1572   0.841   4.877   4.783  0.5504  0.6411  0.0944
   22CHL1  H15A 1573   0.947   4.912   4.785 -0.8758  5.7442  2.0147
   22CHL1  H15B 1574   0.833   4.770   4.813 -1.5669  0.1841 -1.8414
   22CHL1   C16 1575   0.775   4.887   4.653 -0.0007 -0.9350  0.5047
   22CHL1  H16A 1576   0.852   4.919   4.579  0.1448  1.8582  1.7388
   22CHL1  H16B 1577   0.737   4.793   4.608 -1.2434  1.1939 -3.3132
   22CHL1   C17 1578   0.661   5.001   4.662 -0.3052  0.4550 -0.1986
   22CHL1   H17 1579   0.575   4.947   4.708 -0.1306  0.9472  0.7140
   22CHL1   C13 1580   0.710   5.084   4.786  0.5201 -0.0099 -0.3359
   22CHL1   C18 1581   0.818   5.180   4.742  0.2345 -0.3423 -0.2209
   22CHL1  H18A 1582   0.786   5.262   4.673 -1.7883  1.1067  2.2585
   22CHL1  H18B 1583   0.871   5.228   4.826  0.1311 -2.3642  1.0606
   22CHL1  H18C 1584   0.899   5.125   4.690  0.0757 -0.7409 -0.0457
   22CHL1   C12 1585   0.592   5.155   4.862  0.4055 -0.1856 -0.3567
   22CHL1  H12A 1586   0.562   5.249   4.810 -0.1303 -0.6016 -0.8088
   22CHL1  H12B 1587   0.498   5.096   4.871 -0.0626  0.7482  1.4196
   22CHL1   C11 1588   0.637   5.204   5.002  0.2647 -0.2734 -0.6166
   22CHL1  H11A 1589   0.708   5.282   4.965 -0.2870  0.1698 -0.7510
   22CHL1  H11B 1590   0.553   5.251   5.057  1.3010 -1.4339  2.1096
   22CHL1    C9 1591   0.702   5.095   5.087  0.0425  0.1137  0.2833
   22CHL1    H9 1592   0.625   5.016   5.097  0.1876 -0.0855 -0.1470
   22CHL1   C10 1593   0.746   5.138   5.228  0.6085  0.3728  0.6672
   22CHL1   C19 1594   0.828   5.261   5.199  0.0154  0.3697 -0.0956
   22CHL1  H19A 1595   0.863   5.300   5.297 -1.2676  0.8473  0.1895
   22CHL1  H19B 1596   0.921   5.258   5.139 -0.4301  1.2766 -0.8508
   22CHL1  H19C 1597   0.771   5.344   5.153 -2.1448 -1.1042 -0.2323
   22CHL1    C1 1598   0.615   5.171   5.311 -0.0627  0.7462  0.6895
   22CHL1   H1A 1599   0.583   5.272   5.279  1.3773  1.1197  0.3264
   22CHL1   H1B 1600   0.530   5.101   5.302 -0.2570  1.1064 -0.5281
   22CHL1    C2 1601   0.644   5.180   5.459  0.0547  0.7797 -0.5091
   22CHL1   H2A 1602   0.545   5.189   5.507 -0.7126 -1.7406 -1.4429
   22CHL1   H2B 1603   0.701   5.274   5.476  0.4987  0.4652 -0.2090
   22CHL1   C20 1604   0.622   5.070   4.532  0.6526  0.5261 -0.7015
   22CHL1   H20 1605   0.697   5.136   4.484  0.7239 -0.3457 -1.8306
   22CHL1   C21 1606   0.497   5.157   4.548  0.3225 -0.5966 -0.0641
   22CHL1  H21A 1607   0.521   5.251   4.602  1.9268 -0.0259 -1.6771
   22CHL1  H21B 1608   0.419   5.113   4.614  0.6870 -1.9471 -0.5092
   22CHL1  H21C 1609   0.455   5.195   4.453  0.3613  0.8984  0.4836
   22CHL1   C22 1610   0.589   4.964   4.423  0.3860  0.4598  0.2925
   22CHL1  H22A 1611   0.671   4.889   4.425 -0.8922 -0.9748  1.5051
   22CHL1  H22B 1612   0.505   4.909   4.470  1.4547  0.9754  3.0016
   22CHL1   C23 1613   0.571   5.012   4.278 -0.2224 -0.0926 -0.7445
   22CHL1  H23A 1614   0.544   4.920   4.222  2.5667 -1.4535  0.0079
   22CHL1  H23B 1615   0.493   5.091   4.276  0.6287  0.8810  1.5691
   22CHL1   C24 1616   0.712   5.053   4.223  0.6357  0.5400 -0.4413
   22CHL1  H24A 1617   0.733   5.150   4.273 -0.2972  1.5978 -2.0490
   22CHL1  H24B 1618   0.777   4.967   4.251  0.0700  0.8953  2.2192
   22CHL1   C25 1619   0.716   5.084   4.064  0.5415  0.1766 -1.0493
   22CHL1   H25 1620   0.639   5.160   4.038  2.0570  1.8722 -0.7953
   22CHL1   C26 1621   0.857   5.135   4.032  0.6213 -0.0676 -0.2574
   22CHL1  H26A 1622   0.854   5.182   3.932  1.1855 -1.4755 -0.9577
   22CHL1  H26B 1623   0.887   5.207   4.111  2.7829 -1.8717  0.6686
   22CHL1  H26C 1624   0.925   5.047   4.029  0.0811 -0.4690 -1.2481
   22CHL1   C27 1625   0.670   4.962   3.980 -0.3769 -0.5191 -0.4864
   22CHL1  H27A 1626   0.714   4.962   3.878 -0.2550  0.1558 -0.4352
   22CHL1  H27B 1627   0.681   4.863   4.030  1.6582  0.0793  0.3355
   22CHL1  H27C 1628   0.563   4.986   3.962  0.4789  5.5246  0.5627
   23CHL1    C3 1629   0.044   2.147   5.577  0.2531 -0.6047  0.3118
   23CHL1    H3 1630   0.012   2.231   5.511 -1.3595 -0.5969  1.0514
   23CHL1    O3 1631  -0.036   2.136   5.691 -0.7034  0.1005 -0.4393
   23CHL1   H3' 1632   0.020   2.179   5.757 -1.9970 -1.1919  1.6302
   23CHL1    C4 1633   0.035   2.015   5.501 -0.0242  0.0867  0.2314
   23CHL1   H4A 1634   0.065   1.930   5.566 -2.5337 -2.9093 -2.2514
   23CHL1   H4B 1635  -0.070   1.989   5.477 -0.0720 -0.9419  1.4391
   23CHL1    C5 1636   0.122   2.006   5.380 -0.2964  0.3861  0.8793
   23CHL1    C6 1637   0.068   1.974   5.258  0.5732  0.1972 -0.4872
   23CHL1    H6 1638  -0.042   1.974   5.251  0.3527  2.9325  1.4679
   23CHL1    C7 1639   0.152   1.968   5.128  0.5396 -0.0462  0.0850
   23CHL1   H7A 1640   0.117   1.885   5.063 -3.1420  1.9088 -0.7097
   23CHL1   H7B 1641   0.132   2.060   5.068  2.2606  0.5299  0.3483
   23CHL1    C8 1642   0.301   1.963   5.163 -0.2399  0.3677  1.1993
   23CHL1    H8 1643   0.329   1.861   5.197 -0.7994  0.0419  0.7023
   23CHL1   C14 1644   0.374   1.980   5.036  0.0051  0.0769 -0.2891
   23CHL1   H14 1645   0.364   2.086   5.004  1.0017  0.1377 -0.4155
   23CHL1   C15 1646   0.328   1.901   4.912 -0.5544  0.3843 -0.2238
   23CHL1  H15A 1647   0.303   1.796   4.941  2.2917 -0.1429  0.6534
   23CHL1  H15B 1648   0.258   1.970   4.860 -0.5179  0.6634  0.0944
   23CHL1   C16 1649   0.447   1.906   4.819 -0.7680 -0.1447  0.2203
   23CHL1  H16A 1650   0.498   1.808   4.807 -1.1484 -0.1981 -1.1685
   23CHL1  H16B 1651   0.421   1.950   4.720  0.8502  1.8507  0.6216
   23CHL1   C17 1652   0.554   2.004   4.888  0.1773 -0.2275 -0.4986
   23CHL1   H17 1653   0.518   2.108   4.869 -0.7357 -0.6128 -0.9428
   23CHL1   C13 1654   0.526   1.979   5.044  0.1946  0.4008  0.9425
   23CHL1   C18 1655   0.573   1.836   5.080  0.6043 -0.1734  0.1481
   23CHL1  H18A 1656   0.682   1.834   5.061  0.4379 -2.3597 -0.9025
   23CHL1  H18B 1657   0.552   1.808   5.186 -0.9333 -0.1114 -0.1175
   23CHL1  H18C 1658   0.528   1.754   5.020 -0.6375  0.2029  0.5321
   23CHL1   C12 1659   0.571   2.078   5.144  0.0473 -0.2635  0.1172
   23CHL1  H12A 1660   0.680   2.079   5.166  0.4394 -0.0234 -1.7296
   23CHL1  H12B 1661   0.550   2.179   5.101 -2.8732 -1.0593 -0.5771
   23CHL1   C11 1662   0.496   2.055   5.279  0.1167 -0.0729  0.4177
   23CHL1  H11A 1663   0.528   1.951   5.305  2.5070  0.4106 -0.2899
   23CHL1  H11B 1664   0.523   2.128   5.358  1.9926 -0.6333  0.3438
   23CHL1    C9 1665   0.344   2.064   5.271  0.8944 -0.6873 -0.6112
   23CHL1    H9 1666   0.312   2.168   5.249  1.7361  0.0219  1.3663
   23CHL1   C10 1667   0.271   2.042   5.406 -0.0581 -0.1885  0.4676
   23CHL1   C19 1668   0.341   1.927   5.475 -0.2398 -0.3275 -0.4627
   23CHL1  H19A 1669   0.290   1.880   5.561 -1.3352 -1.0402 -1.4623
   23CHL1  H19B 1670   0.369   1.845   5.405  1.1489 -2.2250  2.1720
   23CHL1  H19C 1671   0.442   1.961   5.508  0.1329 -3.7462  2.4078
   23CHL1    C1 1672   0.282   2.171   5.492 -0.1012  0.0423  0.2274
   23CHL1   H1A 1673   0.390   2.175   5.519  0.7009 -0.4875 -2.5461
   23CHL1   H1B 1674   0.259   2.263   5.434  3.3638 -0.3484 -2.0837
   23CHL1    C2 1675   0.192   2.170   5.616 -0.0774 -0.2792 -0.3933
   23CHL1   H2A 1676   0.203   2.266   5.671 -1.5440 -0.0324 -0.4798
   23CHL1   H2B 1677   0.225   2.079   5.670  0.6622 -0.0671 -0.4859
   23CHL1   C20 1678   0.688   1.983   4.829  0.3794  0.6731 -0.2838
   23CHL1   H20 1679   0.708   1.875   4.844 -1.6756  0.1876 -0.6871
   23CHL1   C21 1680   0.791   2.079   4.896 -0.1890  0.2813 -1.0297
   23CHL1  H21A 1681   0.789   2.039   5.000 -2.9736  1.5619 -0.4775
   23CHL1  H21B 1682   0.767   2.187   4.896  1.1475  0.6194  1.1037
   23CHL1  H21C 1683   0.900   2.074   4.875 -0.0995 -2.4141 -0.2896
   23CHL1   C22 1684   0.691   2.002   4.674  0.3398  0.1539 -0.7131
   23CHL1  H22A 1685   0.622   1.933   4.622 -1.3441 -2.0698  3.8918
   23CHL1  H22B 1686   0.657   2.107   4.657 -0.0856  0.2740  0.7395
   23CHL1   C23 1687   0.831   1.997   4.616  0.6079  0.3816 -0.4232
   23CHL1  H23A 1688   0.903   2.077   4.643 -0.0308  0.3663  1.5150
   23CHL1  H23B 1689   0.878   1.904   4.654 -0.0206  0.6927  1.1767
   23CHL1   C24 1690   0.815   1.998   4.463  0.4241  0.2691  0.1492
   23CHL1  H24A 1691   0.791   1.893   4.433 -0.3707  0.1059  1.3138
   23CHL1  H24B 1692   0.727   2.062   4.440  0.1614 -0.3259 -0.5450
   23CHL1   C25 1693   0.936   2.060   4.395 -0.4611 -0.4970 -0.0060
   23CHL1   H25 1694   0.942   2.161   4.441  0.3159 -1.3933  1.9799
   23CHL1   C26 1695   1.067   1.993   4.442 -0.0400  0.1386 -0.5740
   23CHL1  H26A 1696   1.068   1.979   4.552  2.4626  2.3830 -0.1858
   23CHL1  H26B 1697   1.061   1.897   4.387 -1.8104 -1.8551  2.7851
   23CHL1  H26C 1698   1.161   2.046   4.412  0.2221 -0.0347 -0.0638
   23CHL1   C27 1699   0.931   2.068   4.245  0.7063  0.1338  0.3557
   23CHL1  H27A 1700   0.826   2.101   4.231  1.1034  1.1894 -0.3059
   23CHL1  H27B 1701   1.005   2.134   4.195  0.4136  0.7220  0.6864
   23CHL1  H27C 1702   0.941   1.969   4.194 -1.5871  0.5395 -1.0347
   24CHL1    C3 1703   1.652   0.007   5.668 -0.2764  0.3752  0.1732
   24CHL1    H3 1704   1.622   0.100   5.613 -3.9837  0.2954  1.7803
   24CHL1    O3 1705   1.626   0.020   5.801  0.5509  0.7184 -0.0801
   24CHL1   H3' 1706   1.671  -0.052   5.845  0.8154 -0.8475 -2.6987
   24CHL1    C4 1707   1.579  -0.118   5.614  0.4581 -0.2290  0.3732
   24CHL1   H4A 1708   1.607  -0.207   5.674 -1.4692 -0.8540  0.3928
   24CHL1   H4B 1709   1.471  -0.096   5.628  0.3356  0.8798 -1.8684
   24CHL1    C5 1710   1.607  -0.148   5.467  0.2274  0.2026 -0.1410
   24CHL1    C6 1711   1.504  -0.148   5.384 -0.6423  0.0144  0.5478
   24CHL1    H6 1712   1.401  -0.130   5.418 -1.1023 -1.0637 -0.2171
   24CHL1    C7 1713   1.527  -0.189   5.241 -0.5799 -0.8113  0.1822
   24CHL1   H7A 1714   1.449  -0.257   5.201  0.5036 -0.9241 -1.8759
   24CHL1   H7B 1715   1.515  -0.101   5.174  0.5621 -1.5104 -1.0028
   24CHL1    C8 1716   1.664  -0.262   5.210  0.3247 -0.4129 -0.0129
   24CHL1    H8 1717   1.663  -0.364   5.255  1.4037 -0.1682  0.6033
   24CHL1   C14 1718   1.688  -0.272   5.068 -1.0299 -0.2501 -0.6444
   24CHL1   H14 1719   1.692  -0.164   5.043 -1.9097  0.3035  1.3935
   24CHL1   C15 1720   1.595  -0.332   4.966  0.6865  0.6262 -0.2299
   24CHL1  H15A 1721   1.567  -0.438   4.983 -2.1639  0.9448 -2.3230
   24CHL1  H15B 1722   1.499  -0.279   4.949 -0.1575 -1.3274 -2.1540
   24CHL1   C16 1723   1.668  -0.346   4.837 -1.2321  0.1978 -0.4594
   24CHL1  H16A 1724   1.651  -0.442   4.783 -1.7542  0.6804 -1.1740
   24CHL1  H16B 1725   1.643  -0.265   4.765 -0.5905 -0.0969 -1.0352
   24CHL1   C17 1726   1.824  -0.338   4.877 -0.3529 -0.7606 -0.0066
   24CHL1   H17 1727   1.861  -0.239   4.845  2.2695 -1.6372  0.0825
   24CHL1   C13 1728   1.825  -0.332   5.034 -0.6832  0.0262 -0.2578
   24CHL1   C18 1729   1.834  -0.474   5.082  1.1043  0.2072 -0.1048
   24CHL1  H18A 1730   1.760  -0.543   5.037  0.4021  0.3945  0.7370
   24CHL1  H18B 1731   1.936  -0.516   5.068  1.2845  0.4712  0.3773
   24CHL1  H18C 1732   1.814  -0.485   5.191  0.0138  0.5716 -0.2584
   24CHL1   C12 1733   1.950  -0.255   5.100 -0.4628  0.1171 -0.0776
   24CHL1  H12A 1734   2.051  -0.298   5.086 -0.0764  1.0951 -0.3398
   24CHL1  H12B 1735   1.951  -0.156   5.050  3.7299  1.4946  2.2358
   24CHL1   C11 1736   1.922  -0.240   5.253  0.7765 -0.0880 -0.3993
   24CHL1  H11A 1737   1.950  -0.338   5.297  1.5166  0.0701 -0.4986
   24CHL1  H11B 1738   1.997  -0.172   5.300 -0.3734 -0.8636  2.8333
   24CHL1    C9 1739   1.777  -0.189   5.290 -0.7915 -0.5453  0.6311
   24CHL1    H9 1740   1.776  -0.084   5.255 -2.2918 -0.8958 -0.4389
   24CHL1   C10 1741   1.751  -0.175   5.442 -0.9389  0.3245 -1.0458
   24CHL1   C19 1742   1.790  -0.303   5.517  0.0105 -0.1188 -0.2412
   24CHL1  H19A 1743   1.900  -0.323   5.516 -0.0200 -1.4604  4.2468
   24CHL1  H19B 1744   1.783  -0.290   5.627  1.4268  1.9736 -0.3428
   24CHL1  H19C 1745   1.735  -0.388   5.471 -0.0963 -1.7024  2.5749
   24CHL1    C1 1746   1.831  -0.055   5.498  0.3298 -0.1091 -0.7706
   24CHL1   H1A 1747   1.941  -0.058   5.481  0.4877 -0.2154  0.2380
   24CHL1   H1B 1748   1.806   0.035   5.438 -0.0277 -1.1768 -2.2796
   24CHL1    C2 1749   1.804  -0.007   5.646  0.1011 -0.1293  0.8812
   24CHL1   H2A 1750   1.854   0.092   5.655  0.4210 -0.0552 -1.2228
   24CHL1   H2B 1751   1.843  -0.077   5.722 -0.6880 -0.8577  0.6311
   24CHL1   C20 1752   1.921  -0.425   4.790 -0.4028 -0.2176  0.2197
   24CHL1   H20 1753   1.898  -0.531   4.811  0.6088 -0.3643  0.6071
   24CHL1   C21 1754   2.070  -0.405   4.819  0.2364 -0.2155 -0.3170
   24CHL1  H21A 1755   2.123  -0.480   4.756 -2.6716 -0.8353 -2.2567
   24CHL1  H21B 1756   2.089  -0.421   4.927 -1.0930  0.5390  0.0615
   24CHL1  H21C 1757   2.088  -0.297   4.797 -0.4357 -0.0094  0.1000
   24CHL1   C22 1758   1.897  -0.413   4.637  0.2976 -0.4443  0.5606
   24CHL1  H22A 1759   1.789  -0.404   4.611 -0.2628 -1.1303  2.4859
   24CHL1  H22B 1760   1.953  -0.327   4.594 -1.4336  1.6149  2.2083
   24CHL1   C23 1761   1.929  -0.548   4.571  0.1176  0.2483 -0.0577
   24CHL1  H23A 1762   2.035  -0.569   4.597  0.5800  2.0204 -0.3839
   24CHL1  H23B 1763   1.862  -0.625   4.615 -0.6653 -0.5198 -2.4278
   24CHL1   C24 1764   1.907  -0.539   4.419 -0.6509  0.7383  0.2685
   24CHL1  H24A 1765   1.805  -0.503   4.390  0.7157  2.2925 -3.1923
   24CHL1  H24B 1766   1.972  -0.456   4.384  0.1845 -0.1566 -0.3335
   24CHL1   C25 1767   1.934  -0.674   4.341  0.4568  0.0935 -0.6592
   24CHL1   H25 1768   1.908  -0.655   4.235 -0.0305  0.7394 -0.4335
   24CHL1   C26 1769   2.082  -0.716   4.346  0.5526  0.7516  0.5875
   24CHL1  H26A 1770   2.103  -0.769   4.441  0.4919  0.9698  0.7237
   24CHL1  H26B 1771   2.107  -0.788   4.265  0.5874  1.2451  0.1567
   24CHL1  H26C 1772   2.147  -0.627   4.332 -0.5699  1.3987 -0.7672
   24CHL1   C27 1773   1.840  -0.786   4.401 -0.5809 -0.5753 -0.1476
   24CHL1  H27A 1774   1.886  -0.815   4.498 -1.8721 -1.4498  0.2266
   24CHL1  H27B 1775   1.737  -0.747   4.417 -0.2034  0.1626  0.5011
   24CHL1  H27C 1776   1.835  -0.879   4.340  2.3533 -0.5258 -0.5774
   25CHL1    C3 1777   0.097   1.484   5.581  0.6452  0.2090  0.5692
   25CHL1    H3 1778   0.196   1.435   5.582  0.6277  0.1740  1.2733
   25CHL1    O3 1779   0.055   1.540   5.702  0.3883 -0.1128 -0.0165
   25CHL1   H3' 1780   0.121   1.602   5.734 -0.0359  1.5218 -2.0847
   25CHL1    C4 1781   0.103   1.595   5.477  0.2095 -0.5053  0.6853
   25CHL1   H4A 1782   0.007   1.650   5.473  0.6388  0.2953 -3.1954
   25CHL1   H4B 1783   0.174   1.678   5.499 -0.3441  0.1990 -0.0905
   25CHL1    C5 1784   0.128   1.559   5.335 -0.4933 -0.3019 -0.6950
   25CHL1    C6 1785   0.225   1.608   5.257  0.5381  0.8372  0.0865
   25CHL1    H6 1786   0.298   1.681   5.296  1.3139  1.1497 -1.8607
   25CHL1    C7 1787   0.269   1.557   5.121  0.6155  0.3364  0.1435
   25CHL1   H7A 1788   0.292   1.638   5.048 -0.8556 -0.2222 -0.9952
   25CHL1   H7B 1789   0.359   1.492   5.119  1.8692  2.0111  0.2929
   25CHL1    C8 1790   0.148   1.474   5.057 -1.0590 -0.3795 -0.4198
   25CHL1    H8 1791   0.070   1.547   5.025 -0.7122  0.6030  0.8972
   25CHL1   C14 1792   0.198   1.395   4.943 -0.4429  0.9888  0.1014
   25CHL1   H14 1793   0.278   1.325   4.977 -0.4551 -0.1118 -1.9884
   25CHL1   C15 1794   0.258   1.483   4.828  0.3830 -0.3284 -0.3122
   25CHL1  H15A 1795   0.210   1.576   4.792  0.7947  0.3009  0.7332
   25CHL1  H15B 1796   0.360   1.509   4.865  0.4941  0.2397 -0.9933
   25CHL1   C16 1797   0.282   1.375   4.710 -0.4157  0.3033  0.0562
   25CHL1  H16A 1798   0.242   1.410   4.613  0.0486 -0.6170 -0.4786
   25CHL1  H16B 1799   0.386   1.337   4.714  0.0105  1.4738  0.4313
   25CHL1   C17 1800   0.186   1.257   4.747 -0.0209  0.2536 -0.8886
   25CHL1   H17 1801   0.265   1.194   4.794 -0.5584  0.0588 -0.2320
   25CHL1   C13 1802   0.102   1.303   4.866  0.2157 -0.6144  0.3482
   25CHL1   C18 1803  -0.021   1.388   4.812  0.1540 -0.0236  0.0903
   25CHL1  H18A 1804  -0.096   1.326   4.759  1.6855 -0.3784 -1.7452
   25CHL1  H18B 1805  -0.064   1.439   4.901  1.1803  1.3120 -0.1542
   25CHL1  H18C 1806   0.015   1.470   4.747 -2.5084  1.2286  0.0576
   25CHL1   C12 1807   0.050   1.199   4.958  0.3193  0.6528 -0.6728
   25CHL1  H12A 1808  -0.029   1.130   4.922 -0.5167 -0.1799  2.4694
   25CHL1  H12B 1809   0.125   1.123   4.989  0.6918  1.3562  0.2159
   25CHL1   C11 1810   0.001   1.270   5.094  0.1425 -0.0026  0.1990
   25CHL1  H11A 1811  -0.101   1.308   5.075 -1.0898 -3.3934 -0.7520
   25CHL1  H11B 1812  -0.004   1.193   5.175  3.3378 -0.3852  0.1899
   25CHL1    C9 1813   0.094   1.373   5.159 -0.0381  0.0499 -0.5543
   25CHL1    H9 1814   0.184   1.316   5.193 -1.3898 -1.0591  1.3718
   25CHL1   C10 1815   0.040   1.440   5.290 -0.4092  0.1179  0.0111
   25CHL1   C19 1816  -0.104   1.509   5.260 -0.8665 -0.0793  0.0802
   25CHL1  H19A 1817  -0.140   1.565   5.350  2.3089 -1.1995  2.2036
   25CHL1  H19B 1818  -0.096   1.563   5.163  0.0440  0.4836  0.4632
   25CHL1  H19C 1819  -0.169   1.423   5.233  1.0964 -0.7101 -3.0209
   25CHL1    C1 1820   0.013   1.336   5.399  0.9227 -0.1759  0.4756
   25CHL1   H1A 1821  -0.063   1.261   5.367  2.1192 -0.9714 -0.5929
   25CHL1   H1B 1822   0.111   1.285   5.413  0.6486 -0.6337  0.7375
   25CHL1    C2 1823  -0.018   1.386   5.542  0.0196 -0.0228 -0.7524
   25CHL1   H2A 1824  -0.019   1.307   5.621  0.7299  2.6114  2.0583
   25CHL1   H2B 1825  -0.119   1.431   5.536  0.3676  0.6514 -1.9893
   25CHL1   C20 1826   0.120   1.185   4.628  0.3064  0.0942  0.0181
   25CHL1   H20 1827   0.061   1.268   4.583  0.5537  0.0605 -0.3710
   25CHL1   C21 1828   0.023   1.071   4.667 -0.1448  0.0781  0.0253
   25CHL1  H21A 1829   0.002   1.023   4.569  0.4200 -1.3328  0.5664
   25CHL1  H21B 1830  -0.071   1.108   4.714  0.2293  2.7832 -1.1732
   25CHL1  H21C 1831   0.074   0.990   4.725 -0.3538 -1.8790 -2.3805
   25CHL1   C22 1832   0.215   1.141   4.511  0.2407 -0.2822 -0.1882
   25CHL1  H22A 1833   0.153   1.087   4.436  0.5768  0.3501 -0.9342
   25CHL1  H22B 1834   0.259   1.233   4.468 -2.6364  1.3104  0.0132
   25CHL1   C23 1835   0.320   1.033   4.547  0.3891  0.1765 -0.0166
   25CHL1  H23A 1836   0.382   1.060   4.635 -0.3773 -1.2204  0.9907
   25CHL1  H23B 1837   0.258   0.948   4.584 -0.7112  2.4170  3.9441
   25CHL1   C24 1838   0.413   0.993   4.435  0.8181 -0.1876 -0.2330
   25CHL1  H24A 1839   0.368   0.974   4.336 -0.3274  2.9717 -0.4553
   25CHL1  H24B 1840   0.471   1.086   4.415  0.0184 -0.0495 -2.0609
   25CHL1   C25 1841   0.500   0.872   4.476  0.5125  0.1569 -0.1637
   25CHL1   H25 1842   0.558   0.902   4.566 -0.2858 -3.1341  1.5746
   25CHL1   C26 1843   0.419   0.745   4.508  0.2170 -0.2646 -0.4180
   25CHL1  H26A 1844   0.357   0.710   4.424 -0.3154  0.1795 -0.2111
   25CHL1  H26B 1845   0.496   0.668   4.532 -0.1746 -1.1428 -1.8873
   25CHL1  H26C 1846   0.351   0.757   4.595 -0.0882 -1.4180 -0.4787
   25CHL1   C27 1847   0.595   0.839   4.361 -0.4170  0.0430  0.4243
   25CHL1  H27A 1848   0.541   0.782   4.283  2.1283  1.4052 -2.5559
   25CHL1  H27B 1849   0.637   0.931   4.314 -1.4573  0.5274  0.4271
   25CHL1  H27C 1850   0.688   0.786   4.392 -1.2656 -2.4414 -1.0732
   26CHL1    C3 1851   2.421   0.109   5.610  0.1228 -0.0174 -0.2491
   26CHL1    H3 1852   2.512   0.053   5.580 -1.3084 -3.4773  1.2560
   26CHL1    O3 1853   2.427   0.123   5.751  0.2659  0.1182 -0.1969
   26CHL1   H3' 1854   2.334   0.125   5.774 -0.3120  0.9895 -2.3502
   26CHL1    C4 1855   2.406   0.251   5.536 -0.6048  0.1894  0.1203
   26CHL1   H4A 1856   2.324   0.307   5.585 -1.1986  0.8897 -1.5824
   26CHL1   H4B 1857   2.504   0.300   5.555 -0.2321 -1.0205  1.4602
   26CHL1    C5 1858   2.382   0.235   5.389  0.2521  0.8128 -0.4831
   26CHL1    C6 1859   2.460   0.297   5.296 -0.3099  0.1292 -0.0809
   26CHL1    H6 1860   2.541   0.361   5.335  0.0532 -0.9990  1.0751
   26CHL1    C7 1861   2.437   0.298   5.146 -0.2656 -0.1505  0.9292
   26CHL1   H7A 1862   2.453   0.403   5.113  0.5008 -0.0741  1.5114
   26CHL1   H7B 1863   2.514   0.237   5.094 -0.8400  0.2684 -0.4577
   26CHL1    C8 1864   2.298   0.249   5.107 -0.5581  0.0950 -0.4181
   26CHL1    H8 1865   2.213   0.315   5.134 -1.2913 -1.6904  1.8999
   26CHL1   C14 1866   2.287   0.224   4.956 -0.4336  0.4541  0.1344
   26CHL1   H14 1867   2.364   0.147   4.933 -0.6553 -0.6098  2.6454
   26CHL1   C15 1868   2.310   0.350   4.866 -0.2174  0.2819 -0.7758
   26CHL1  H15A 1869   2.241   0.431   4.900  0.5176  0.7195 -0.2892
   26CHL1  H15B 1870   2.407   0.403   4.865 -0.1165  0.1290 -2.7155
   26CHL1   C16 1871   2.257   0.306   4.729 -0.1244 -0.3534 -0.0089
   26CHL1  H16A 1872   2.190   0.383   4.687 -1.0402 -1.5653 -0.8318
   26CHL1  H16B 1873   2.347   0.283   4.667  0.4466  0.6348  0.4431
   26CHL1   C17 1874   2.189   0.163   4.755  0.1417  0.0310  0.4023
   26CHL1   H17 1875   2.274   0.096   4.734 -0.1126 -0.2932  0.3969
   26CHL1   C13 1876   2.160   0.155   4.899 -0.3391 -0.4262 -0.3902
   26CHL1   C18 1877   2.036   0.242   4.924 -0.3149 -0.5187  0.2474
   26CHL1  H18A 1878   1.946   0.197   4.876 -2.7950  1.1829  2.9735
   26CHL1  H18B 1879   2.010   0.254   5.031 -3.3097 -0.2759 -0.4060
   26CHL1  H18C 1880   2.042   0.349   4.891  0.3233 -0.6799 -0.1870
   26CHL1   C12 1881   2.134   0.026   4.972  0.2492 -0.0670  0.0182
   26CHL1  H12A 1882   2.042  -0.031   4.948  0.4200 -1.7734  2.9180
   26CHL1  H12B 1883   2.215  -0.038   4.931  0.0106  0.0258 -0.6127
   26CHL1   C11 1884   2.142   0.045   5.127 -0.8573  0.8945  0.5158
   26CHL1  H11A 1885   2.046   0.087   5.164 -1.8989 -0.6492 -0.3508
   26CHL1  H11B 1886   2.142  -0.058   5.168  3.3384  0.0517 -1.0943
   26CHL1    C9 1887   2.266   0.120   5.187 -0.4880  0.2082  0.3312
   26CHL1    H9 1888   2.350   0.051   5.162  0.8492  1.7196  0.4600
   26CHL1   C10 1889   2.262   0.158   5.346  0.6779 -0.2955 -0.1890
   26CHL1   C19 1890   2.130   0.234   5.391  0.6978 -0.2101  0.0906
   26CHL1  H19A 1891   2.040   0.173   5.374  0.8504 -0.0531 -1.4668
   26CHL1  H19B 1892   2.127   0.258   5.500 -0.0401 -0.8803  0.2209
   26CHL1  H19C 1893   2.116   0.324   5.326  1.3627 -0.0629  0.1421
   26CHL1    C1 1894   2.274   0.022   5.415 -0.0860 -0.8412 -0.3765
   26CHL1   H1A 1895   2.183  -0.035   5.386 -2.7502  2.1290  1.3669
   26CHL1   H1B 1896   2.356  -0.028   5.361  0.2462 -0.2423 -0.4290
   26CHL1    C2 1897   2.301   0.022   5.566  0.3079  0.5111 -0.4471
   26CHL1   H2A 1898   2.340  -0.081   5.577  1.8235  0.7204 -3.0136
   26CHL1   H2B 1899   2.213   0.042   5.630  1.5597  0.7496  1.2643
   26CHL1   C20 1900   2.074   0.127   4.658  0.1807 -0.6200 -0.7548
   26CHL1   H20 1901   2.005   0.213   4.646  1.0788 -0.1470 -2.9791
   26CHL1   C21 1902   1.984   0.009   4.683 -0.4070  0.2365  0.5753
   26CHL1  H21A 1903   1.917  -0.015   4.598  1.1331  3.1705 -1.6503
   26CHL1  H21B 1904   1.932   0.011   4.781 -3.0306 -0.2880 -0.7167
   26CHL1  H21C 1905   2.050  -0.081   4.684 -0.6537  0.0613  1.2151
   26CHL1   C22 1906   2.144   0.126   4.510  0.7766  0.3355 -0.6185
   26CHL1  H22A 1907   2.174   0.229   4.481  2.8215  0.5792  2.0276
   26CHL1  H22B 1908   2.232   0.060   4.526  0.1014 -0.2588  0.7922
   26CHL1   C23 1909   2.063   0.076   4.388 -0.2086  1.1025 -0.5412
   26CHL1  H23A 1910   2.028  -0.026   4.415  0.0973  0.9848 -0.5911
   26CHL1  H23B 1911   1.976   0.143   4.369  0.1857  2.5962  2.3829
   26CHL1   C24 1912   2.146   0.072   4.265 -0.1564  0.7197  0.6872
   26CHL1  H24A 1913   2.230   0.145   4.261 -0.4356  1.1128  1.6222
   26CHL1  H24B 1914   2.193  -0.028   4.278 -3.3087 -1.4010 -2.4730
   26CHL1   C25 1915   2.067   0.067   4.127 -0.5060  0.3216 -0.0912
   26CHL1   H25 1916   2.148   0.060   4.050 -1.1245  1.2656 -0.8550
   26CHL1   C26 1917   1.976  -0.054   4.124  0.4795 -0.1867 -0.1732
   26CHL1  H26A 1918   1.932  -0.074   4.024  0.1879  1.4301 -0.3976
   26CHL1  H26B 1919   2.032  -0.146   4.153 -1.1526 -1.1105  0.2054
   26CHL1  H26C 1920   1.885  -0.051   4.189  0.0161  1.2668 -0.8449
   26CHL1   C27 1921   1.995   0.201   4.107  0.1841 -0.0069  0.2691
   26CHL1  H27A 1922   1.920   0.201   4.189  1.0750 -0.5098  1.1100
   26CHL1  H27B 1923   2.079   0.270   4.128  0.7739 -1.1827  1.9940
   26CHL1  H27C 1924   1.955   0.206   4.003  1.2239  0.5231 -0.1241
   27CHL1    C3 1925   0.972   6.783   5.355 -0.4838  0.0708  0.4023
   27CHL1    H3 1926   0.973   6.889   5.320 -1.0647  0.9362  2.8016
   27CHL1    O3 1927   0.926   6.791   5.486 -0.2413 -0.1642  0.1869
   27CHL1   H3' 1928   0.890   6.704   5.503 -1.3009  0.2436  0.1055
   27CHL1    C4 1929   0.877   6.693   5.275 -1.1282  0.1409 -1.3433
   27CHL1   H4A 1930   0.894   6.592   5.319 -0.9644 -0.1609 -2.0981
   27CHL1   H4B 1931   0.770   6.719   5.291 -1.2396  0.3591 -2.4020
   27CHL1    C5 1932   0.923   6.705   5.129 -0.2017  0.2717  0.2013
   27CHL1    C6 1933   0.839   6.751   5.035  0.0954  0.1526 -0.4079
   27CHL1    H6 1934   0.738   6.792   5.052  0.0396  1.1797 -2.7607
   27CHL1    C7 1935   0.870   6.765   4.888  0.3045 -0.9263  0.5184
   27CHL1   H7A 1936   0.782   6.735   4.827 -1.0274 -1.0711  2.4285
   27CHL1   H7B 1937   0.894   6.872   4.870 -2.2989 -0.7378 -2.8858
   27CHL1    C8 1938   0.990   6.666   4.863 -0.8885  0.4466  0.0005
   27CHL1    H8 1939   0.947   6.563   4.864 -0.7684  0.3972  0.3534
   27CHL1   C14 1940   1.038   6.699   4.719  0.6044 -1.1806  0.2051
   27CHL1   H14 1941   1.068   6.805   4.732 -2.9874  0.2254 -1.5420
   27CHL1   C15 1942   0.941   6.705   4.597 -0.2844 -0.4589 -0.4334
   27CHL1  H15A 1943   0.856   6.643   4.632 -1.0635  1.4164  1.1836
   27CHL1  H15B 1944   0.892   6.805   4.590 -0.3880 -0.3119  1.5532
   27CHL1   C16 1945   1.027   6.671   4.476 -0.1014  0.0360  0.2374
   27CHL1  H16A 1946   0.980   6.576   4.444 -1.0168 -0.1876  2.1086
   27CHL1  H16B 1947   1.018   6.745   4.394  0.7279  0.6189  0.6511
   27CHL1   C17 1948   1.170   6.651   4.531  0.2511  0.0546 -0.2285
   27CHL1   H17 1949   1.217   6.750   4.547  1.0975 -0.3810  0.0848
   27CHL1   C13 1950   1.151   6.602   4.676  0.3789 -0.7809  0.5298
   27CHL1   C18 1951   1.102   6.449   4.675  0.3330  0.3813 -0.3423
   27CHL1  H18A 1952   1.020   6.429   4.602  0.2215 -0.8611  0.0928
   27CHL1  H18B 1953   1.183   6.376   4.654  0.5807  0.8064 -0.8650
   27CHL1  H18C 1954   1.067   6.432   4.779  3.3118 -0.7710  0.5683
   27CHL1   C12 1955   1.269   6.637   4.765  1.2340  0.3470  0.3226
   27CHL1  H12A 1956   1.361   6.579   4.743 -0.4918 -2.4159 -0.1293
   27CHL1  H12B 1957   1.282   6.747   4.759 -0.7490  0.8249  2.7738
   27CHL1   C11 1958   1.240   6.612   4.910  0.0465 -0.1342  0.3113
   27CHL1  H11A 1959   1.227   6.502   4.917  1.2473 -0.2924  0.2869
   27CHL1  H11B 1960   1.321   6.644   4.980 -0.6070  2.0498  0.1464
   27CHL1    C9 1961   1.107   6.688   4.960 -0.2516 -0.2557 -0.5817
   27CHL1    H9 1962   1.131   6.796   4.964 -0.1716 -0.2817 -0.3662
   27CHL1   C10 1963   1.068   6.659   5.111 -0.0036 -0.7508  0.7933
   27CHL1   C19 1964   1.089   6.507   5.137  0.0912 -0.0767  0.4335
   27CHL1  H19A 1965   1.196   6.478   5.148  0.5729  0.5450 -2.0809
   27CHL1  H19B 1966   1.053   6.491   5.241  0.6625  1.8537  0.9698
   27CHL1  H19C 1967   1.027   6.443   5.070 -0.9890  1.1037  0.2837
   27CHL1    C1 1968   1.169   6.732   5.207 -0.3763  0.3800  1.4402
   27CHL1   H1A 1969   1.269   6.685   5.197  0.0545  1.6144 -1.0038
   27CHL1   H1B 1970   1.178   6.838   5.175  0.8469  0.2939  1.4565
   27CHL1    C2 1971   1.118   6.739   5.345  0.0321  0.3011 -0.5301
   27CHL1   H2A 1972   1.173   6.813   5.406  0.4772  3.5543 -4.4692
   27CHL1   H2B 1973   1.135   6.637   5.387 -0.7184  0.6379  0.6186
   27CHL1   C20 1974   1.261   6.569   4.437  0.6204  0.2549  0.0403
   27CHL1   H20 1975   1.216   6.469   4.425 -1.6484  1.0980  1.0205
   27CHL1   C21 1976   1.403   6.547   4.497 -0.4462  0.9811  0.3782
   27CHL1  H21A 1977   1.450   6.643   4.527  0.1541  0.3432  1.5895
   27CHL1  H21B 1978   1.467   6.503   4.418 -0.2671 -0.4018  1.2626
   27CHL1  H21C 1979   1.398   6.458   4.564 -2.3081  0.1301 -0.8012
   27CHL1   C22 1980   1.257   6.617   4.299 -0.5206  0.1672 -0.6372
   27CHL1  H22A 1981   1.328   6.560   4.235 -0.1524 -0.6639  0.4668
   27CHL1  H22B 1982   1.153   6.600   4.265  0.0700 -2.3796 -1.4310
   27CHL1   C23 1983   1.294   6.768   4.281  0.2315  0.0757  0.3534
   27CHL1  H23A 1984   1.252   6.839   4.356  0.4215  1.1658 -0.5510
   27CHL1  H23B 1985   1.404   6.774   4.290  0.5153 -2.5789 -0.3167
   27CHL1   C24 1986   1.266   6.823   4.139  0.2370 -0.3714  0.0359
   27CHL1  H24A 1987   1.156   6.816   4.124  0.5736 -0.8263 -2.5444
   27CHL1  H24B 1988   1.301   6.928   4.140  0.6985 -0.5092 -0.7622
   27CHL1   C25 1989   1.346   6.750   4.030  0.7622 -0.6238 -0.9414
   27CHL1   H25 1990   1.329   6.641   4.043 -0.8228 -0.1619  1.7384
   27CHL1   C26 1991   1.290   6.784   3.889  0.1785 -0.6025 -0.4085
   27CHL1  H26A 1992   1.179   6.779   3.877  0.2774 -2.0454 -0.9271
   27CHL1  H26B 1993   1.320   6.887   3.862  0.8416 -0.7039 -0.0604
   27CHL1  H26C 1994   1.323   6.714   3.808 -1.6553 -1.8925 -0.1185
   27CHL1   C27 1995   1.492   6.802   4.031 -0.4376 -0.2737 -0.7198
   27CHL1  H27A 1996   1.538   6.774   4.129 -2.4410 -1.0807  0.0601
   27CHL1  H27B 1997   1.542   6.775   3.936  1.4141 -0.2930  0.2025
   27CHL1  H27C 1998   1.499   6.912   4.027  0.1653 -0.1523  1.7078
   28CHL1    C3 1999   1.094   0.647   5.911 -0.1480  0.1877 -0.3741
   28CHL1    H3 2000   1.090   0.561   5.841 -1.2167  0.1351 -0.2579
   28CHL1    O3 2001   1.186   0.616   6.010  0.1142  0.4694 -1.2433
   28CHL1   H3' 2002   1.268   0.659   5.985  0.3527  1.2541  0.6816
   28CHL1    C4 2003   1.153   0.769   5.830 -0.0352  0.1340 -0.3476
   28CHL1   H4A 2004   1.180   0.842   5.909 -0.9388  0.6605 -0.5023
   28CHL1   H4B 2005   1.250   0.731   5.793 -0.8601 -1.0220 -1.3966
   28CHL1    C5 2006   1.076   0.831   5.721  0.0247 -1.1225  0.2794
   28CHL1    C6 2007   1.131   0.851   5.597 -0.2219 -0.3343 -0.9142
   28CHL1    H6 2008   1.235   0.818   5.591 -0.1390 -0.5091  1.0268
   28CHL1    C7 2009   1.057   0.904   5.473 -0.3916  0.3884 -0.4621
   28CHL1   H7A 2010   1.120   0.983   5.426 -0.1594  0.7209  0.3817
   28CHL1   H7B 2011   1.049   0.816   5.406  0.0740  0.8520 -1.1406
   28CHL1    C8 2012   0.920   0.962   5.511 -0.0395 -1.1382  0.3031
   28CHL1    H8 2013   0.930   1.066   5.548 -2.8596 -1.2871  1.7764
   28CHL1   C14 2014   0.833   0.970   5.395  0.2951 -0.6647  0.3784
   28CHL1   H14 2015   0.819   0.865   5.361 -0.4063 -0.2574 -0.6559
   28CHL1   C15 2016   0.897   1.033   5.280 -0.7897 -0.4739  0.1964
   28CHL1  H15A 2017   0.927   1.134   5.313 -0.1916 -0.7541  0.5156
   28CHL1  H15B 2018   0.977   0.971   5.234 -1.3058 -3.1408  2.6046
   28CHL1   C16 2019   0.772   1.043   5.182  0.0372  0.3388  0.5199
   28CHL1  H16A 2020   0.751   1.147   5.150 -2.9695 -0.2609  0.1821
   28CHL1  H16B 2021   0.785   0.977   5.093 -0.7544  1.1178 -0.1910
   28CHL1   C17 2022   0.643   1.009   5.263  0.0984 -0.4731 -0.2772
   28CHL1   H17 2023   0.619   0.901   5.251  2.0322 -1.2611  2.1145
   28CHL1   C13 2024   0.692   1.024   5.412  0.4131  0.1406 -0.3813
   28CHL1   C18 2025   0.698   1.179   5.441  0.8238  0.3696  0.3171
   28CHL1  H18A 2026   0.595   1.220   5.443  0.1755 -1.2127  0.6326
   28CHL1  H18B 2027   0.755   1.195   5.535  1.6583  2.0324 -0.4332
   28CHL1  H18C 2028   0.749   1.233   5.358 -0.5312  1.4160  0.1336
   28CHL1   C12 2029   0.614   0.953   5.519 -0.1493  0.2132 -0.0911
   28CHL1  H12A 2030   0.516   0.997   5.543 -0.8468 -0.8295 -0.9381
   28CHL1  H12B 2031   0.595   0.856   5.468 -0.9728  1.1056 -1.5486
   28CHL1   C11 2032   0.699   0.939   5.648  0.5068 -0.0687  0.4290
   28CHL1  H11A 2033   0.692   1.034   5.705 -0.1964 -0.9282  1.8373
   28CHL1  H11B 2034   0.643   0.858   5.700 -0.9357  0.0341 -0.9223
   28CHL1    C9 2035   0.844   0.886   5.621  0.1648  0.1137  0.3335
   28CHL1    H9 2036   0.825   0.786   5.575  0.8506 -0.5937  1.5223
   28CHL1   C10 2037   0.926   0.856   5.747 -0.6228 -0.0669 -0.0261
   28CHL1   C19 2038   0.925   0.984   5.835  0.3942 -0.6489  0.1715
   28CHL1  H19A 2039   0.956   1.074   5.778 -1.6839  0.5873  0.8813
   28CHL1  H19B 2040   0.824   1.009   5.875  0.9077  1.2476  0.3254
   28CHL1  H19C 2041   0.994   0.981   5.922 -0.5720  1.8693  1.1054
   28CHL1    C1 2042   0.872   0.737   5.830 -0.2642 -0.4624 -0.0142
   28CHL1   H1A 2043   0.768   0.753   5.867 -0.4752  0.8999 -1.1286
   28CHL1   H1B 2044   0.861   0.650   5.762 -0.2283 -0.1850 -0.3787
   28CHL1    C2 2045   0.952   0.695   5.953  0.3036  0.1844 -0.3438
   28CHL1   H2A 2046   0.899   0.618   6.013 -3.4216  2.5597 -0.2535
   28CHL1   H2B 2047   0.955   0.775   6.030 -1.5915  1.0796 -1.1357
   28CHL1   C20 2048   0.522   1.087   5.203 -0.1259  0.4509 -0.9319
   28CHL1   H20 2049   0.547   1.195   5.212  0.0791  0.3811 -0.6580
   28CHL1   C21 2050   0.399   1.067   5.292  0.6204  0.9089  0.2119
   28CHL1  H21A 2051   0.307   1.111   5.246 -0.1270  1.6774  2.3391
   28CHL1  H21B 2052   0.407   1.117   5.390  0.1858  0.9231  0.2425
   28CHL1  H21C 2053   0.388   0.956   5.296  2.7630  0.4910 -2.4325
   28CHL1   C22 2054   0.481   1.068   5.051 -0.3652  0.3034 -0.1796
   28CHL1  H22A 2055   0.445   0.967   5.023 -1.6672  1.4095 -2.8326
   28CHL1  H22B 2056   0.407   1.148   5.030  1.7859  2.3152 -0.5471
   28CHL1   C23 2057   0.583   1.105   4.942  0.1336 -0.3678 -0.0915
   28CHL1  H23A 2058   0.679   1.049   4.941  0.4350  0.1373  0.1005
   28CHL1  H23B 2059   0.534   1.072   4.848  0.3644 -1.8040  0.2660
   28CHL1   C24 2060   0.615   1.258   4.937 -0.5933 -0.5741 -0.5670
   28CHL1  H24A 2061   0.525   1.312   4.900 -1.3894 -2.0816 -0.9191
   28CHL1  H24B 2062   0.633   1.295   5.040  0.2006  0.2106 -0.9708
   28CHL1   C25 2063   0.741   1.288   4.855 -0.0003 -0.2311  0.8220
   28CHL1   H25 2064   0.834   1.237   4.889  0.4655  1.0607  1.5579
   28CHL1   C26 2065   0.712   1.250   4.710  0.1761  0.5317 -0.2546
   28CHL1  H26A 2066   0.713   1.140   4.695  0.3955  0.0502  2.6949
   28CHL1  H26B 2067   0.618   1.300   4.677 -0.7987 -1.5412 -0.7701
   28CHL1  H26C 2068   0.791   1.291   4.643  0.2000  0.7033 -0.1210
   28CHL1   C27 2069   0.773   1.442   4.854 -0.1192  0.7217 -0.1371
   28CHL1  H27A 2070   0.857   1.466   4.785 -1.5862 -0.3632 -2.4157
   28CHL1  H27B 2071   0.680   1.500   4.837 -0.7091 -0.6223 -1.8308
   28CHL1  H27C 2072   0.802   1.473   4.957  1.3599 -1.5631  0.1953
   29CHL1    C3 2073   3.647   3.143   2.460 -0.1522  0.5778  0.1958
   29CHL1    H3 2074   3.603   3.235   2.505 -1.5717 -0.8070  1.8123
   29CHL1    O3 2075   3.666   3.176   2.320 -0.2460 -0.9556  0.2565
   29CHL1   H3' 2076   3.579   3.178   2.280  0.2060  0.0406 -0.7400
   29CHL1    C4 2077   3.768   3.101   2.539 -0.5231  0.3078  0.6832
   29CHL1   H4A 2078   3.820   3.022   2.481 -0.3273 -0.0609  1.3453
   29CHL1   H4B 2079   3.825   3.197   2.537 -2.1663  1.3175  0.1352
   29CHL1    C5 2080   3.745   3.052   2.681 -0.4393 -0.4900 -0.6022
   29CHL1    C6 2081   3.816   3.102   2.780  0.1270  0.4370 -0.2412
   29CHL1    H6 2082   3.896   3.172   2.753  1.4371 -1.0868 -0.4149
   29CHL1    C7 2083   3.798   3.070   2.926  0.0155 -0.9047 -0.7165
   29CHL1   H7A 2084   3.889   3.054   2.987 -0.8520  0.3922  0.9905
   29CHL1   H7B 2085   3.753   3.157   2.979  1.5739  0.0688 -0.9312
   29CHL1    C8 2086   3.717   2.940   2.939  0.3797  0.1323 -0.0552
   29CHL1    H8 2087   3.780   2.852   2.912 -2.0066 -1.8030  0.3585
   29CHL1   C14 2088   3.681   2.913   3.080 -0.2368  0.0663 -0.5915
   29CHL1   H14 2089   3.622   3.001   3.115  1.0133  0.2692  1.1471
   29CHL1   C15 2090   3.796   2.918   3.181 -0.2412 -0.5525  0.2493
   29CHL1  H15A 2091   3.877   2.852   3.142  1.2697  1.1892  0.3456
   29CHL1  H15B 2092   3.850   3.015   3.187  2.3902 -1.8799 -0.2242
   29CHL1   C16 2093   3.737   2.874   3.314 -0.2037  0.5948 -0.4028
   29CHL1  H16A 2094   3.811   2.810   3.366 -0.5117 -1.1229 -1.9712
   29CHL1  H16B 2095   3.728   2.970   3.369  0.5762  1.2760 -1.4246
   29CHL1   C17 2096   3.596   2.804   3.274  0.1338  0.5511 -0.0408
   29CHL1   H17 2097   3.517   2.882   3.285 -2.0464 -0.7291 -4.3654
   29CHL1   C13 2098   3.598   2.788   3.110  0.3751  0.1505 -0.8257
   29CHL1   C18 2099   3.668   2.660   3.066 -0.7853  0.1431  0.6885
   29CHL1  H18A 2100   3.735   2.634   3.151 -0.8285  1.5417  1.1755
   29CHL1  H18B 2101   3.594   2.579   3.053  0.6078 -1.3270  1.5457
   29CHL1  H18C 2102   3.722   2.671   2.970  1.0894 -0.9840  1.5435
   29CHL1   C12 2103   3.465   2.816   3.036 -0.2568  0.4328 -0.5904
   29CHL1  H12A 2104   3.399   2.727   3.044  1.2428 -0.5802  1.4451
   29CHL1  H12B 2105   3.421   2.911   3.073 -1.1415  0.3159 -1.3136
   29CHL1   C11 2106   3.491   2.837   2.887  0.0902 -0.1809  0.4506
   29CHL1  H11A 2107   3.522   2.736   2.852  1.4244  0.1995  0.4713
   29CHL1  H11B 2108   3.393   2.869   2.845 -0.1072  2.0888  2.4280
   29CHL1    C9 2109   3.595   2.945   2.854 -0.1809 -0.6614 -0.6240
   29CHL1    H9 2110   3.549   3.043   2.882 -1.9850 -1.3862 -0.9158
   29CHL1   C10 2111   3.632   2.952   2.704 -0.1418  0.0365  0.0984
   29CHL1   C19 2112   3.673   2.814   2.656  0.0338 -0.0920 -0.2106
   29CHL1  H19A 2113   3.747   2.770   2.727 -0.6790  2.1273  2.0437
   29CHL1  H19B 2114   3.587   2.746   2.673 -0.6282  0.9778  0.9446
   29CHL1  H19C 2115   3.711   2.806   2.552  0.3256  0.3796 -0.1425
   29CHL1    C1 2116   3.508   3.014   2.631 -0.2409  0.1007  0.4005
   29CHL1   H1A 2117   3.426   2.939   2.639 -0.2626 -0.1930 -1.9886
   29CHL1   H1B 2118   3.478   3.111   2.675 -0.4289  1.6637 -2.8962
   29CHL1    C2 2119   3.538   3.034   2.478 -0.0008 -0.1129  0.8249
   29CHL1   H2A 2120   3.445   3.071   2.428 -0.0557 -0.7822  0.4101
   29CHL1   H2B 2121   3.557   2.940   2.421 -3.4242  1.7769 -4.1288
   29CHL1   C20 2122   3.560   2.679   3.356 -0.0714  0.0522 -0.5658
   29CHL1   H20 2123   3.639   2.602   3.338  0.7971  0.4919  1.1333
   29CHL1   C21 2124   3.421   2.624   3.313  0.6765  0.4779 -0.4519
   29CHL1  H21A 2125   3.407   2.617   3.203  1.2903  1.0007 -0.5684
   29CHL1  H21B 2126   3.342   2.695   3.346 -1.3833 -1.9697  0.1647
   29CHL1  H21C 2127   3.405   2.526   3.363  1.4165  0.3650 -0.4274
   29CHL1   C22 2128   3.566   2.710   3.508 -0.3472  0.4808 -0.5983
   29CHL1  H22A 2129   3.663   2.744   3.549  0.1152 -0.0591 -1.2232
   29CHL1  H22B 2130   3.481   2.780   3.525 -0.7946 -0.5483  1.9319
   29CHL1   C23 2131   3.528   2.595   3.596  0.0659  0.5256  0.3424
   29CHL1  H23A 2132   3.525   2.625   3.703  1.4886  0.8632  0.3011
   29CHL1  H23B 2133   3.427   2.554   3.573 -0.6469  1.2169  2.0789
   29CHL1   C24 2134   3.642   2.486   3.598  0.3905  0.6345  0.1118
   29CHL1  H24A 2135   3.603   2.412   3.672  0.6186  0.7151  0.3135
   29CHL1  H24B 2136   3.645   2.439   3.498  2.2166 -1.7090  1.1495
   29CHL1   C25 2137   3.779   2.523   3.650  0.0910  0.3774 -0.0176
   29CHL1   H25 2138   3.815   2.618   3.606  0.1633 -1.5446 -4.7479
   29CHL1   C26 2139   3.787   2.563   3.799 -0.7412 -0.1965  0.5889
   29CHL1  H26A 2140   3.719   2.647   3.822 -2.0443 -1.8272  3.1969
   29CHL1  H26B 2141   3.772   2.479   3.870  3.4341  0.2735  2.3429
   29CHL1  H26C 2142   3.885   2.612   3.818 -0.7791  0.2439 -0.3176
   29CHL1   C27 2143   3.883   2.419   3.623 -0.1973  0.1998  0.5953
   29CHL1  H27A 2144   3.851   2.315   3.645  0.4263  0.0192  0.6691
   29CHL1  H27B 2145   3.914   2.424   3.517  0.1074  0.9378  0.7143
   29CHL1  H27C 2146   3.980   2.448   3.669 -0.5057  0.8437  0.8482
   30CHL1    C3 2147   3.673   5.095   2.712  0.0933 -0.0306  0.4962
   30CHL1    H3 2148   3.783   5.095   2.703 -0.0733 -0.4762 -3.1207
   30CHL1    O3 2149   3.619   5.176   2.607  0.5940 -0.3705  0.7725
   30CHL1   H3' 2150   3.556   5.228   2.657  2.4070  0.2453  2.5839
   30CHL1    C4 2151   3.618   4.949   2.701  0.0374 -0.1053 -0.5049
   30CHL1   H4A 2152   3.507   4.949   2.702 -0.0076 -2.4544 -0.1310
   30CHL1   H4B 2153   3.656   4.908   2.605 -1.0050  2.2720 -2.0176
   30CHL1    C5 2154   3.673   4.868   2.816 -0.2902 -0.3581 -0.5246
   30CHL1    C6 2155   3.730   4.752   2.785  0.6945 -0.0317  0.6548
   30CHL1    H6 2156   3.725   4.718   2.681 -1.1685  0.1061  0.6748
   30CHL1    C7 2157   3.784   4.658   2.886 -0.1565 -0.4270 -0.5342
   30CHL1   H7A 2158   3.735   4.560   2.866 -1.8460 -0.0464  1.4350
   30CHL1   H7B 2159   3.895   4.652   2.876  0.1602  0.0046  2.1101
   30CHL1    C8 2160   3.756   4.696   3.036 -0.0805 -0.3751  0.4104
   30CHL1    H8 2161   3.653   4.657   3.051  0.4318 -1.4631  1.2058
   30CHL1   C14 2162   3.852   4.626   3.136  0.1408 -0.3347  0.0343
   30CHL1   H14 2163   3.950   4.676   3.124  0.3589 -0.9304 -0.7625
   30CHL1   C15 2164   3.878   4.475   3.131 -0.8546  1.2536  0.2342
   30CHL1  H15A 2165   3.797   4.411   3.091  0.8149 -0.1881 -1.0420
   30CHL1  H15B 2166   3.960   4.461   3.057 -0.0972 -0.1502  1.2710
   30CHL1   C16 2167   3.939   4.432   3.275  0.4103  0.3688  0.6685
   30CHL1  H16A 2168   3.866   4.365   3.324 -0.3836  0.3386 -0.5023
   30CHL1  H16B 2169   4.038   4.381   3.273  0.6108  0.7077 -1.6222
   30CHL1   C17 2170   3.938   4.570   3.350  0.5896 -0.8444  0.0186
   30CHL1   H17 2171   4.035   4.610   3.315  0.4968 -1.4131 -0.9224
   30CHL1   C13 2172   3.821   4.659   3.282  0.2577 -0.3963 -0.3771
   30CHL1   C18 2173   3.682   4.597   3.311  0.4690 -0.3236 -0.5465
   30CHL1  H18A 2174   3.673   4.491   3.277 -0.2616  0.3848 -2.7757
   30CHL1  H18B 2175   3.677   4.600   3.421  0.4598  0.2504 -0.5583
   30CHL1  H18C 2176   3.603   4.663   3.269  2.6128  2.7143 -0.1508
   30CHL1   C12 2177   3.822   4.814   3.315 -0.2936  0.1507 -0.2961
   30CHL1  H12A 2178   3.773   4.832   3.414  2.3400 -2.8457  1.7546
   30CHL1  H12B 2179   3.927   4.848   3.320 -0.0273 -0.7969  2.2139
   30CHL1   C11 2180   3.754   4.897   3.206  0.4972  0.3053  0.4950
   30CHL1  H11A 2181   3.647   4.915   3.233  0.6170  1.6552  0.1488
   30CHL1  H11B 2182   3.798   4.999   3.201  0.2888  0.3459 -1.0805
   30CHL1    C9 2183   3.764   4.849   3.057  0.4164  0.8838  0.4088
   30CHL1    H9 2184   3.863   4.878   3.017  0.2024  0.0558 -0.7738
   30CHL1   C10 2185   3.664   4.922   2.958 -0.3373  0.3954  0.2543
   30CHL1   C19 2186   3.513   4.915   3.001  0.8328 -0.1262  0.5166
   30CHL1  H19A 2187   3.499   4.976   3.093 -1.8108 -0.9258  0.7279
   30CHL1  H19B 2188   3.443   4.958   2.925  1.0099 -0.2937  0.2574
   30CHL1  H19C 2189   3.484   4.808   3.005  1.3137 -0.2274  1.4929
   30CHL1    C1 2190   3.695   5.071   2.957 -0.4682  0.1328  0.2002
   30CHL1   H1A 2191   3.672   5.115   3.057  0.6545  1.4988 -0.1087
   30CHL1   H1B 2192   3.804   5.087   2.950 -0.7183  1.4767 -1.1605
   30CHL1    C2 2193   3.639   5.158   2.843  0.2916  0.4107 -0.0764
   30CHL1   H2A 2194   3.678   5.261   2.856 -3.7678  1.9485  1.3502
   30CHL1   H2B 2195   3.529   5.174   2.843  0.2615  0.2914  1.0774
   30CHL1   C20 2196   3.935   4.568   3.497 -0.7617  0.6299 -0.1036
   30CHL1   H20 2197   3.877   4.656   3.534  0.0969  1.1726 -0.0176
   30CHL1   C21 2198   4.080   4.585   3.553  0.2257 -1.0508 -0.9448
   30CHL1  H21A 2199   4.149   4.503   3.521  1.3304 -1.7325  2.7137
   30CHL1  H21B 2200   4.081   4.607   3.662  2.4548  0.9912 -1.3031
   30CHL1  H21C 2201   4.125   4.676   3.509 -1.2986  0.1174 -0.1626
   30CHL1   C22 2202   3.874   4.434   3.559 -0.5201  0.3690  0.2740
   30CHL1  H22A 2203   3.783   4.401   3.505  0.1358 -0.7782 -0.1716
   30CHL1  H22B 2204   3.951   4.357   3.538 -1.2225 -0.9695  2.3249
   30CHL1   C23 2205   3.850   4.454   3.704 -1.1773 -0.2306 -0.5978
   30CHL1  H23A 2206   3.940   4.464   3.768 -1.4536  0.1478 -0.2597
   30CHL1  H23B 2207   3.793   4.548   3.719 -0.0113  0.5810 -1.1040
   30CHL1   C24 2208   3.755   4.347   3.756 -0.2531  0.7038 -0.6791
   30CHL1  H24A 2209   3.735   4.357   3.865 -1.5228  0.7834 -0.9034
   30CHL1  H24B 2210   3.657   4.369   3.708 -0.8426  0.8185  0.5219
   30CHL1   C25 2211   3.803   4.204   3.747 -0.2400 -0.0874 -1.2108
   30CHL1   H25 2212   3.811   4.177   3.640  0.5295  0.0883 -1.1982
   30CHL1   C26 2213   3.946   4.187   3.803  0.0737  0.6531  0.1277
   30CHL1  H26A 2214   3.943   4.231   3.905 -3.7575  0.3541  0.2955
   30CHL1  H26B 2215   3.972   4.082   3.831  2.1353  0.8027 -1.0059
   30CHL1  H26C 2216   4.028   4.230   3.743  0.5276 -2.4489 -1.7175
   30CHL1   C27 2217   3.707   4.121   3.830  0.2289  0.2982  0.0043
   30CHL1  H27A 2218   3.604   4.108   3.791  0.0227  2.8058 -0.4696
   30CHL1  H27B 2219   3.759   4.025   3.853  1.3194  0.5395 -1.3419
   30CHL1  H27C 2220   3.700   4.161   3.934  2.9333  0.3777  0.2273
   31CHL1    C3 2221   3.182   4.388   2.569 -0.0445 -0.4367  0.4199
   31CHL1    H3 2222   3.225   4.490   2.581 -0.0837  0.5034 -5.0412
   31CHL1    O3 2223   3.159   4.366   2.428 -0.3295  0.1463  0.3313
   31CHL1   H3' 2224   3.135   4.274   2.414  3.6866 -0.9470 -0.9365
   31CHL1    C4 2225   3.278   4.283   2.619 -0.3416 -0.3269  0.7797
   31CHL1   H4A 2226   3.243   4.182   2.588 -1.1716 -0.1256  1.0413
   31CHL1   H4B 2227   3.363   4.310   2.553 -1.0107 -1.1692 -0.4555
   31CHL1    C5 2228   3.294   4.292   2.764 -1.2172 -0.1754  0.0112
   31CHL1    C6 2229   3.414   4.320   2.814 -0.2884  0.5941  0.1923
   31CHL1    H6 2230   3.494   4.332   2.740 -1.5936  1.1949 -1.1908
   31CHL1    C7 2231   3.445   4.329   2.960 -0.6324 -0.4067  0.5152
   31CHL1   H7A 2232   3.545   4.280   2.963 -0.0978  0.3769 -1.8754
   31CHL1   H7B 2233   3.458   4.436   2.985 -3.0811  0.2360 -0.6939
   31CHL1    C8 2234   3.338   4.262   3.043  0.3971  0.0308 -0.2015
   31CHL1    H8 2235   3.351   4.152   3.042  0.6684  0.0308  1.1311
   31CHL1   C14 2236   3.358   4.311   3.188 -0.1701  0.0043  0.0382
   31CHL1   H14 2237   3.363   4.422   3.185  0.4612  0.0229  1.3239
   31CHL1   C15 2238   3.487   4.263   3.257  0.0814 -0.3298 -0.6669
   31CHL1  H15A 2239   3.497   4.156   3.232  0.8726 -0.2679 -0.6468
   31CHL1  H15B 2240   3.582   4.314   3.230 -0.2242  2.2153  2.4056
   31CHL1   C16 2241   3.461   4.275   3.404  0.1128  0.2381 -1.0189
   31CHL1  H16A 2242   3.478   4.178   3.456 -3.5713 -0.0287 -0.0637
   31CHL1  H16B 2243   3.526   4.349   3.455  1.4659 -1.4578 -0.1684
   31CHL1   C17 2244   3.305   4.322   3.420  0.1864  0.3248  0.2417
   31CHL1   H17 2245   3.308   4.432   3.404 -0.1913  0.3615  0.4151
   31CHL1   C13 2246   3.243   4.268   3.291 -0.0002  0.3220  1.0431
   31CHL1   C18 2247   3.230   4.114   3.299 -0.1137  0.6855 -0.4698
   31CHL1  H18A 2248   3.168   4.070   3.381  1.2159 -0.9181 -0.2734
   31CHL1  H18B 2249   3.198   4.070   3.203 -2.8830  2.2865 -0.3766
   31CHL1  H18C 2250   3.322   4.061   3.333 -1.7827 -1.2333  1.3586
   31CHL1   C12 2251   3.110   4.336   3.239 -0.7401 -0.9232  0.1705
   31CHL1  H12A 2252   3.023   4.304   3.301  0.5336 -0.3139  2.3915
   31CHL1  H12B 2253   3.125   4.445   3.246  3.3118 -1.1942 -1.5110
   31CHL1   C11 2254   3.086   4.291   3.090 -0.3213  0.5593 -0.9931
   31CHL1  H11A 2255   3.066   4.182   3.078 -1.8026  0.8724 -1.6941
   31CHL1  H11B 2256   2.995   4.342   3.051 -1.4131 -1.7620 -1.6976
   31CHL1    C9 2257   3.203   4.320   2.993 -0.3114 -0.1970  0.1437
   31CHL1    H9 2258   3.218   4.430   3.004 -0.1903 -0.3682  2.2005
   31CHL1   C10 2259   3.173   4.284   2.845  0.6668 -0.3070 -0.8647
   31CHL1   C19 2260   3.127   4.135   2.834  0.2108  0.2773  0.0834
   31CHL1  H19A 2261   3.033   4.130   2.893 -0.4799 -0.0633 -1.0103
   31CHL1  H19B 2262   3.103   4.095   2.733 -1.8775  0.2786  0.5282
   31CHL1  H19C 2263   3.194   4.062   2.884 -1.8278 -1.7822  0.0016
   31CHL1    C1 2264   3.067   4.381   2.793 -0.0864  0.3524  0.4442
   31CHL1   H1A 2265   2.964   4.358   2.828 -0.5641  1.8960  0.1101
   31CHL1   H1B 2266   3.099   4.485   2.813  0.7351  0.1856  0.0682
   31CHL1    C2 2267   3.047   4.369   2.638 -1.2025  0.3295  0.4540
   31CHL1   H2A 2268   2.981   4.449   2.599  1.7387  2.1472 -1.2031
   31CHL1   H2B 2269   3.005   4.270   2.612 -0.4499 -0.0422  0.6378
   31CHL1   C20 2270   3.234   4.297   3.553  0.3696 -0.4286  0.0730
   31CHL1   H20 2271   3.184   4.199   3.542  0.0869 -0.0755 -2.2191
   31CHL1   C21 2272   3.112   4.399   3.576 -0.2020  0.6278 -0.0611
   31CHL1  H21A 2273   3.150   4.495   3.615 -0.6120 -0.1391  2.4032
   31CHL1  H21B 2274   3.046   4.341   3.645  0.4816 -0.5423 -0.3522
   31CHL1  H21C 2275   3.051   4.399   3.483 -1.1402 -1.2148  0.5088
   31CHL1   C22 2276   3.325   4.295   3.682  0.6246  0.3025  0.4208
   31CHL1  H22A 2277   3.396   4.211   3.662  0.0656  0.2208 -1.4132
   31CHL1  H22B 2278   3.382   4.389   3.695  0.7293  0.2613  0.2734
   31CHL1   C23 2279   3.251   4.270   3.808 -0.0560 -0.0348 -0.1249
   31CHL1  H23A 2280   3.179   4.352   3.824  0.5642  0.2475  1.4078
   31CHL1  H23B 2281   3.201   4.171   3.814  0.2641 -0.1436  1.2102
   31CHL1   C24 2282   3.356   4.282   3.924 -0.4575  0.2747  0.5901
   31CHL1  H24A 2283   3.438   4.210   3.903 -1.6056 -0.4918 -1.4697
   31CHL1  H24B 2284   3.379   4.391   3.926 -1.7075  0.5796 -0.4587
   31CHL1   C25 2285   3.305   4.250   4.069 -0.5454  0.0523  0.8403
   31CHL1   H25 2286   3.209   4.305   4.079 -0.2120  0.2707  3.3872
   31CHL1   C26 2287   3.281   4.105   4.086 -0.8582  0.6126  0.1122
   31CHL1  H26A 2288   3.228   4.084   4.181 -0.9640  2.0191  0.3752
   31CHL1  H26B 2289   3.220   4.062   4.004 -2.4244  0.4325  1.3314
   31CHL1  H26C 2290   3.381   4.058   4.094 -0.9112  0.6000  0.7039
   31CHL1   C27 2291   3.401   4.303   4.179 -0.5796 -0.1950  0.0911
   31CHL1  H27A 2292   3.358   4.295   4.281 -0.7853  0.1050  0.0275
   31CHL1  H27B 2293   3.493   4.241   4.166 -1.5514 -0.9926 -4.4572
   31CHL1  H27C 2294   3.416   4.412   4.165  0.3133 -0.4548 -1.1472
   32CHL1    C3 2295   3.140   2.458   2.492 -0.3595 -0.4359  0.1716
   32CHL1    H3 2296   3.226   2.389   2.476  0.8685  1.3249 -1.3069
   32CHL1    O3 2297   3.103   2.528   2.373 -0.0785  0.1376  0.5668
   32CHL1   H3' 2298   3.182   2.576   2.349 -1.3149  1.5401 -0.9219
   32CHL1    C4 2299   3.019   2.378   2.543  0.2760  0.3701  0.1666
   32CHL1   H4A 2300   2.925   2.436   2.553  0.5123  0.7299  0.3082
   32CHL1   H4B 2301   2.992   2.301   2.467  1.2020  0.1932  0.0076
   32CHL1    C5 2302   3.046   2.312   2.674  0.5817  0.1875 -0.5997
   32CHL1    C6 2303   3.031   2.176   2.692  0.0326 -0.2218 -0.2657
   32CHL1    H6 2304   3.002   2.119   2.602  0.4428  0.6435 -0.9666
   32CHL1    C7 2305   3.050   2.108   2.826  0.0410  0.3514 -0.3202
   32CHL1   H7A 2306   2.972   2.033   2.850  1.7445 -1.1632  0.7304
   32CHL1   H7B 2307   3.149   2.059   2.822 -0.3073 -0.3285 -0.8464
   32CHL1    C8 2308   3.054   2.209   2.949 -0.1952 -0.3620  0.1463
   32CHL1    H8 2309   2.949   2.244   2.961 -0.9667 -2.2396 -0.7393
   32CHL1   C14 2310   3.101   2.148   3.080 -0.1523  0.9304 -0.3913
   32CHL1   H14 2311   3.208   2.128   3.057  0.1411 -0.2467  1.7312
   32CHL1   C15 2312   3.034   2.020   3.128 -0.2717 -0.0963  0.0807
   32CHL1  H15A 2313   2.927   2.037   3.103 -0.5382 -1.0084  0.5575
   32CHL1  H15B 2314   3.072   1.936   3.067 -0.8519 -0.1135 -0.2635
   32CHL1   C16 2315   3.061   2.005   3.282 -0.2825  1.1725 -0.1329
   32CHL1  H16A 2316   2.966   1.994   3.339  0.5596  0.2711  1.1668
   32CHL1  H16B 2317   3.127   1.919   3.308  0.1709  2.2827  2.8882
   32CHL1   C17 2318   3.154   2.131   3.303  0.3650 -0.3747  0.3987
   32CHL1   H17 2319   3.248   2.086   3.265  0.1599 -1.6167  1.3210
   32CHL1   C13 2320   3.111   2.238   3.199  0.1914  0.1525  0.3708
   32CHL1   C18 2321   2.974   2.302   3.242 -0.2919 -0.2518  0.1404
   32CHL1  H18A 2322   2.981   2.358   3.337 -0.7406  2.2009 -1.2038
   32CHL1  H18B 2323   2.926   2.377   3.175  0.7653 -0.6515 -1.1169
   32CHL1  H18C 2324   2.901   2.219   3.258 -0.4097 -0.4755 -1.3882
   32CHL1   C12 2325   3.212   2.356   3.165 -0.1494  0.0105  0.4711
   32CHL1  H12A 2326   3.215   2.433   3.246  0.1694  1.7851 -1.1554
   32CHL1  H12B 2327   3.313   2.321   3.134 -0.9750  0.4533 -3.0876
   32CHL1   C11 2328   3.166   2.432   3.032  0.2079 -0.8508 -0.4553
   32CHL1  H11A 2329   3.069   2.478   3.058  0.7655  0.9715 -1.4185
   32CHL1  H11B 2330   3.248   2.503   3.007 -0.3801 -0.7414 -2.2021
   32CHL1    C9 2331   3.137   2.334   2.916  0.4669  0.2945 -0.0338
   32CHL1    H9 2332   3.237   2.293   2.891  0.6513  0.2065  0.8060
   32CHL1   C10 2333   3.090   2.405   2.785 -0.4629  0.1402  0.2807
   32CHL1   C19 2334   2.964   2.484   2.813  0.3601  0.2005  0.0368
   32CHL1  H19A 2335   2.974   2.564   2.890 -2.3171  0.3625  0.3207
   32CHL1  H19B 2336   2.921   2.529   2.721 -0.3163  0.5614  0.5141
   32CHL1  H19C 2337   2.877   2.423   2.845  1.2446 -0.8419  0.5047
   32CHL1    C1 2338   3.203   2.497   2.727  0.3316 -0.5035  0.2586
   32CHL1   H1A 2339   3.210   2.590   2.788 -1.0798 -1.0229  1.2752
   32CHL1   H1B 2340   3.297   2.439   2.711  0.9523  0.7681 -0.9251
   32CHL1    C2 2341   3.184   2.567   2.592  0.0496  0.0936 -0.4641
   32CHL1   H2A 2342   3.277   2.608   2.549 -2.2570  2.5718 -3.6018
   32CHL1   H2B 2343   3.100   2.640   2.593  0.2970  0.4680 -2.4991
   32CHL1   C20 2344   3.174   2.163   3.448 -0.0701 -0.2534 -0.1969
   32CHL1   H20 2345   3.077   2.174   3.499  0.8001  0.3895  1.3833
   32CHL1   C21 2346   3.255   2.296   3.474 -0.4945  0.1853 -0.3121
   32CHL1  H21A 2347   3.202   2.386   3.437 -0.0807  1.2653  1.5815
   32CHL1  H21B 2348   3.345   2.283   3.410 -0.7716  1.9938 -1.1311
   32CHL1  H21C 2349   3.285   2.307   3.580 -0.0843  0.8162 -0.4868
   32CHL1   C22 2350   3.253   2.054   3.520 -0.1211  1.3979 -0.7077
   32CHL1  H22A 2351   3.249   1.966   3.452 -1.8946 -0.4124  1.5796
   32CHL1  H22B 2352   3.356   2.094   3.535  0.1537  0.6095 -0.4633
   32CHL1   C23 2353   3.187   2.003   3.650 -0.1287  0.6693 -0.3977
   32CHL1  H23A 2354   3.177   2.083   3.727 -0.0397  0.9513 -0.6777
   32CHL1  H23B 2355   3.080   1.976   3.631  0.2271 -0.9748 -0.2352
   32CHL1   C24 2356   3.276   1.882   3.714  0.3198  0.4179  0.1468
   32CHL1  H24A 2357   3.261   1.792   3.650 -3.0098  0.2551  0.9889
   32CHL1  H24B 2358   3.383   1.913   3.725  0.4867 -0.2226  0.3589
   32CHL1   C25 2359   3.224   1.836   3.855 -0.3884  0.4547 -0.6862
   32CHL1   H25 2360   3.236   1.919   3.928  0.2756  0.3997 -0.7276
   32CHL1   C26 2361   3.074   1.794   3.850 -0.2699  0.3288  0.1096
   32CHL1  H26A 2362   3.043   1.754   3.949 -0.8889  1.1104  0.2354
   32CHL1  H26B 2363   3.007   1.878   3.823 -0.8382  0.2596  1.2360
   32CHL1  H26C 2364   3.077   1.722   3.765  2.8195  0.0853  0.3118
   32CHL1   C27 2365   3.303   1.717   3.911 -0.1931  0.2814  0.1075
   32CHL1  H27A 2366   3.283   1.624   3.853 -2.6568  0.9236 -0.2011
   32CHL1  H27B 2367   3.411   1.744   3.918 -0.5475  2.0404 -0.5980
   32CHL1  H27C 2368   3.278   1.704   4.018  2.4155  1.9943  1.0236
   33CHL1    C3 2369   2.213   3.099   2.433  0.0110 -0.2991 -0.6874
   33CHL1    H3 2370   2.232   3.209   2.443 -0.1725 -0.3035 -0.2467
   33CHL1    O3 2371   2.236   3.057   2.305  0.0927  0.0406  0.0819
   33CHL1   H3' 2372   2.225   2.962   2.307  2.4199 -0.3053  2.2511
   33CHL1    C4 2373   2.288   3.015   2.541 -0.4337 -0.5239  0.4928
   33CHL1   H4A 2374   2.272   2.908   2.513  2.3112 -0.5233 -1.5746
   33CHL1   H4B 2375   2.394   3.041   2.518 -0.3799 -2.5779 -2.1016
   33CHL1    C5 2376   2.249   3.052   2.679  0.2864  0.2807 -0.0498
   33CHL1    C6 2377   2.343   3.100   2.765  0.1688 -0.4152  0.3530
   33CHL1    H6 2378   2.449   3.098   2.738 -0.1042  2.3503 -1.2772
   33CHL1    C7 2379   2.305   3.132   2.907 -0.2902 -0.1313 -0.7409
   33CHL1   H7A 2380   2.398   3.113   2.965 -0.8878 -1.7043 -0.2239
   33CHL1   H7B 2381   2.293   3.241   2.928 -1.9318 -0.6561  1.4878
   33CHL1    C8 2382   2.175   3.066   2.951  0.3284 -0.5967 -0.4399
   33CHL1    H8 2383   2.191   2.956   2.946  1.9779 -0.3519 -0.9381
   33CHL1   C14 2384   2.136   3.109   3.092 -0.4390 -0.2045 -0.0012
   33CHL1   H14 2385   2.117   3.218   3.091  0.0297 -0.0817  1.4754
   33CHL1   C15 2386   2.238   3.078   3.200 -0.0512 -0.4438 -0.1942
   33CHL1  H15A 2387   2.264   2.975   3.167 -1.4671  0.1257 -3.4850
   33CHL1  H15B 2388   2.318   3.154   3.187 -0.8621  0.0158 -3.3197
   33CHL1   C16 2389   2.143   3.077   3.324  0.2036  0.2638  0.2735
   33CHL1  H16A 2390   2.152   2.978   3.375 -0.3965 -0.1793 -0.4698
   33CHL1  H16B 2391   2.180   3.156   3.393  1.3415 -1.1126  1.3208
   33CHL1   C17 2392   1.998   3.099   3.278 -0.2766  0.4146 -0.1006
   33CHL1   H17 2393   1.975   3.208   3.275  1.4520  0.8173  0.2907
   33CHL1   C13 2394   2.000   3.056   3.129 -0.1854  0.5570 -0.5828
   33CHL1   C18 2395   1.994   2.899   3.125 -0.1432 -0.2130 -0.6855
   33CHL1  H18A 2396   2.006   2.865   3.019 -0.1853  1.2238 -1.1674
   33CHL1  H18B 2397   2.076   2.854   3.185 -1.2031 -2.1168 -0.5713
   33CHL1  H18C 2398   1.904   2.854   3.173  1.1507 -0.2663  1.8202
   33CHL1   C12 2399   1.898   3.121   3.031 -0.5527 -0.1334 -0.8215
   33CHL1  H12A 2400   1.793   3.101   3.059 -0.0729 -0.7961  0.5868
   33CHL1  H12B 2401   1.912   3.231   3.039  1.3065 -0.3894  0.0809
   33CHL1   C11 2402   1.922   3.080   2.887  0.3578 -0.3353 -0.4496
   33CHL1  H11A 2403   1.895   2.973   2.875  0.8458 -1.0395  3.5273
   33CHL1  H11B 2404   1.857   3.135   2.815  0.0064  1.8741  1.4296
   33CHL1    C9 2405   2.068   3.102   2.842  0.2731  0.0678 -0.3118
   33CHL1    H9 2406   2.068   3.213   2.830 -0.3783  0.1564  0.3708
   33CHL1   C10 2407   2.095   3.047   2.706  0.2838 -0.7226 -0.0071
   33CHL1   C19 2408   2.061   2.900   2.700 -0.1966 -0.0091 -0.7121
   33CHL1  H19A 2409   1.952   2.880   2.706 -0.2707  0.5800  0.0500
   33CHL1  H19B 2410   2.093   2.855   2.604  0.1774 -0.0235 -0.5814
   33CHL1  H19C 2411   2.114   2.838   2.776  0.9820  1.0806 -0.6213
   33CHL1    C1 2412   2.010   3.117   2.590 -0.5819 -1.2034  0.9404
   33CHL1   H1A 2413   1.903   3.087   2.598 -0.9929 -0.1095 -0.1097
   33CHL1   H1B 2414   2.010   3.228   2.597 -2.3608 -1.0986  0.0169
   33CHL1    C2 2415   2.061   3.080   2.452  0.0634  0.3654  0.2049
   33CHL1   H2A 2416   2.001   3.134   2.376  0.0403  2.7569  1.7992
   33CHL1   H2B 2417   2.029   2.974   2.438 -3.5868  1.5214 -1.4472
   33CHL1   C20 2418   1.894   3.037   3.373  0.8089  0.6978 -0.5337
   33CHL1   H20 2419   1.918   2.928   3.380  0.7255  0.7239  0.2620
   33CHL1   C21 2420   1.756   3.049   3.316  0.2085  0.1182  0.2483
   33CHL1  H21A 2421   1.757   2.994   3.219 -0.5155  0.6940 -0.0958
   33CHL1  H21B 2422   1.733   3.156   3.294 -2.1340 -0.6513 -1.4912
   33CHL1  H21C 2423   1.684   3.004   3.387 -3.2296  1.8994 -1.7969
   33CHL1   C22 2424   1.901   3.092   3.520  0.1011  0.3463  0.0414
   33CHL1  H22A 2425   2.007   3.108   3.549  1.0080 -1.0150 -2.2449
   33CHL1  H22B 2426   1.854   3.192   3.522  1.6786  1.1739 -1.7026
   33CHL1   C23 2427   1.826   3.014   3.625  0.6397 -0.2026 -0.9966
   33CHL1  H23A 2428   1.719   3.001   3.601 -0.2975 -0.1386  2.5911
   33CHL1  H23B 2429   1.876   2.915   3.627  1.4647  0.0814 -3.5405
   33CHL1   C24 2430   1.823   3.079   3.765  0.1105  1.0346  0.0993
   33CHL1  H24A 2431   1.924   3.117   3.790 -0.5594  1.4883  2.3144
   33CHL1  H24B 2432   1.755   3.165   3.749 -0.8415  0.0084 -1.8328
   33CHL1   C25 2433   1.771   2.981   3.869  0.4205  0.0933 -0.4717
   33CHL1   H25 2434   1.666   2.959   3.844  0.0050  0.3142  0.9727
   33CHL1   C26 2435   1.857   2.856   3.905  0.3285  0.3825 -0.2401
   33CHL1  H26A 2436   1.812   2.802   3.991 -0.5017 -2.7278 -2.4730
   33CHL1  H26B 2437   1.853   2.784   3.821 -0.3324 -2.1318  1.8089
   33CHL1  H26C 2438   1.963   2.881   3.926 -0.0270  2.0181 -0.2213
   33CHL1   C27 2439   1.755   3.056   4.012 -0.2117  0.4985 -0.1731
   33CHL1  H27A 2440   1.858   3.086   4.041  0.1918 -1.4024  0.5203
   33CHL1  H27B 2441   1.696   3.149   3.998 -0.0292  0.6570  0.1106
   33CHL1  H27C 2442   1.720   2.992   4.096 -1.5875  1.3415 -0.0759
   34CHL1    C3 2443   4.131   5.038   2.312  0.5822 -0.2276 -0.0923
   34CHL1    H3 2444   4.020   5.037   2.325  0.8023 -0.3915  2.1318
   34CHL1    O3 2445   4.160   5.014   2.178  0.4007  0.8655  0.3968
   34CHL1   H3' 2446   4.148   5.101   2.137 -1.0029 -0.0550 -1.2886
   34CHL1    C4 2447   4.200   5.160   2.360  0.4469  0.2203 -0.4702
   34CHL1   H4A 2448   4.309   5.143   2.354  0.7038  1.6370 -0.0710
   34CHL1   H4B 2449   4.179   5.245   2.292  1.3791  0.9641  0.1608
   34CHL1    C5 2450   4.163   5.189   2.500 -0.0846  0.0767 -0.0226
   34CHL1    C6 2451   4.115   5.306   2.541 -0.8223 -0.3783 -0.0989
   34CHL1    H6 2452   4.086   5.387   2.472  0.4493  2.0767  2.0574
   34CHL1    C7 2453   4.088   5.337   2.681 -0.2570 -0.9730  0.3213
   34CHL1   H7A 2454   4.104   5.446   2.696 -0.2010 -0.7695 -1.1076
   34CHL1   H7B 2455   3.982   5.314   2.706  0.4152 -3.4142  1.2348
   34CHL1    C8 2456   4.165   5.248   2.774  0.2049  0.5614  0.5634
   34CHL1    H8 2457   4.274   5.272   2.769  0.8137 -2.1345 -1.9464
   34CHL1   C14 2458   4.114   5.271   2.915 -0.1402  0.4227  0.0634
   34CHL1   H14 2459   4.010   5.230   2.914 -0.3446  0.9028 -1.8401
   34CHL1   C15 2460   4.096   5.413   2.963  0.5551  0.4175  0.3251
   34CHL1  H15A 2461   4.195   5.456   2.938  2.1985 -2.7333  0.8390
   34CHL1  H15B 2462   4.005   5.460   2.921  0.4497 -0.5111 -0.5136
   34CHL1   C16 2463   4.086   5.398   3.115 -0.4237  0.1325  0.4430
   34CHL1  H16A 2464   4.167   5.455   3.165 -0.5591  1.5435 -0.8657
   34CHL1  H16B 2465   3.987   5.437   3.148 -0.6209  2.0176 -2.0231
   34CHL1   C17 2466   4.096   5.244   3.148  0.5607 -0.2759 -0.2827
   34CHL1   H17 2467   3.993   5.203   3.134  0.2780  0.5638 -0.7366
   34CHL1   C13 2468   4.169   5.186   3.028 -0.5221  0.1684 -0.2349
   34CHL1   C18 2469   4.318   5.214   3.052  0.2376  0.5368 -0.1102
   34CHL1  H18A 2470   4.337   5.324   3.051 -1.8369  0.9491 -1.6784
   34CHL1  H18B 2471   4.348   5.175   3.151 -0.5541  1.1624  0.3803
   34CHL1  H18C 2472   4.385   5.174   2.972  1.2300  1.2317  0.3424
   34CHL1   C12 2473   4.145   5.038   2.983  0.9992 -0.0446  0.2493
   34CHL1  H12A 2474   4.198   4.978   3.060 -0.1058 -1.4733 -0.0664
   34CHL1  H12B 2475   4.039   5.008   2.980  1.2363 -1.0066  0.9320
   34CHL1   C11 2476   4.212   5.010   2.844  0.8663  0.1535 -0.4332
   34CHL1  H11A 2477   4.323   5.015   2.854  1.1279  1.4791 -3.1128
   34CHL1  H11B 2478   4.181   4.909   2.812  1.3160  0.2452 -1.1631
   34CHL1    C9 2479   4.154   5.101   2.739 -0.3791 -0.2965 -0.0213
   34CHL1    H9 2480   4.044   5.084   2.733 -0.5662  1.1979 -1.3146
   34CHL1   C10 2481   4.210   5.078   2.595 -0.3324 -0.2863  0.0617
   34CHL1   C19 2482   4.365   5.073   2.599 -0.3194 -0.0357 -0.2171
   34CHL1  H19A 2483   4.404   5.166   2.645  0.6486 -0.0001 -1.0649
   34CHL1  H19B 2484   4.408   4.984   2.649 -1.5157  0.5872  2.0249
   34CHL1  H19C 2485   4.415   5.063   2.500 -0.6027  0.3172 -0.4007
   34CHL1    C1 2486   4.153   4.944   2.540 -0.3979  0.4164 -0.6375
   34CHL1   H1A 2487   4.178   4.855   2.602  1.2302  0.0935 -1.6919
   34CHL1   H1B 2488   4.043   4.938   2.559 -0.1604 -3.5344  0.3662
   34CHL1    C2 2489   4.178   4.916   2.390 -0.1890 -0.2425  0.1375
   34CHL1   H2A 2490   4.112   4.829   2.372 -0.4787  0.0790 -0.3828
   34CHL1   H2B 2491   4.283   4.882   2.375  0.3086  0.6928  1.3075
   34CHL1   C20 2492   4.134   5.218   3.299 -0.1187  0.5958  0.1801
   34CHL1   H20 2493   4.243   5.227   3.316 -0.0164 -1.0617  0.5527
   34CHL1   C21 2494   4.102   5.066   3.328  0.0983 -0.1341 -0.1812
   34CHL1  H21A 2495   4.127   5.038   3.433 -1.0816  0.7863  0.3651
   34CHL1  H21B 2496   4.156   4.995   3.262 -1.6543 -0.9387 -0.7934
   34CHL1  H21C 2497   3.992   5.060   3.324 -0.0257  1.3680  0.2237
   34CHL1   C22 2498   4.044   5.311   3.381 -0.1436 -0.2435 -0.0172
   34CHL1  H22A 2499   4.060   5.419   3.366 -2.1565  0.3177  1.4364
   34CHL1  H22B 2500   3.938   5.306   3.346  0.0398 -1.5344 -0.4680
   34CHL1   C23 2501   4.042   5.293   3.533 -0.2130 -0.2590 -0.1376
   34CHL1  H23A 2502   3.999   5.383   3.584  1.7034  0.5959  0.0462
   34CHL1  H23B 2503   3.990   5.200   3.564 -0.3678 -0.5233 -1.1486
   34CHL1   C24 2504   4.188   5.281   3.586 -0.6191 -0.2268  0.7149
   34CHL1  H24A 2505   4.226   5.179   3.561  0.3215  0.6888 -2.0692
   34CHL1  H24B 2506   4.254   5.356   3.536 -0.8521 -0.6120 -0.1972
   34CHL1   C25 2507   4.209   5.302   3.739 -0.1356 -0.2171  0.1743
   34CHL1   H25 2508   4.157   5.397   3.760  1.9493  1.2866 -1.0342
   34CHL1   C26 2509   4.141   5.191   3.823 -0.1251 -0.4816  0.3233
   34CHL1  H26A 2510   4.131   5.219   3.930 -0.4306  3.3197 -0.5583
   34CHL1  H26B 2511   4.035   5.185   3.791 -0.2409 -1.8987  0.8905
   34CHL1  H26C 2512   4.188   5.091   3.813  0.6441 -0.0324 -0.8112
   34CHL1   C27 2513   4.358   5.317   3.777 -0.9080  0.4262  0.1605
   34CHL1  H27A 2514   4.406   5.406   3.732  0.1895  0.4009  1.2264
   34CHL1  H27B 2515   4.376   5.314   3.886  0.5049  2.2973  0.0146
   34CHL1  H27C 2516   4.416   5.229   3.741  0.3468  0.7564  1.2844
   35CHL1    C3 2517   2.046   4.679   2.391  0.2067  0.4899  0.1624
   35CHL1    H3 2518   1.982   4.767   2.414 -1.5200 -0.6498 -0.0293
   35CHL1    O3 2519   2.039   4.665   2.246 -0.0270  0.4624  0.0269
   35CHL1   H3' 2520   2.087   4.584   2.228 -3.4723 -1.5207 -1.0845
   35CHL1    C4 2521   2.189   4.689   2.443 -0.2061  0.1979  0.6245
   35CHL1   H4A 2522   2.250   4.604   2.405 -1.4367  1.2272 -4.3420
   35CHL1   H4B 2523   2.233   4.779   2.395 -0.0306 -1.0486 -1.6890
   35CHL1    C5 2524   2.186   4.698   2.592 -0.9029 -0.3080 -0.2093
   35CHL1    C6 2525   2.246   4.796   2.664  0.1760 -0.4129 -0.6778
   35CHL1    H6 2526   2.299   4.874   2.608  1.2728  1.2014  2.3691
   35CHL1    C7 2527   2.250   4.801   2.818  0.4759  0.4682 -0.0243
   35CHL1   H7A 2528   2.347   4.834   2.860  1.5703 -2.6173  0.1384
   35CHL1   H7B 2529   2.178   4.876   2.858 -1.2237 -1.1571  0.1366
   35CHL1    C8 2530   2.213   4.662   2.881  0.3238  0.7652  0.2474
   35CHL1    H8 2531   2.305   4.601   2.873  0.1834  0.6331 -0.5122
   35CHL1   C14 2532   2.192   4.679   3.030 -0.8653 -0.6708  0.4211
   35CHL1   H14 2533   2.118   4.762   3.029  0.2252  0.4872  3.6211
   35CHL1   C15 2534   2.315   4.739   3.111 -0.0005  0.0274 -0.9831
   35CHL1  H15A 2535   2.413   4.695   3.081 -0.2466 -0.5823 -0.9069
   35CHL1  H15B 2536   2.326   4.849   3.109 -2.9876  0.3925 -0.7380
   35CHL1   C16 2537   2.296   4.685   3.257  0.3531 -0.5675  0.8340
   35CHL1  H16A 2538   2.383   4.623   3.286  1.5585  0.6708 -0.0174
   35CHL1  H16B 2539   2.294   4.770   3.329  1.8430  1.0552 -0.9487
   35CHL1   C17 2540   2.161   4.607   3.251  0.4354 -0.4933  0.7819
   35CHL1   H17 2541   2.089   4.689   3.271  0.6220 -0.5630  1.8342
   35CHL1   C13 2542   2.147   4.556   3.100 -0.5763  0.6442  0.3068
   35CHL1   C18 2543   2.248   4.442   3.094  0.1793  0.2873  0.8176
   35CHL1  H18A 2544   2.350   4.449   3.139  0.1475 -1.3494  1.2272
   35CHL1  H18B 2545   2.200   4.359   3.152 -1.7065  1.2257  0.6679
   35CHL1  H18C 2546   2.263   4.405   2.990  1.0799 -1.1823  1.4258
   35CHL1   C12 2547   2.005   4.514   3.048  0.1702 -0.5122  0.1716
   35CHL1  H12A 2548   1.970   4.423   3.100 -0.1627 -0.1805  0.5402
   35CHL1  H12B 2549   1.938   4.603   3.058  1.1571  0.3354 -0.4737
   35CHL1   C11 2550   2.017   4.490   2.896  0.2557  0.5552  0.0661
   35CHL1  H11A 2551   2.069   4.393   2.880 -0.6889  0.3469 -2.1175
   35CHL1  H11B 2552   1.919   4.473   2.848  0.2628  0.2528  0.1583
   35CHL1    C9 2553   2.091   4.599   2.817 -0.0401 -0.7614  0.7243
   35CHL1    H9 2554   2.015   4.680   2.822  0.0122 -0.7087  0.6718
   35CHL1   C10 2555   2.116   4.584   2.660 -0.3277 -0.6325 -0.1209
   35CHL1   C19 2556   2.206   4.455   2.639  0.2217 -0.3158  0.1103
   35CHL1  H19A 2557   2.286   4.452   2.716  0.1593 -1.0620  0.1483
   35CHL1  H19B 2558   2.150   4.360   2.652 -0.6850  0.0226 -1.1419
   35CHL1  H19C 2559   2.265   4.444   2.545  0.6402 -2.0733  0.5426
   35CHL1    C1 2560   1.980   4.570   2.598  0.0587  0.1209 -0.9454
   35CHL1   H1A 2561   1.928   4.482   2.643  2.6390 -0.6458  0.7693
   35CHL1   H1B 2562   1.920   4.660   2.624 -2.3309 -1.5251 -0.4416
   35CHL1    C2 2563   1.981   4.552   2.448 -0.1840  0.3416 -0.2519
   35CHL1   H2A 2564   1.876   4.544   2.415  0.3865 -0.4047 -2.0003
   35CHL1   H2B 2565   2.029   4.453   2.433 -0.7071 -0.3910  2.3702
   35CHL1   C20 2566   2.146   4.510   3.371  0.2082 -0.6837 -0.7793
   35CHL1   H20 2567   2.210   4.419   3.372 -0.0765 -0.9367 -2.4579
   35CHL1   C21 2568   1.992   4.462   3.380 -0.0668 -0.7573  0.4931
   35CHL1  H21A 2569   1.979   4.386   3.300  1.5592 -2.1667  1.5288
   35CHL1  H21B 2570   1.921   4.546   3.359 -2.5842 -2.4668  1.7155
   35CHL1  H21C 2571   1.981   4.416   3.480  0.2634 -2.0089 -0.0353
   35CHL1   C22 2572   2.176   4.585   3.513 -0.1200 -0.0939  0.7718
   35CHL1  H22A 2573   2.182   4.691   3.483 -0.8860 -0.5154 -1.0125
   35CHL1  H22B 2574   2.091   4.571   3.584 -0.8603  0.8522  0.0932
   35CHL1   C23 2575   2.297   4.534   3.585 -0.7632  0.4442 -0.3666
   35CHL1  H23A 2576   2.281   4.427   3.611  0.7736  0.2738  0.0036
   35CHL1  H23B 2577   2.387   4.529   3.520  0.5986 -1.5340  1.5168
   35CHL1   C24 2578   2.331   4.594   3.725 -0.5694  0.3988 -0.2215
   35CHL1  H24A 2579   2.256   4.566   3.801  1.3972 -3.0887  0.6424
   35CHL1  H24B 2580   2.429   4.555   3.761 -2.3218 -1.4453  2.9804
   35CHL1   C25 2581   2.360   4.746   3.729  0.0482  0.2926 -0.5419
   35CHL1   H25 2582   2.266   4.797   3.699 -1.4457 -1.0101  1.6664
   35CHL1   C26 2583   2.398   4.784   3.874  0.3187 -0.2636 -0.2613
   35CHL1  H26A 2584   2.483   4.717   3.897  2.5607  2.6492  0.4119
   35CHL1  H26B 2585   2.432   4.889   3.879 -0.9336  0.2972 -2.1948
   35CHL1  H26C 2586   2.322   4.768   3.954 -1.4359  0.7661 -1.6485
   35CHL1   C27 2587   2.468   4.789   3.633  0.2220 -0.7919  0.0458
   35CHL1  H27A 2588   2.467   4.763   3.525  2.0225  0.5300 -0.3442
   35CHL1  H27B 2589   2.484   4.898   3.645 -3.1975 -0.3049  1.3132
   35CHL1  H27C 2590   2.561   4.743   3.675 -0.5136 -0.0203  2.6888
   36CHL1    C3 2591   2.685   1.704   2.703  0.4658  0.4257  0.3401
   36CHL1    H3 2592   2.584   1.680   2.740  1.1494 -2.7791  0.3635
   36CHL1    O3 2593   2.693   1.736   2.564  0.1551  0.2054 -0.1627
   36CHL1   H3' 2594   2.787   1.727   2.546  0.4721  2.2648  0.2937
   36CHL1    C4 2595   2.751   1.816   2.786  0.4290 -0.3754 -0.0246
   36CHL1   H4A 2596   2.857   1.828   2.753  0.6979  0.2144  1.0072
   36CHL1   H4B 2597   2.705   1.915   2.769 -0.6543 -0.6871  1.0152
   36CHL1    C5 2598   2.744   1.780   2.933 -0.1131 -0.1795 -0.2499
   36CHL1    C6 2599   2.677   1.853   3.018  0.1258  0.3518  0.3741
   36CHL1    H6 2600   2.640   1.951   2.986 -0.7996 -0.6828 -1.9569
   36CHL1    C7 2601   2.666   1.827   3.164 -0.4051 -0.4780 -0.5481
   36CHL1   H7A 2602   2.702   1.910   3.229  2.9946 -2.3722  0.2378
   36CHL1   H7B 2603   2.557   1.816   3.179 -0.5765  2.2182  0.7878
   36CHL1    C8 2604   2.752   1.703   3.216 -0.5282  0.4571 -0.6155
   36CHL1    H8 2605   2.855   1.740   3.236  0.2179 -0.3658 -2.7250
   36CHL1   C14 2606   2.710   1.654   3.352  0.2818 -0.3496 -0.3398
   36CHL1   H14 2607   2.602   1.627   3.344  0.2111 -0.2397  0.2190
   36CHL1   C15 2608   2.727   1.753   3.469  0.0932 -0.2744  0.4654
   36CHL1  H15A 2609   2.816   1.818   3.459  0.1444 -0.2029  1.3321
   36CHL1  H15B 2610   2.640   1.822   3.473 -0.8526 -1.4772  1.6501
   36CHL1   C16 2611   2.716   1.668   3.597 -0.2458  0.3296 -0.2079
   36CHL1  H16A 2612   2.810   1.687   3.653  0.4666 -3.7000  0.2704
   36CHL1  H16B 2613   2.616   1.689   3.642 -2.0348 -1.7863 -2.9094
   36CHL1   C17 2614   2.727   1.522   3.545  0.4124 -0.0250  0.0632
   36CHL1   H17 2615   2.620   1.492   3.539  0.6868 -1.5151  1.7723
   36CHL1   C13 2616   2.780   1.531   3.402 -0.0963 -0.3005  0.3509
   36CHL1   C18 2617   2.933   1.555   3.416  0.3169 -0.3654  0.3753
   36CHL1  H18A 2618   2.980   1.596   3.323  1.0684 -1.2010  0.3722
   36CHL1  H18B 2619   2.940   1.623   3.504 -1.8689  0.3508  0.0389
   36CHL1  H18C 2620   2.981   1.459   3.441 -1.2044 -1.6288 -1.2872
   36CHL1   C12 2621   2.754   1.417   3.296  0.0969 -0.4123  0.2304
   36CHL1  H12A 2622   2.786   1.315   3.327 -0.3673 -0.6119  0.0732
   36CHL1  H12B 2623   2.643   1.414   3.300  0.0230  2.0559  2.1322
   36CHL1   C11 2624   2.799   1.446   3.152 -0.1399 -0.0938  0.7329
   36CHL1  H11A 2625   2.909   1.437   3.156 -0.0271  1.0957  0.7601
   36CHL1  H11B 2626   2.761   1.366   3.084  0.9930 -0.9831  1.1122
   36CHL1    C9 2627   2.757   1.595   3.109  0.3888  0.2915 -0.2699
   36CHL1    H9 2628   2.648   1.577   3.093  0.9277 -1.9835 -1.7139
   36CHL1   C10 2629   2.807   1.643   2.971 -0.0112 -0.0748  0.2446
   36CHL1   C19 2630   2.964   1.631   2.969 -0.6397 -0.1483 -0.3989
   36CHL1  H19A 2631   3.002   1.528   2.951 -0.6765 -0.2622  0.1341
   36CHL1  H19B 2632   3.014   1.694   2.893  0.1847 -0.3244 -0.0164
   36CHL1  H19C 2633   3.005   1.662   3.068 -0.2884 -0.7442 -0.3471
   36CHL1    C1 2634   2.750   1.540   2.872  0.1883 -0.1253  0.4713
   36CHL1   H1A 2635   2.785   1.436   2.891  1.1601  0.1031 -0.0176
   36CHL1   H1B 2636   2.642   1.528   2.896  0.3595  0.4896  1.6396
   36CHL1    C2 2637   2.769   1.573   2.721  0.2350  0.2452 -0.3240
   36CHL1   H2A 2638   2.730   1.490   2.658  0.8438 -1.5254  1.5356
   36CHL1   H2B 2639   2.876   1.600   2.711  0.2379  0.5531  0.4919
   36CHL1   C20 2640   2.782   1.416   3.643 -0.0073 -0.3470  0.7279
   36CHL1   H20 2641   2.812   1.330   3.579  2.1083  0.4779  0.5201
   36CHL1   C21 2642   2.665   1.372   3.732 -0.3277  0.4671 -0.0272
   36CHL1  H21A 2643   2.711   1.301   3.804  0.0884 -1.5273 -2.1723
   36CHL1  H21B 2644   2.596   1.310   3.672 -0.7636 -1.5029  2.3484
   36CHL1  H21C 2645   2.607   1.457   3.775  0.6618  0.8722  0.5511
   36CHL1   C22 2646   2.911   1.449   3.727  0.5084  0.0793  0.6367
   36CHL1  H22A 2647   2.983   1.511   3.669  0.4942  0.2899  0.8456
   36CHL1  H22B 2648   2.889   1.502   3.821  0.8958  0.0772  0.7296
   36CHL1   C23 2649   2.988   1.319   3.764 -0.1768  0.0146  0.0405
   36CHL1  H23A 2650   2.916   1.237   3.785  0.5195 -0.6168  0.0173
   36CHL1  H23B 2651   3.048   1.291   3.675 -0.1129  0.8153 -0.1753
   36CHL1   C24 2652   3.098   1.346   3.867  0.0607 -0.4853  0.0601
   36CHL1  H24A 2653   3.165   1.257   3.868  0.8605  0.0900  1.5897
   36CHL1  H24B 2654   3.159   1.436   3.845  1.1527 -2.0545 -4.4301
   36CHL1   C25 2655   3.052   1.348   4.010 -0.1752  0.0684  0.0169
   36CHL1   H25 2656   2.968   1.420   4.017 -1.4847 -1.5427  1.8209
   36CHL1   C26 2657   2.998   1.215   4.058 -0.5548  0.7973 -0.6470
   36CHL1  H26A 2658   3.078   1.138   4.054 -0.0131  1.2336  0.8692
   36CHL1  H26B 2659   2.961   1.215   4.163  0.0759 -2.6535 -0.3027
   36CHL1  H26C 2660   2.910   1.179   4.001 -0.0821 -0.6167 -0.5239
   36CHL1   C27 2661   3.154   1.401   4.107 -0.4178 -0.0785  0.1041
   36CHL1  H27A 2662   3.254   1.362   4.078  0.0113  1.6376 -0.8566
   36CHL1  H27B 2663   3.170   1.511   4.107  0.7041 -0.2300 -0.0016
   36CHL1  H27C 2664   3.128   1.371   4.211 -1.3547 -0.7865 -0.3166
   37CHL1    C3 2665   5.661   4.635   2.312 -0.7349  0.8600  0.4774
   37CHL1    H3 2666   5.759   4.685   2.329 -0.0188 -0.1768 -0.4272
   37CHL1    O3 2667   5.634   4.632   2.172  0.2883  0.0939 -0.0524
   37CHL1   H3' 2668   5.642   4.725   2.150  0.0627 -0.2254 -1.5781
   37CHL1    C4 2669   5.678   4.493   2.367 -0.1265  0.4831  0.5964
   37CHL1   H4A 2670   5.590   4.436   2.329 -0.2534  1.4740 -0.6794
   37CHL1   H4B 2671   5.766   4.444   2.320  0.2786  1.1752  0.6211
   37CHL1    C5 2672   5.671   4.483   2.519  0.1472 -0.3598  0.3585
   37CHL1    C6 2673   5.764   4.413   2.586 -0.5204 -0.0419  0.3858
   37CHL1    H6 2674   5.839   4.357   2.528 -2.0934 -2.0965  0.2064
   37CHL1    C7 2675   5.752   4.386   2.734 -0.2516  0.1616 -0.8673
   37CHL1   H7A 2676   5.759   4.278   2.756  0.2882  0.3250 -0.2439
   37CHL1   H7B 2677   5.828   4.450   2.784  1.6182 -0.6194 -2.5826
   37CHL1    C8 2678   5.608   4.429   2.786 -0.0856 -0.3326  0.0076
   37CHL1    H8 2679   5.540   4.345   2.759 -0.3851 -0.1058  0.0563
   37CHL1   C14 2680   5.613   4.434   2.942  0.5933 -0.4596  0.8847
   37CHL1   H14 2681   5.680   4.520   2.962  1.2499 -1.0179  1.1084
   37CHL1   C15 2682   5.655   4.313   3.024  0.0128  0.5084 -0.1903
   37CHL1  H15A 2683   5.592   4.228   2.988  1.9788 -0.1843 -2.2196
   37CHL1  H15B 2684   5.761   4.287   3.006 -0.2296  0.5079 -1.8455
   37CHL1   C16 2685   5.616   4.338   3.168 -0.2790 -0.6584  0.3957
   37CHL1  H16A 2686   5.565   4.246   3.205 -1.1624 -1.0273 -1.5904
   37CHL1  H16B 2687   5.695   4.376   3.237 -0.1492 -0.3957  0.1046
   37CHL1   C17 2688   5.530   4.472   3.162  0.3325  0.8389 -0.2742
   37CHL1   H17 2689   5.603   4.556   3.168 -0.2855  1.3563  0.0466
   37CHL1   C13 2690   5.483   4.480   3.014  0.3377  0.3607 -0.0028
   37CHL1   C18 2691   5.373   4.374   2.987 -0.1317  0.5786 -0.2732
   37CHL1  H18A 2692   5.271   4.400   3.022  0.3587 -1.3938  2.9468
   37CHL1  H18B 2693   5.367   4.362   2.876 -0.3256 -0.6728 -0.1406
   37CHL1  H18C 2694   5.398   4.278   3.036  2.5155  1.4499  0.2524
   37CHL1   C12 2695   5.447   4.618   2.953  0.4653  0.1588  0.4389
   37CHL1  H12A 2696   5.356   4.657   3.003  0.2808  1.9878 -1.2196
   37CHL1  H12B 2697   5.536   4.681   2.972  1.7563 -0.6150 -2.3988
   37CHL1   C11 2698   5.436   4.617   2.802  0.4710 -0.4424  0.5964
   37CHL1  H11A 2699   5.346   4.561   2.770 -0.0076 -0.3212  1.6889
   37CHL1  H11B 2700   5.423   4.720   2.764 -0.2692 -0.0330  1.8947
   37CHL1    C9 2701   5.569   4.564   2.727  0.1206 -0.1019  0.1617
   37CHL1    H9 2702   5.649   4.632   2.764 -0.1358  0.8558 -0.9663
   37CHL1   C10 2703   5.554   4.562   2.578 -0.5146 -0.4036  0.3139
   37CHL1   C19 2704   5.423   4.491   2.551  0.8858 -0.3427  0.9699
   37CHL1  H19A 2705   5.340   4.562   2.571  0.8798  0.2566 -0.9745
   37CHL1  H19B 2706   5.400   4.463   2.446 -0.7411  1.2213  0.8686
   37CHL1  H19C 2707   5.415   4.397   2.610 -1.3965 -1.8608 -1.5125
   37CHL1    C1 2708   5.555   4.703   2.516  0.2773  0.1362 -0.0680
   37CHL1   H1A 2709   5.463   4.753   2.553 -0.0313  1.0736 -1.9695
   37CHL1   H1B 2710   5.639   4.764   2.556  0.4468  0.1101 -0.3807
   37CHL1    C2 2711   5.544   4.705   2.366  0.6713  0.1656 -1.0164
   37CHL1   H2A 2712   5.543   4.809   2.328  0.1649 -0.3175 -2.3711
   37CHL1   H2B 2713   5.453   4.654   2.329  0.4867 -1.9270  1.9652
   37CHL1   C20 2714   5.438   4.505   3.282 -0.5187  0.2546 -0.2979
   37CHL1   H20 2715   5.344   4.445   3.281 -0.3231 -0.1051 -2.5781
   37CHL1   C21 2716   5.402   4.650   3.272  0.2061 -0.1646 -0.2477
   37CHL1  H21A 2717   5.367   4.695   3.367 -3.2223 -1.6677 -0.6578
   37CHL1  H21B 2718   5.324   4.671   3.197 -0.3526  0.6770  0.5506
   37CHL1  H21C 2719   5.486   4.715   3.240  2.3801 -2.5790  0.1605
   37CHL1   C22 2720   5.515   4.485   3.415  0.2424  0.6153  0.2718
   37CHL1  H22A 2721   5.578   4.394   3.426  2.1817  1.6856 -1.3068
   37CHL1  H22B 2722   5.584   4.572   3.421  0.3539  0.6154 -0.8432
   37CHL1   C23 2723   5.414   4.481   3.528  0.0395  0.3692  0.5797
   37CHL1  H23A 2724   5.357   4.576   3.541 -0.2695  0.0916  1.2951
   37CHL1  H23B 2725   5.338   4.401   3.512  1.2697 -0.5325 -1.0432
   37CHL1   C24 2726   5.463   4.445   3.672 -0.5343 -0.8695 -0.0326
   37CHL1  H24A 2727   5.511   4.346   3.660  0.9222 -0.3946  1.3728
   37CHL1  H24B 2728   5.531   4.529   3.701 -1.1952  0.0476 -1.0478
   37CHL1   C25 2729   5.345   4.439   3.777 -0.1931  0.0170 -0.0963
   37CHL1   H25 2730   5.296   4.538   3.777  1.0164  0.6375 -0.8290
   37CHL1   C26 2731   5.238   4.331   3.729  0.2670 -0.3223  0.5661
   37CHL1  H26A 2732   5.286   4.235   3.701  1.6082  0.0308  1.5200
   37CHL1  H26B 2733   5.174   4.322   3.820  0.7085  1.8136  1.1548
   37CHL1  H26C 2734   5.180   4.379   3.648  0.3675 -1.5834 -0.2790
   37CHL1   C27 2735   5.412   4.403   3.915  0.8652 -0.5290 -0.2270
   37CHL1  H27A 2736   5.497   4.474   3.926  0.4226 -0.0902  0.3842
   37CHL1  H27B 2737   5.340   4.400   3.999  0.8863  1.0192 -0.1262
   37CHL1  H27C 2738   5.446   4.297   3.911 -0.3781 -0.9184 -0.9845
   38CHL1    C3 2739   2.457   5.043   2.308 -0.6721  0.0571 -0.7980
   38CHL1    H3 2740   2.356   5.000   2.327 -1.2591  0.8003 -2.0901
   38CHL1    O3 2741   2.487   5.049   2.169  0.4892 -0.0185 -0.0129
   38CHL1   H3' 2742   2.530   5.135   2.166  3.8287 -1.3755  2.5108
   38CHL1    C4 2743   2.480   5.180   2.380 -0.5753  0.0952  0.4572
   38CHL1   H4A 2744   2.570   5.229   2.337  0.1576 -0.6056  1.1599
   38CHL1   H4B 2745   2.395   5.251   2.370 -0.2311  0.3308 -1.0376
   38CHL1    C5 2746   2.494   5.164   2.531  0.6260  1.3972 -0.0215
   38CHL1    C6 2747   2.412   5.216   2.626 -0.4070 -0.3752 -0.0149
   38CHL1    H6 2748   2.332   5.288   2.602 -1.2338  0.4193  4.3640
   38CHL1    C7 2749   2.417   5.199   2.769 -0.0610 -0.2198 -0.1376
   38CHL1   H7A 2750   2.399   5.296   2.820  0.1787  0.0124 -0.4916
   38CHL1   H7B 2751   2.341   5.127   2.807 -0.1163 -0.3789 -0.5513
   38CHL1    C8 2752   2.555   5.155   2.813  0.0619 -0.0085 -0.5475
   38CHL1    H8 2753   2.635   5.231   2.801  0.8061 -0.4282  1.3042
   38CHL1   C14 2754   2.555   5.118   2.963  1.3400  0.1323  0.4592
   38CHL1   H14 2755   2.456   5.072   2.981 -0.0208  3.1496  1.2123
   38CHL1   C15 2756   2.559   5.238   3.063 -0.2435  0.0682  0.1865
   38CHL1  H15A 2757   2.634   5.315   3.034 -0.0308 -0.0500  0.4257
   38CHL1  H15B 2758   2.458   5.283   3.051 -0.7020 -1.3266 -1.7015
   38CHL1   C16 2759   2.607   5.174   3.198  1.0057  0.2963 -0.3024
   38CHL1  H16A 2760   2.702   5.219   3.235  0.1593  0.8855  1.2815
   38CHL1  H16B 2761   2.538   5.196   3.283 -0.4485 -0.6769 -1.1906
   38CHL1   C17 2762   2.626   5.025   3.170  0.4228  0.1081 -0.5166
   38CHL1   H17 2763   2.530   4.974   3.193  1.0491 -1.5740 -1.4279
   38CHL1   C13 2764   2.657   5.021   3.014 -0.0648  0.7517  0.3767
   38CHL1   C18 2765   2.810   5.071   2.999  0.0538 -0.0464 -0.0178
   38CHL1  H18A 2766   2.891   4.997   3.018  1.2379  0.2735 -3.2379
   38CHL1  H18B 2767   2.810   5.094   2.890 -1.0108  0.4995  0.0850
   38CHL1  H18C 2768   2.837   5.158   3.062  0.3544 -0.5765  0.6006
   38CHL1   C12 2769   2.651   4.889   2.933 -0.5455 -0.0110  0.2518
   38CHL1  H12A 2770   2.727   4.811   2.956 -1.3021 -1.2608 -1.3069
   38CHL1  H12B 2771   2.557   4.832   2.947 -1.6921  1.5654 -0.7364
   38CHL1   C11 2772   2.667   4.918   2.779 -0.0614  0.0908  0.4447
   38CHL1  H11A 2773   2.775   4.939   2.764 -0.4003  1.2412 -0.4741
   38CHL1  H11B 2774   2.641   4.825   2.723 -1.5378  0.6876  0.0919
   38CHL1    C9 2775   2.578   5.029   2.730  0.3327 -1.1010 -0.1778
   38CHL1    H9 2776   2.474   4.990   2.728  0.0208 -0.3530  1.0846
   38CHL1   C10 2777   2.599   5.060   2.578  0.1758 -0.7965 -0.0587
   38CHL1   C19 2778   2.741   5.125   2.566  0.9225 -0.1624 -0.0302
   38CHL1  H19A 2779   2.756   5.170   2.465 -1.8335 -0.1887 -0.5324
   38CHL1  H19B 2780   2.757   5.214   2.630  1.1690  2.1168 -3.0079
   38CHL1  H19C 2781   2.825   5.055   2.583  0.4785 -0.0117  3.6394
   38CHL1    C1 2782   2.574   4.929   2.503 -0.8072 -0.2046 -0.2185
   38CHL1   H1A 2783   2.665   4.871   2.530 -0.3615 -0.2702 -1.7443
   38CHL1   H1B 2784   2.480   4.886   2.543 -2.9149  2.6950 -1.6074
   38CHL1    C2 2785   2.571   4.944   2.356  0.6167 -0.8508  0.4596
   38CHL1   H2A 2786   2.549   4.843   2.315  1.5061 -1.0300  0.4116
   38CHL1   H2B 2787   2.670   4.972   2.315  0.9831 -1.2030  1.0950
   38CHL1   C20 2788   2.726   4.951   3.261  0.4362 -0.4057 -0.2348
   38CHL1   H20 2789   2.830   4.978   3.233  1.1870 -1.6120  1.2674
   38CHL1   C21 2790   2.713   4.800   3.256  0.4544 -0.2655  0.2240
   38CHL1  H21A 2791   2.614   4.757   3.285  0.2904 -0.9078 -1.1971
   38CHL1  H21B 2792   2.793   4.758   3.320  1.7181  0.5313 -0.7960
   38CHL1  H21C 2793   2.740   4.771   3.152  0.4294  2.7410 -0.7010
   38CHL1   C22 2794   2.704   4.988   3.407  0.2493  0.0517 -0.6515
   38CHL1  H22A 2795   2.702   5.099   3.416 -1.8356  0.0160 -0.3700
   38CHL1  H22B 2796   2.603   4.957   3.438 -0.6167  1.2071 -2.1672
   38CHL1   C23 2797   2.811   4.939   3.507 -0.4181  0.0118  0.3315
   38CHL1  H23A 2798   2.796   4.830   3.527  1.6713  0.1416  3.2929
   38CHL1  H23B 2799   2.904   4.941   3.446  0.0687  3.3900  1.0309
   38CHL1   C24 2800   2.816   5.012   3.642 -0.3185  0.0741 -0.2452
   38CHL1  H24A 2801   2.834   5.118   3.615 -0.5520  0.0639 -0.4415
   38CHL1  H24B 2802   2.711   5.002   3.676 -0.6080 -0.4337 -1.2685
   38CHL1   C25 2803   2.921   4.956   3.741  0.3244  1.2078  0.2950
   38CHL1   H25 2804   2.890   4.850   3.749 -1.9641  1.5701 -2.3651
   38CHL1   C26 2805   3.064   4.979   3.692 -0.6085  1.2270 -0.5879
   38CHL1  H26A 2806   3.131   4.923   3.760 -1.1320 -0.6413 -1.5371
   38CHL1  H26B 2807   3.083   4.937   3.591  1.1992 -1.5578  0.8089
   38CHL1  H26C 2808   3.090   5.086   3.710 -0.5129  1.0343  0.4505
   38CHL1   C27 2809   2.899   5.010   3.888  0.4845 -0.0362  0.3185
   38CHL1  H27A 2810   2.987   4.978   3.947 -0.8717 -1.4946  1.6705
   38CHL1  H27B 2811   2.896   5.121   3.888 -2.1491 -0.0154 -0.9346
   38CHL1  H27C 2812   2.813   4.961   3.939  0.5109 -1.1867 -0.7067
   39CHL1    C3 2813   3.997   5.864   2.224 -0.1616  0.0983  0.4870
   39CHL1    H3 2814   4.028   5.758   2.217 -1.5715 -0.4609  2.0557
   39CHL1    O3 2815   4.017   5.919   2.092  0.2711  0.0711 -0.2150
   39CHL1   H3' 2816   3.988   6.009   2.106 -0.0756  0.1024 -1.0289
   39CHL1    C4 2817   3.850   5.874   2.274  0.3511 -0.1391  0.1477
   39CHL1   H4A 2818   3.829   5.983   2.263 -0.7640 -0.5093 -1.8650
   39CHL1   H4B 2819   3.771   5.830   2.209 -0.4194 -0.4603  1.2763
   39CHL1    C5 2820   3.852   5.824   2.418 -0.2264  0.2654 -0.1604
   39CHL1    C6 2821   3.769   5.723   2.451 -1.0289  0.1388 -0.5184
   39CHL1    H6 2822   3.690   5.696   2.379 -1.2691  1.2694 -0.6882
   39CHL1    C7 2823   3.749   5.684   2.599  0.2350  0.1971  0.6469
   39CHL1   H7A 2824   3.642   5.673   2.627 -0.1691 -0.0202 -0.8751
   39CHL1   H7B 2825   3.795   5.584   2.617 -0.0401  0.1240  0.9494
   39CHL1    C8 2826   3.809   5.789   2.706 -0.1337 -0.0299 -0.6664
   39CHL1    H8 2827   3.746   5.881   2.707  0.4376  0.3781  1.0341
   39CHL1   C14 2828   3.813   5.725   2.847 -0.5938 -0.7198 -0.0019
   39CHL1   H14 2829   3.870   5.631   2.838  1.8072  0.7458 -1.1770
   39CHL1   C15 2830   3.678   5.696   2.912  0.1312  0.4328 -0.2306
   39CHL1  H15A 2831   3.605   5.779   2.898 -1.4052 -0.6757  0.8182
   39CHL1  H15B 2832   3.628   5.604   2.876 -1.7578  2.2270 -2.5043
   39CHL1   C16 2833   3.703   5.686   3.062 -0.8018 -0.9670 -0.7933
   39CHL1  H16A 2834   3.639   5.755   3.121 -1.5245 -0.3596 -2.2418
   39CHL1  H16B 2835   3.687   5.581   3.098 -1.0607 -1.4056 -2.1484
   39CHL1   C17 2836   3.855   5.724   3.078  0.6272 -0.5819  0.5291
   39CHL1   H17 2837   3.908   5.626   3.077 -1.6392 -1.8595 -0.1965
   39CHL1   C13 2838   3.893   5.797   2.947 -0.1353  0.5671  0.2626
   39CHL1   C18 2839   3.838   5.943   2.957  0.1087  0.0731 -0.0628
   39CHL1  H18A 2840   3.735   5.951   2.999 -0.1719  0.5518 -0.8152
   39CHL1  H18B 2841   3.900   6.012   3.019 -0.7794  1.8509 -1.0540
   39CHL1  H18C 2842   3.831   5.992   2.857  2.0998  1.3094  0.3304
   39CHL1   C12 2843   4.043   5.798   2.893 -0.0970  0.1732  0.4914
   39CHL1  H12A 2844   4.090   5.862   2.971 -1.2462  0.1023  1.2711
   39CHL1  H12B 2845   4.087   5.696   2.895 -0.2812  0.0765 -0.2412
   39CHL1   C11 2846   4.050   5.867   2.756  0.4505 -0.9123 -0.1578
   39CHL1  H11A 2847   4.021   5.974   2.766 -2.3397 -1.2959 -3.0428
   39CHL1  H11B 2848   4.155   5.870   2.719 -0.3333 -0.6383 -2.4967
   39CHL1    C9 2849   3.951   5.811   2.652 -0.3582 -0.1695  0.5038
   39CHL1    H9 2850   3.985   5.706   2.648 -0.3039 -0.1251 -0.3686
   39CHL1   C10 2851   3.953   5.879   2.512 -0.2521  0.1382 -0.1489
   39CHL1   C19 2852   3.915   6.030   2.534  0.0357 -0.4758  0.1946
   39CHL1  H19A 2853   3.884   6.081   2.440  1.6177  0.6007  0.1980
   39CHL1  H19B 2854   3.838   6.042   2.613 -0.5859  0.6639 -0.5515
   39CHL1  H19C 2855   4.009   6.078   2.570  0.2036  0.2024 -1.0826
   39CHL1    C1 2856   4.090   5.878   2.449  0.0622  0.0606  0.0114
   39CHL1   H1A 2857   4.160   5.941   2.508  0.5170 -1.6945  1.4470
   39CHL1   H1B 2858   4.127   5.774   2.434  1.6754  0.5293  0.5550
   39CHL1    C2 2859   4.084   5.947   2.311 -0.4117  0.4053  0.9206
   39CHL1   H2A 2860   4.187   5.946   2.268 -1.3641 -1.1693 -1.4817
   39CHL1   H2B 2861   4.049   6.052   2.303  0.4742  0.5665 -2.0953
   39CHL1   C20 2862   3.879   5.803   3.209 -0.8407  0.2763 -0.2106
   39CHL1   H20 2863   3.813   5.893   3.211 -3.1889 -1.3656  0.0131
   39CHL1   C21 2864   4.024   5.853   3.219  0.3443  0.6346 -0.1812
   39CHL1  H21A 2865   4.048   5.941   3.155  1.1650  1.9539  1.8029
   39CHL1  H21B 2866   4.087   5.772   3.177  0.7200 -1.4785  3.8933
   39CHL1  H21C 2867   4.062   5.883   3.320  0.7479 -0.8280  0.1247
   39CHL1   C22 2868   3.862   5.714   3.334  0.5092  0.2973 -0.1403
   39CHL1  H22A 2869   3.758   5.675   3.332  0.3977  0.3477  2.1247
   39CHL1  H22B 2870   3.939   5.636   3.320  0.6040  0.5086 -0.8307
   39CHL1   C23 2871   3.873   5.780   3.475  0.3975 -0.2276  0.2052
   39CHL1  H23A 2872   3.980   5.803   3.493  0.3184 -0.4511  0.9842
   39CHL1  H23B 2873   3.822   5.878   3.479  1.4876  0.3140  1.4930
   39CHL1   C24 2874   3.814   5.691   3.585 -0.7800  0.1745  0.2321
   39CHL1  H24A 2875   3.703   5.697   3.589 -0.9986 -1.7872 -1.4883
   39CHL1  H24B 2876   3.842   5.585   3.569  1.0635  0.6428  0.0657
   39CHL1   C25 2877   3.857   5.730   3.728  0.0061  0.2297 -0.2083
   39CHL1   H25 2878   3.965   5.708   3.738  0.4604  2.3103  0.0116
   39CHL1   C26 2879   3.845   5.885   3.743  0.0838  0.0237  0.7089
   39CHL1  H26A 2880   3.928   5.929   3.683 -0.3510 -1.2734 -0.9306
   39CHL1  H26B 2881   3.749   5.931   3.713  0.6018 -0.1884 -1.4387
   39CHL1  H26C 2882   3.860   5.899   3.852  1.1308 -0.4721  0.6430
   39CHL1   C27 2883   3.766   5.651   3.836  0.2396 -0.1700  0.1967
   39CHL1  H27A 2884   3.797   5.683   3.937 -0.1322  2.0210 -0.3311
   39CHL1  H27B 2885   3.660   5.665   3.806  0.5030  0.6480 -0.3895
   39CHL1  H27C 2886   3.804   5.548   3.815  1.2927  0.0899  0.7615
   40CHL1    C3 2887   5.905   2.500   2.273  0.0172 -0.4496  0.0257
   40CHL1    H3 2888   5.893   2.609   2.293 -1.1970 -0.8204  1.5078
   40CHL1    O3 2889   5.997   2.485   2.166  0.2754  0.1399  0.2080
   40CHL1   H3' 2890   6.080   2.529   2.190  0.9433 -0.5290 -0.8039
   40CHL1    C4 2891   5.972   2.434   2.403  0.4375  0.2528 -0.1914
   40CHL1   H4A 2892   5.995   2.328   2.378  0.3638  0.3717 -0.7838
   40CHL1   H4B 2893   6.071   2.484   2.409 -0.1867  1.5256 -0.1931
   40CHL1    C5 2894   5.880   2.460   2.519 -0.4805  0.0094  0.4695
   40CHL1    C6 2895   5.923   2.530   2.624 -0.3261 -0.4510 -0.4812
   40CHL1    H6 2896   6.020   2.580   2.614 -1.8795  3.3206  1.2697
   40CHL1    C7 2897   5.835   2.563   2.741 -0.8154  0.8940  0.1289
   40CHL1   H7A 2898   5.894   2.560   2.835 -1.5854  0.2133  0.5975
   40CHL1   H7B 2899   5.801   2.669   2.732 -0.6627  1.0383  1.1495
   40CHL1    C8 2900   5.712   2.476   2.743 -0.3569  0.6447 -0.3859
   40CHL1    H8 2901   5.741   2.375   2.777 -0.8608  0.8671  0.7658
   40CHL1   C14 2902   5.615   2.519   2.858  0.6744 -0.0554  0.9087
   40CHL1   H14 2903   5.584   2.622   2.829 -0.3270 -1.0558 -1.9240
   40CHL1   C15 2904   5.668   2.543   3.000  0.0260 -0.0260 -0.0629
   40CHL1  H15A 2905   5.734   2.458   3.025 -0.0700  0.3576  1.6231
   40CHL1  H15B 2906   5.726   2.638   3.002 -1.8176  1.3452  5.0635
   40CHL1   C16 2907   5.542   2.561   3.087 -0.8243  0.3821 -0.5962
   40CHL1  H16A 2908   5.545   2.484   3.167 -0.0643  2.4584  1.4906
   40CHL1  H16B 2909   5.533   2.665   3.126 -0.4880  1.0131 -2.1133
   40CHL1   C17 2910   5.420   2.529   2.987 -0.9191 -1.0814  0.0935
   40CHL1   H17 2911   5.405   2.632   2.948  0.2706 -0.4716  1.1535
   40CHL1   C13 2912   5.481   2.444   2.871 -0.0632 -0.4840 -0.1849
   40CHL1   C18 2913   5.509   2.297   2.913  0.1547 -0.2168 -0.0772
   40CHL1  H18A 2914   5.535   2.297   3.021 -0.1509  4.1772  0.1773
   40CHL1  H18B 2915   5.414   2.241   2.900  0.4245 -0.5707 -0.5260
   40CHL1  H18C 2916   5.578   2.253   2.839  0.0127  1.3467 -1.1806
   40CHL1   C12 2917   5.409   2.447   2.734 -0.3385 -0.5974 -0.1016
   40CHL1  H12A 2918   5.316   2.386   2.739 -0.1474 -0.7877  1.8897
   40CHL1  H12B 2919   5.382   2.554   2.718  0.8719 -0.2424  0.1420
   40CHL1   C11 2920   5.498   2.395   2.622 -0.3447  0.1432  0.5113
   40CHL1  H11A 2921   5.496   2.284   2.627 -0.1926  0.2059  2.2669
   40CHL1  H11B 2922   5.446   2.412   2.525 -0.7777 -1.8791  0.3509
   40CHL1    C9 2923   5.639   2.459   2.610 -0.2499 -0.9299  0.4441
   40CHL1    H9 2924   5.623   2.561   2.568 -3.0703 -1.1337  0.8666
   40CHL1   C10 2925   5.737   2.395   2.507  0.3025  0.2790  1.0629
   40CHL1   C19 2926   5.751   2.242   2.523  0.0112 -0.4024 -0.6465
   40CHL1  H19A 2927   5.655   2.188   2.509 -0.4168 -0.1419  1.0791
   40CHL1  H19B 2928   5.822   2.196   2.451 -0.2026 -0.3665 -0.8811
   40CHL1  H19C 2929   5.787   2.229   2.627 -0.0426 -1.5066 -0.7546
   40CHL1    C1 2930   5.687   2.428   2.361 -0.7753  0.2452  0.2046
   40CHL1   H1A 2931   5.593   2.371   2.345 -0.0986 -1.0035  0.5492
   40CHL1   H1B 2932   5.646   2.531   2.351 -1.1084  0.0684 -0.2862
   40CHL1    C2 2933   5.786   2.424   2.242 -0.3289 -0.4609 -0.4998
   40CHL1   H2A 2934   5.731   2.465   2.155  0.4074  2.5324  0.3404
   40CHL1   H2B 2935   5.819   2.318   2.244  0.1436 -0.3529 -1.7723
   40CHL1   C20 2936   5.291   2.478   3.059  0.1838  0.3722 -0.5247
   40CHL1   H20 2937   5.326   2.395   3.124  1.8798 -0.2932 -2.1839
   40CHL1   C21 2938   5.179   2.425   2.956 -0.0114  0.3956 -0.4056
   40CHL1  H21A 2939   5.147   2.495   2.876  0.5815 -0.9244 -1.8417
   40CHL1  H21B 2940   5.089   2.403   3.017  1.6783 -1.4896  1.6017
   40CHL1  H21C 2941   5.216   2.330   2.913  0.1416  1.0260 -1.7119
   40CHL1   C22 2942   5.241   2.592   3.152 -0.0004  0.7179 -0.0872
   40CHL1  H22A 2943   5.329   2.623   3.212  0.2088 -1.5321  0.8445
   40CHL1  H22B 2944   5.198   2.677   3.094  0.7400  0.1659 -1.4705
   40CHL1   C23 2945   5.132   2.548   3.251  0.3127 -0.3217  0.4027
   40CHL1  H23A 2946   5.044   2.509   3.195 -0.1450 -1.6200  1.9552
   40CHL1  H23B 2947   5.164   2.464   3.316  4.3497  1.3258  0.7867
   40CHL1   C24 2948   5.087   2.662   3.343  0.5247  0.4951 -0.0674
   40CHL1  H24A 2949   5.162   2.697   3.417  0.2873  1.2075 -0.1514
   40CHL1  H24B 2950   5.053   2.757   3.296  2.2124  0.9562 -0.4145
   40CHL1   C25 2951   4.970   2.617   3.442  0.4265  0.2625 -0.2439
   40CHL1   H25 2952   4.966   2.509   3.468 -2.9956  0.4169  0.4117
   40CHL1   C26 2953   4.982   2.693   3.575 -0.2157 -0.0954 -0.3257
   40CHL1  H26A 2954   5.013   2.797   3.552  0.7999 -0.7675 -2.1589
   40CHL1  H26B 2955   4.882   2.676   3.622 -0.5245 -1.6925 -1.4827
   40CHL1  H26C 2956   5.048   2.642   3.648  0.9080  1.5176 -0.1602
   40CHL1   C27 2957   4.841   2.638   3.370  0.7034 -0.0278  0.2965
   40CHL1  H27A 2958   4.800   2.741   3.376  2.6189  0.8115 -0.0961
   40CHL1  H27B 2959   4.859   2.617   3.262  0.7964  2.7877 -0.3192
   40CHL1  H27C 2960   4.769   2.570   3.420 -0.1813  0.3039 -0.4880
   41CHL1    C3 2961   4.461   5.496   2.204  0.4377 -0.1937  0.1767
   41CHL1    H3 2962   4.351   5.512   2.207  0.5723  0.7653  0.3412
   41CHL1    O3 2963   4.494   5.467   2.067 -0.0541  0.2890  0.0768
   41CHL1   H3' 2964   4.482   5.549   2.020 -1.9333 -0.3453 -0.6406
   41CHL1    C4 2965   4.522   5.633   2.243 -0.3181 -0.2394 -0.2874
   41CHL1   H4A 2966   4.627   5.640   2.208 -0.6891  2.5637 -1.0738
   41CHL1   H4B 2967   4.480   5.714   2.179  1.7636  0.0039 -1.4561
   41CHL1    C5 2968   4.508   5.665   2.390  0.2279  0.9160 -0.1470
   41CHL1    C6 2969   4.458   5.779   2.431 -0.2982  0.0224  0.3625
   41CHL1    H6 2970   4.425   5.859   2.364  0.6568 -0.2531 -0.4565
   41CHL1    C7 2971   4.457   5.815   2.575 -0.1155  0.2568  0.2724
   41CHL1   H7A 2972   4.513   5.909   2.589 -0.4081  0.6593 -1.1454
   41CHL1   H7B 2973   4.352   5.818   2.613 -0.5571  1.4775 -0.9510
   41CHL1    C8 2974   4.530   5.719   2.676 -0.2037  0.4574 -0.2761
   41CHL1    H8 2975   4.641   5.722   2.674 -0.1115  1.2556  2.0789
   41CHL1   C14 2976   4.469   5.743   2.818  0.2433  0.1579  0.3934
   41CHL1   H14 2977   4.368   5.699   2.814  0.3055  0.0471 -0.0009
   41CHL1   C15 2978   4.461   5.886   2.868  0.4460  1.0677  0.1021
   41CHL1  H15A 2979   4.540   5.950   2.824  1.1069 -1.5635 -2.8959
   41CHL1  H15B 2980   4.370   5.922   2.816 -1.4811 -1.6497  1.3290
   41CHL1   C16 2981   4.447   5.873   3.015  0.4785  0.2050 -0.2978
   41CHL1  H16A 2982   4.512   5.934   3.080 -0.8374 -1.0921  2.4113
   41CHL1  H16B 2983   4.341   5.890   3.043  0.6161 -1.4290  1.3904
   41CHL1   C17 2984   4.461   5.718   3.047  0.8563 -0.2379 -0.7259
   41CHL1   H17 2985   4.357   5.679   3.033  0.1952  1.0832  0.3638
   41CHL1   C13 2986   4.536   5.660   2.928 -0.0092 -0.2803 -0.2641
   41CHL1   C18 2987   4.679   5.696   2.946 -0.9566 -0.0526  0.1723
   41CHL1  H18A 2988   4.737   5.655   2.861 -1.6016  0.5329 -0.5639
   41CHL1  H18B 2989   4.693   5.806   2.956 -0.4243 -0.2256  1.4448
   41CHL1  H18C 2990   4.723   5.656   3.039  0.9987 -1.8862 -1.4592
   41CHL1   C12 2991   4.507   5.513   2.892 -0.0148  0.1986 -0.8516
   41CHL1  H12A 2992   4.522   5.434   2.969  1.0452  1.9638  0.8183
   41CHL1  H12B 2993   4.396   5.514   2.885 -0.5010 -0.9326  3.6148
   41CHL1   C11 2994   4.557   5.472   2.752  0.0470 -0.5031  0.2899
   41CHL1  H11A 2995   4.666   5.455   2.745 -0.1865 -1.3627 -2.6893
   41CHL1  H11B 2996   4.525   5.367   2.733 -1.3151 -0.0767  0.0726
   41CHL1    C9 2997   4.500   5.573   2.637 -0.3026  0.3663 -0.5949
   41CHL1    H9 2998   4.390   5.563   2.633 -0.2507  0.2398 -3.1959
   41CHL1   C10 2999   4.550   5.546   2.488  0.1877  0.2740 -0.8893
   41CHL1   C19 3000   4.709   5.533   2.482 -0.0136  0.4379 -0.2699
   41CHL1  H19A 3001   4.748   5.450   2.544 -0.6451  0.0632 -0.3629
   41CHL1  H19B 3002   4.748   5.517   2.379  0.1386 -1.6316  0.0528
   41CHL1  H19C 3003   4.750   5.632   2.511 -0.7181  0.5032  0.5559
   41CHL1    C1 3004   4.493   5.408   2.443 -0.1259 -0.1086  0.2304
   41CHL1   H1A 3005   4.537   5.330   2.508 -0.1274 -1.1140 -0.9299
   41CHL1   H1B 3006   4.385   5.414   2.468 -1.1363 -3.4178 -2.5667
   41CHL1    C2 3007   4.499   5.380   2.293 -0.4783 -0.0188  0.3576
   41CHL1   H2A 3008   4.459   5.280   2.267  1.2609 -0.7095  0.2566
   41CHL1   H2B 3009   4.608   5.362   2.286 -0.7236 -1.5733  0.1821
   41CHL1   C20 3010   4.503   5.703   3.191  0.5437 -0.0722  0.3056
   41CHL1   H20 3011   4.596   5.759   3.214 -1.3047  1.4972  5.7494
   41CHL1   C21 3012   4.528   5.557   3.228 -0.4878  0.3220 -0.1784
   41CHL1  H21A 3013   4.437   5.496   3.210 -0.1974 -0.0175 -0.5145
   41CHL1  H21B 3014   4.572   5.548   3.330  1.3089 -2.4275 -1.0827
   41CHL1  H21C 3015   4.613   5.516   3.170 -0.4873 -3.0586  1.9241
   41CHL1   C22 3016   4.387   5.762   3.284  0.0515  0.0073  0.2257
   41CHL1  H22A 3017   4.357   5.865   3.257 -0.6211  0.5876  2.9625
   41CHL1  H22B 3018   4.291   5.706   3.274 -0.2401  0.2807  1.3936
   41CHL1   C23 3019   4.423   5.767   3.435 -0.5248  0.2725 -1.0526
   41CHL1  H23A 3020   4.442   5.665   3.473 -0.7796 -0.0265 -1.7056
   41CHL1  H23B 3021   4.514   5.830   3.445 -0.7367  0.6351 -1.3448
   41CHL1   C24 3022   4.315   5.837   3.522  0.5480  0.2927 -0.1307
   41CHL1  H24A 3023   4.302   5.943   3.491 -0.3046 -0.3582 -2.1608
   41CHL1  H24B 3024   4.224   5.780   3.493  0.9761 -0.3374 -0.2488
   41CHL1   C25 3025   4.342   5.832   3.674  0.5953 -0.2260 -0.6725
   41CHL1   H25 3026   4.448   5.847   3.704  0.5965 -1.0297 -0.2722
   41CHL1   C26 3027   4.265   5.950   3.744 -0.6575  0.3537 -0.2432
   41CHL1  H26A 3028   4.157   5.946   3.718 -1.6650  0.4451  3.4776
   41CHL1  H26B 3029   4.284   5.959   3.853 -1.6940 -0.1072 -0.0062
   41CHL1  H26C 3030   4.305   6.042   3.696  1.1276 -0.4941 -0.4421
   41CHL1   C27 3031   4.302   5.699   3.744  0.0142 -0.3584 -0.2894
   41CHL1  H27A 3032   4.332   5.696   3.851 -0.7391  1.0594 -0.0188
   41CHL1  H27B 3033   4.196   5.665   3.734 -0.3291 -0.1585  2.1341
   41CHL1  H27C 3034   4.367   5.617   3.705  0.6162  0.3147 -0.7108
   42CHL1    C3 3035   6.151   4.923   2.331 -0.6529 -0.1197 -0.4292
   42CHL1    H3 3036   6.181   5.023   2.368 -0.9267  0.2359 -1.1373
   42CHL1    O3 3037   6.209   4.901   2.203 -0.0797 -0.1703 -0.3884
   42CHL1   H3' 3038   6.185   4.814   2.172  0.8042 -0.6928  0.3653
   42CHL1    C4 3039   6.207   4.818   2.430 -0.0235 -0.3819  0.1398
   42CHL1   H4A 3040   6.172   4.718   2.396 -0.1515 -0.3350  0.1337
   42CHL1   H4B 3041   6.318   4.812   2.423  0.0513  0.0260  0.9026
   42CHL1    C5 3042   6.168   4.835   2.576 -0.0778 -0.7187  0.1092
   42CHL1    C6 3043   6.255   4.861   2.680  0.0676  0.2898  0.5241
   42CHL1    H6 3044   6.363   4.869   2.665 -0.1047 -0.2515 -1.2201
   42CHL1    C7 3045   6.205   4.885   2.816 -0.4531  0.1289 -0.4483
   42CHL1   H7A 3046   6.273   4.834   2.888  1.4054  1.9528 -0.8151
   42CHL1   H7B 3047   6.219   4.991   2.846  1.9262 -0.7193  1.8387
   42CHL1    C8 3048   6.055   4.852   2.835 -0.0815  0.2894 -0.0329
   42CHL1    H8 3049   6.044   4.742   2.848 -1.5197  0.5883  1.6208
   42CHL1   C14 3050   6.007   4.912   2.973  0.0711 -0.5323  0.1114
   42CHL1   H14 3051   6.026   5.020   2.957  0.1037 -0.9012 -3.1376
   42CHL1   C15 3052   6.088   4.873   3.102 -0.0064  0.2910  0.0869
   42CHL1  H15A 3053   6.122   4.768   3.107  2.5814  1.0998  1.5352
   42CHL1  H15B 3054   6.184   4.930   3.099  0.0355  0.1982 -0.5669
   42CHL1   C16 3055   5.994   4.904   3.221  0.2565 -0.0322  0.2840
   42CHL1  H16A 3056   5.984   4.813   3.284 -0.4805  1.0350  1.7373
   42CHL1  H16B 3057   6.034   4.984   3.286 -3.1644  0.0582  2.5280
   42CHL1   C17 3058   5.854   4.945   3.150  0.4692  0.2545 -0.1539
   42CHL1   H17 3059   5.864   5.055   3.141  1.3927  0.2790  0.9309
   42CHL1   C13 3060   5.863   4.887   3.005 -0.2304 -0.1661 -0.4829
   42CHL1   C18 3061   5.849   4.735   3.021  0.3384  0.1172 -0.3337
   42CHL1  H18A 3062   5.902   4.695   3.111 -1.3160  1.2543  1.2175
   42CHL1  H18B 3063   5.742   4.726   3.049  0.6057 -1.6382  0.2738
   42CHL1  H18C 3064   5.871   4.683   2.925 -1.8851  0.3799 -1.0525
   42CHL1   C12 3065   5.774   4.950   2.898 -0.7762 -0.3027  0.2556
   42CHL1  H12A 3066   5.667   4.923   2.916 -0.7779 -0.0500  0.6346
   42CHL1  H12B 3067   5.794   5.059   2.903 -0.3310 -0.1164 -3.1206
   42CHL1   C11 3068   5.810   4.902   2.761 -0.3659 -0.1914  1.0131
   42CHL1  H11A 3069   5.772   4.799   2.742  1.3288 -0.4909 -1.1583
   42CHL1  H11B 3070   5.764   4.980   2.696  0.5903  0.3646  0.9991
   42CHL1    C9 3071   5.969   4.902   2.726 -0.1361 -0.3289 -0.1260
   42CHL1    H9 3072   5.986   5.012   2.716  1.3966 -0.4349  0.8971
   42CHL1   C10 3073   6.016   4.845   2.594  0.1171  0.0953  0.0267
   42CHL1   C19 3074   5.971   4.695   2.588  0.4640 -0.1746  0.0368
   42CHL1  H19A 3075   5.862   4.686   2.604 -0.1588  4.0625 -0.6815
   42CHL1  H19B 3076   5.991   4.647   2.490 -1.8793 -2.3581  0.5270
   42CHL1  H19C 3077   6.029   4.629   2.656  1.6273 -0.1753 -0.9327
   42CHL1    C1 3078   5.950   4.937   2.483  0.6373 -1.1963  0.2364
   42CHL1   H1A 3079   5.841   4.922   2.494  0.2201  0.1387 -1.6442
   42CHL1   H1B 3080   5.973   5.043   2.505 -0.4373 -1.0303  0.5782
   42CHL1    C2 3081   6.002   4.900   2.333  0.3982 -0.1525 -0.3520
   42CHL1   H2A 3082   5.951   4.968   2.262 -1.2501 -0.6216  0.3295
   42CHL1   H2B 3083   5.958   4.806   2.291 -1.2626  0.7724 -0.7874
   42CHL1   C20 3084   5.736   4.916   3.230  0.2656 -0.5671 -0.0354
   42CHL1   H20 3085   5.714   4.808   3.244 -2.6473 -0.0648 -0.2014
   42CHL1   C21 3086   5.605   4.968   3.155 -0.0007 -0.4616 -0.1190
   42CHL1  H21A 3087   5.528   4.982   3.233  0.4634  2.6011 -0.0843
   42CHL1  H21B 3088   5.566   4.889   3.087  2.5065 -1.8184 -0.0800
   42CHL1  H21C 3089   5.631   5.065   3.107  0.2704 -0.5809 -0.2130
   42CHL1   C22 3090   5.752   4.971   3.367  0.3471 -0.8045 -0.5119
   42CHL1  H22A 3091   5.846   5.020   3.401 -1.7712  1.7490  2.1205
   42CHL1  H22B 3092   5.703   5.070   3.369  0.5508 -0.6525 -1.9701
   42CHL1   C23 3093   5.683   4.888   3.477  0.3504  0.0153 -0.1315
   42CHL1  H23A 3094   5.575   4.891   3.453  0.7153  2.3826 -1.7199
   42CHL1  H23B 3095   5.719   4.783   3.473 -1.6105 -0.6836 -0.5280
   42CHL1   C24 3096   5.689   4.942   3.623  0.1243  0.5156  0.3976
   42CHL1  H24A 3097   5.798   4.946   3.647 -0.2015 -1.0300  2.4007
   42CHL1  H24B 3098   5.641   5.042   3.618 -1.3850 -0.2391 -1.4658
   42CHL1   C25 3099   5.616   4.852   3.728 -0.2570 -0.0752 -0.1915
   42CHL1   H25 3100   5.643   4.747   3.703 -0.2438 -0.3249  0.8126
   42CHL1   C26 3101   5.665   4.873   3.875  0.0272 -0.2677 -0.1568
   42CHL1  H26A 3102   5.771   4.840   3.873 -0.7136 -2.9005 -2.4046
   42CHL1  H26B 3103   5.641   4.976   3.908  1.7979  0.4750 -1.0407
   42CHL1  H26C 3104   5.610   4.804   3.942  1.6818 -2.5179 -0.9885
   42CHL1   C27 3105   5.463   4.872   3.726  0.0265  0.1078  0.1993
   42CHL1  H27A 3106   5.435   4.862   3.619  1.5591  0.0362 -0.2240
   42CHL1  H27B 3107   5.399   4.801   3.782 -0.0278 -1.0137 -1.2197
   42CHL1  H27C 3108   5.423   4.973   3.750  0.7172  0.3196  0.4908
   43CHL1    C3 3109   2.008   5.746   2.253 -0.1011  0.4509  0.1145
   43CHL1    H3 3110   1.972   5.850   2.265  1.8536  1.3774 -1.5619
   43CHL1    O3 3111   1.985   5.706   2.118  0.0371 -0.1430  0.0439
   43CHL1   H3' 3112   2.006   5.613   2.120 -0.3645 -0.2335  1.5538
   43CHL1    C4 3113   2.160   5.734   2.280 -0.0907 -0.8642  0.3618
   43CHL1   H4A 3114   2.183   5.625   2.276  0.5072 -0.7799  1.2776
   43CHL1   H4B 3115   2.220   5.793   2.208 -1.4031  0.7003  0.4954
   43CHL1    C5 3116   2.185   5.786   2.420 -0.0378  0.3837 -0.6536
   43CHL1    C6 3117   2.255   5.900   2.445 -0.0355  0.4136 -1.1375
   43CHL1    H6 3118   2.297   5.951   2.357  3.6664 -0.2219  0.1081
   43CHL1    C7 3119   2.301   5.945   2.584 -0.1508 -0.0617 -0.2138
   43CHL1   H7A 3120   2.409   5.966   2.575 -0.2482  0.7812  0.4353
   43CHL1   H7B 3121   2.251   6.041   2.611  0.1755 -0.7884  3.4387
   43CHL1    C8 3122   2.274   5.835   2.685 -0.2802  0.4439 -0.3927
   43CHL1    H8 3123   2.340   5.750   2.659 -2.3746 -0.5733 -2.9557
   43CHL1   C14 3124   2.299   5.882   2.835  0.1948 -1.1812  0.2929
   43CHL1   H14 3125   2.231   5.967   2.857 -0.0844 -1.0073 -1.1769
   43CHL1   C15 3126   2.438   5.941   2.873 -0.7248 -0.3240 -0.0808
   43CHL1  H15A 3127   2.528   5.889   2.834 -0.1179  0.0488  0.7862
   43CHL1  H15B 3128   2.458   6.049   2.852 -1.8977 -0.1542 -0.4231
   43CHL1   C16 3129   2.440   5.924   3.030  0.2475 -0.3601  0.0494
   43CHL1  H16A 3130   2.537   5.875   3.055  0.6896  0.8146  0.7199
   43CHL1  H16B 3131   2.439   6.022   3.082 -0.1432 -0.2606 -0.1451
   43CHL1   C17 3132   2.318   5.841   3.069  0.3882  0.5517  0.6012
   43CHL1   H17 3133   2.242   5.919   3.091  2.1747  2.2528  0.9310
   43CHL1   C13 3134   2.270   5.771   2.934 -0.4053 -0.4971  0.0980
   43CHL1   C18 3135   2.367   5.656   2.912 -0.5829 -0.5870  0.0263
   43CHL1  H18A 3136   2.468   5.683   2.950 -0.9195  0.7254  0.0439
   43CHL1  H18B 3137   2.327   5.568   2.967 -2.5960 -0.6123 -1.3534
   43CHL1  H18C 3138   2.381   5.628   2.806  1.1062 -0.5069  0.1968
   43CHL1   C12 3139   2.120   5.746   2.932  0.3574  0.1755 -0.0309
   43CHL1  H12A 3140   2.091   5.681   3.017  2.0788 -0.8840 -0.2056
   43CHL1  H12B 3141   2.069   5.841   2.959 -0.0463  0.8651 -2.9365
   43CHL1   C11 3142   2.080   5.696   2.795  0.3949  0.0038  0.2878
   43CHL1  H11A 3143   2.119   5.592   2.784  1.6329  0.5561 -0.7083
   43CHL1  H11B 3144   1.970   5.680   2.787  0.2780  1.0506 -0.3822
   43CHL1    C9 3145   2.135   5.772   2.669 -0.1603 -0.7144 -0.6444
   43CHL1    H9 3146   2.066   5.859   2.662  2.0800  1.1967 -0.3571
   43CHL1   C10 3147   2.132   5.700   2.527  0.2994 -0.2725  0.0961
   43CHL1   C19 3148   2.202   5.563   2.538  0.6005 -1.0418 -0.2184
   43CHL1  H19A 3149   2.248   5.552   2.638 -0.0594 -1.0081  0.0936
   43CHL1  H19B 3150   2.136   5.477   2.516  1.1097 -1.5407  0.1791
   43CHL1  H19C 3151   2.287   5.543   2.469  1.0367 -0.1213  0.0325
   43CHL1    C1 3152   1.982   5.672   2.492 -0.1647 -0.5480  0.2406
   43CHL1   H1A 3153   1.943   5.589   2.553  1.2438 -1.4525 -0.0343
   43CHL1   H1B 3154   1.927   5.764   2.521  1.2025  0.7761 -1.1189
   43CHL1    C2 3155   1.937   5.652   2.346 -0.7151  0.7764  0.1310
   43CHL1   H2A 3156   1.828   5.658   2.325 -0.4466 -1.6507 -2.5309
   43CHL1   H2B 3157   1.971   5.552   2.311 -2.5154  1.1370 -2.9363
   43CHL1   C20 3158   2.349   5.742   3.191  0.4422 -0.0561  0.2064
   43CHL1   H20 3159   2.441   5.683   3.169 -0.0997 -0.7959 -0.1281
   43CHL1   C21 3160   2.229   5.647   3.219  0.8254  0.0768  0.1816
   43CHL1  H21A 3161   2.211   5.579   3.134  1.2585  0.5753 -0.3122
   43CHL1  H21B 3162   2.136   5.707   3.229  0.9893  0.9944 -2.9635
   43CHL1  H21C 3163   2.249   5.589   3.312 -1.8719  0.1125  0.8681
   43CHL1   C22 3164   2.381   5.834   3.314 -0.3161  0.2206  0.1537
   43CHL1  H22A 3165   2.465   5.904   3.294  0.5580 -0.8122  0.1185
   43CHL1  H22B 3166   2.290   5.892   3.342  0.1697  1.3190 -0.4561
   43CHL1   C23 3167   2.419   5.758   3.445 -0.0149  0.1919 -0.5592
   43CHL1  H23A 3168   2.327   5.710   3.485 -0.6829 -0.4816 -2.7353
   43CHL1  H23B 3169   2.487   5.672   3.430  1.2330 -0.5511  6.2952
   43CHL1   C24 3170   2.472   5.850   3.563 -0.1567  0.4030  0.2316
   43CHL1  H24A 3171   2.536   5.932   3.525  1.5815 -0.6102  0.8539
   43CHL1  H24B 3172   2.384   5.901   3.607 -0.9330 -1.9340  1.5833
   43CHL1   C25 3173   2.544   5.779   3.674 -0.4997  0.4639 -0.6447
   43CHL1   H25 3174   2.483   5.692   3.708  2.2758 -0.7405  1.6697
   43CHL1   C26 3175   2.695   5.750   3.652  0.2641 -0.1958  0.7141
   43CHL1  H26A 3176   2.745   5.705   3.741 -0.5528  0.6228  1.5966
   43CHL1  H26B 3177   2.700   5.670   3.575  1.0667 -0.5835  1.1514
   43CHL1  H26C 3178   2.750   5.836   3.608  0.8644 -0.8274  0.2026
   43CHL1   C27 3179   2.547   5.862   3.806  0.4604 -0.6421  0.4253
   43CHL1  H27A 3180   2.596   5.812   3.892 -0.4932  0.2439  1.5187
   43CHL1  H27B 3181   2.591   5.962   3.786  0.5440 -1.2544 -3.1659
   43CHL1  H27C 3182   2.447   5.885   3.847  1.1181  3.4182  0.1807
   44CHL1    C3 3183   5.559   5.727   2.568 -0.2355  0.0444  0.0293
   44CHL1    H3 3184   5.550   5.826   2.617  1.6907  1.6461 -2.5710
   44CHL1    O3 3185   5.570   5.744   2.430  0.1474 -0.0461 -0.4258
   44CHL1   H3' 3186   5.551   5.662   2.385 -0.7420  0.0806 -0.3031
   44CHL1    C4 3187   5.689   5.661   2.619  0.9371  0.3192 -0.6175
   44CHL1   H4A 3188   5.711   5.569   2.561 -1.6274 -0.0731 -1.0729
   44CHL1   H4B 3189   5.771   5.735   2.605  1.5541 -0.2058  0.1250
   44CHL1    C5 3190   5.677   5.637   2.767 -0.0377 -0.8380  0.1891
   44CHL1    C6 3191   5.760   5.706   2.853  0.4712 -0.6473  0.9624
   44CHL1    H6 3192   5.828   5.779   2.806 -1.2740  1.0279  0.9536
   44CHL1    C7 3193   5.761   5.690   3.004 -0.7076 -0.4310  0.1505
   44CHL1   H7A 3194   5.869   5.680   3.029 -0.9059  0.5402  1.4770
   44CHL1   H7B 3195   5.727   5.786   3.048 -0.4640  1.0780 -2.6773
   44CHL1    C8 3196   5.677   5.572   3.052  0.2516 -0.4653 -0.1603
   44CHL1    H8 3197   5.738   5.479   3.049  2.0880  0.4974  2.7114
   44CHL1   C14 3198   5.640   5.585   3.197 -0.4229  0.4014 -0.0741
   44CHL1   H14 3199   5.585   5.681   3.209  0.4217  1.0930 -1.4549
   44CHL1   C15 3200   5.755   5.598   3.301  0.1629 -0.7268  0.2024
   44CHL1  H15A 3201   5.845   5.540   3.270  0.6631 -0.3588  0.9438
   44CHL1  H15B 3202   5.791   5.702   3.318  0.9878 -0.8747 -0.5629
   44CHL1   C16 3203   5.695   5.549   3.430  0.2489 -0.0682 -0.2250
   44CHL1  H16A 3204   5.750   5.462   3.473  2.3891  0.7790 -1.0969
   44CHL1  H16B 3205   5.693   5.620   3.516 -1.8687  0.2870 -0.5241
   44CHL1   C17 3206   5.548   5.499   3.403 -0.1303 -0.4624  0.2184
   44CHL1   H17 3207   5.486   5.591   3.410  1.0186  0.2364  1.8115
   44CHL1   C13 3208   5.553   5.474   3.248  0.4832  0.2610  0.0716
   44CHL1   C18 3209   5.618   5.335   3.222 -0.2362  0.4413 -0.8289
   44CHL1  H18A 3210   5.553   5.251   3.256  0.7763  0.0455  0.1765
   44CHL1  H18B 3211   5.636   5.317   3.114  0.6582  0.4253 -0.6834
   44CHL1  H18C 3212   5.711   5.333   3.283  0.2174  0.7234 -1.5068
   44CHL1   C12 3213   5.417   5.486   3.179  0.2111  0.3363 -0.4172
   44CHL1  H12A 3214   5.358   5.395   3.201  0.6077  0.4253  1.1325
   44CHL1  H12B 3215   5.358   5.575   3.209  0.1642  0.2682 -0.3075
   44CHL1   C11 3216   5.431   5.475   3.030  0.0500  0.1164  0.3689
   44CHL1  H11A 3217   5.465   5.371   3.007  0.8920  0.3948  0.3493
   44CHL1  H11B 3218   5.334   5.489   2.978  0.8247 -0.4695 -1.3098
   44CHL1    C9 3219   5.542   5.567   2.969 -0.4261 -0.3107  0.1787
   44CHL1    H9 3220   5.503   5.669   2.986  1.2345  0.2304  1.0341
   44CHL1   C10 3221   5.567   5.540   2.815 -0.1654 -0.2271  0.3711
   44CHL1   C19 3222   5.603   5.391   2.788 -1.2389 -0.0631 -0.0461
   44CHL1  H19A 3223   5.518   5.325   2.818 -1.4785  1.0082  1.8118
   44CHL1  H19B 3224   5.620   5.373   2.680  1.2515 -1.2418  0.4770
   44CHL1  H19C 3225   5.694   5.354   2.839 -1.1964 -0.6390 -0.5334
   44CHL1    C1 3226   5.432   5.584   2.736  0.0160  0.6420  0.5164
   44CHL1   H1A 3227   5.352   5.506   2.740  0.3896  0.2941  2.7538
   44CHL1   H1B 3228   5.380   5.658   2.800 -0.4537  1.7524 -1.0947
   44CHL1    C2 3229   5.442   5.632   2.591  0.6681  0.1817 -0.0480
   44CHL1   H2A 3230   5.353   5.691   2.562  0.6039  0.1043 -0.0077
   44CHL1   H2B 3231   5.431   5.540   2.530 -0.8352 -0.6424  1.4030
   44CHL1   C20 3232   5.487   5.391   3.497  0.4310 -0.0145  0.3059
   44CHL1   H20 3233   5.498   5.288   3.457 -0.9661 -0.0080 -0.1471
   44CHL1   C21 3234   5.335   5.427   3.510  0.1602  0.0520  0.9804
   44CHL1  H21A 3235   5.285   5.340   3.557 -0.7809  1.3096  2.3996
   44CHL1  H21B 3236   5.294   5.431   3.407 -0.2898 -2.4817  0.9892
   44CHL1  H21C 3237   5.317   5.522   3.565  1.9328  1.4360 -0.7051
   44CHL1   C22 3238   5.544   5.386   3.635  0.2037 -0.3369 -0.4408
   44CHL1  H22A 3239   5.644   5.339   3.625 -0.4218 -1.6158 -0.8593
   44CHL1  H22B 3240   5.545   5.485   3.686  0.9763  0.4327 -1.8911
   44CHL1   C23 3241   5.474   5.284   3.729 -0.4731  0.0580 -1.2936
   44CHL1  H23A 3242   5.379   5.329   3.764 -1.7680 -1.8768 -2.1596
   44CHL1  H23B 3243   5.446   5.193   3.671 -1.5677 -0.6685  0.2922
   44CHL1   C24 3244   5.565   5.229   3.840 -1.0539 -0.4578 -0.0271
   44CHL1  H24A 3245   5.518   5.160   3.913 -0.9189 -0.0173  0.4792
   44CHL1  H24B 3246   5.645   5.176   3.784 -0.5809  1.7584 -1.5567
   44CHL1   C25 3247   5.638   5.332   3.928  0.4149 -0.4853 -0.1142
   44CHL1   H25 3248   5.694   5.400   3.860  0.2182  0.2174  0.4221
   44CHL1   C26 3249   5.544   5.405   4.027 -0.1347 -0.0448  0.5284
   44CHL1  H26A 3250   5.603   5.461   4.102  0.6963  0.4143 -0.4429
   44CHL1  H26B 3251   5.478   5.474   3.970 -0.0811 -0.2072  0.2663
   44CHL1  H26C 3252   5.475   5.331   4.073 -0.3615 -1.1482 -1.4707
   44CHL1   C27 3253   5.741   5.252   4.016  0.9345  0.5247  0.1246
   44CHL1  H27A 3254   5.800   5.315   4.086  1.3560 -0.0914  0.3334
   44CHL1  H27B 3255   5.681   5.183   4.079 -1.0757 -0.1126 -2.3350
   44CHL1  H27C 3256   5.807   5.190   3.952  0.6248  1.9582 -1.6667
   45CHL1    C3 3257   0.657   4.876   2.197  0.5832 -0.9374 -0.2750
   45CHL1    H3 3258   0.716   4.789   2.231  1.9482 -0.6078 -1.6920
   45CHL1    O3 3259   0.611   4.849   2.061  0.0538  0.2223  0.2125
   45CHL1   H3' 3260   0.543   4.912   2.035 -0.2026  1.2341  2.9818
   45CHL1    C4 3261   0.523   4.888   2.283 -0.5322 -0.0492  0.3146
   45CHL1   H4A 3262   0.470   4.975   2.239  0.2316  0.4593  0.3673
   45CHL1   H4B 3263   0.465   4.794   2.272 -2.3304  1.1948 -1.5469
   45CHL1    C5 3264   0.563   4.922   2.428  0.0232 -0.0693 -0.3338
   45CHL1    C6 3265   0.532   4.844   2.533  0.1955  0.2622  0.5400
   45CHL1    H6 3266   0.470   4.755   2.514 -3.0416  2.3759  0.4165
   45CHL1    C7 3267   0.572   4.871   2.677  0.0883 -0.0084  0.2249
   45CHL1   H7A 3268   0.488   4.853   2.747  1.2639 -3.2235  0.9665
   45CHL1   H7B 3269   0.657   4.805   2.705 -0.6384 -1.0367  0.0741
   45CHL1    C8 3270   0.608   5.018   2.691 -0.4040  0.2694 -0.8618
   45CHL1    H8 3271   0.516   5.080   2.677  1.1516  2.6252 -1.2703
   45CHL1   C14 3272   0.673   5.049   2.831  0.0433  0.9218 -0.1694
   45CHL1   H14 3273   0.771   4.998   2.836 -0.8598 -0.8487  0.4165
   45CHL1   C15 3274   0.602   5.002   2.964  0.7564  0.1206 -0.4339
   45CHL1  H15A 3275   0.495   4.974   2.947  1.5383 -1.4138 -3.6250
   45CHL1  H15B 3276   0.647   4.910   3.005 -0.2152 -0.0144  0.3714
   45CHL1   C16 3277   0.624   5.115   3.061  0.5097  0.1441 -0.5198
   45CHL1  H16A 3278   0.532   5.173   3.082 -0.3899 -0.6962 -1.9961
   45CHL1  H16B 3279   0.669   5.083   3.158  3.1665  0.3579 -1.5851
   45CHL1   C17 3280   0.727   5.209   2.995  0.1304 -0.1511 -0.0814
   45CHL1   H17 3281   0.830   5.166   3.002  0.2101  0.0938  0.2177
   45CHL1   C13 3282   0.691   5.200   2.845  0.7037 -0.3829 -0.5585
   45CHL1   C18 3283   0.559   5.280   2.822  0.6498  0.9664  0.6640
   45CHL1  H18A 3284   0.517   5.281   2.719 -0.7052 -3.9676  0.8768
   45CHL1  H18B 3285   0.479   5.219   2.871  1.3246 -0.6934 -0.1978
   45CHL1  H18C 3286   0.554   5.381   2.867  2.2661  0.7642  1.3622
   45CHL1   C12 3287   0.798   5.248   2.754  0.7385  0.1447  0.0300
   45CHL1  H12A 3288   0.825   5.355   2.761  0.1396  0.2577  0.6732
   45CHL1  H12B 3289   0.892   5.192   2.777  0.2813  0.0602  1.8191
   45CHL1   C11 3290   0.764   5.211   2.613  0.1870  0.0636  0.4577
   45CHL1  H11A 3291   0.693   5.292   2.586  1.4559  0.4933 -1.8992
   45CHL1  H11B 3292   0.855   5.238   2.555 -0.4185  0.2759 -0.4171
   45CHL1    C9 3293   0.704   5.070   2.589  0.5144  0.9980 -0.1312
   45CHL1    H9 3294   0.789   5.000   2.605 -0.4809  0.1455  1.7502
   45CHL1   C10 3295   0.653   5.048   2.444 -0.0613 -0.0540 -0.2453
   45CHL1   C19 3296   0.571   5.171   2.396 -0.4466 -0.1786 -0.0753
   45CHL1  H19A 3297   0.633   5.259   2.370 -1.5168  0.4268 -0.6524
   45CHL1  H19B 3298   0.512   5.159   2.302 -1.5811  0.9508  0.4610
   45CHL1  H19C 3299   0.497   5.195   2.476 -0.6031 -0.2206 -0.2067
   45CHL1    C1 3300   0.778   5.033   2.349  0.1116 -0.1606 -0.7264
   45CHL1   H1A 3301   0.833   5.130   2.349  1.1446 -0.6388  2.3600
   45CHL1   H1B 3302   0.848   4.959   2.393 -0.1226  0.5710  0.9630
   45CHL1    C2 3303   0.743   5.001   2.202  0.6179  0.2921  0.2724
   45CHL1   H2A 3304   0.841   5.001   2.150  0.5571 -1.1125  0.1218
   45CHL1   H2B 3305   0.677   5.081   2.163 -0.2632  0.3954  1.8957
   45CHL1   C20 3306   0.730   5.348   3.064  0.8611  0.1588  0.7244
   45CHL1   H20 3307   0.625   5.382   3.073  0.7795  0.1466 -0.1433
   45CHL1   C21 3308   0.805   5.466   2.992  0.4398 -0.5301 -0.2569
   45CHL1  H21A 3309   0.746   5.515   2.912 -0.9621  1.1430  1.6808
   45CHL1  H21B 3310   0.908   5.433   2.965  1.8076  0.7617  2.8312
   45CHL1  H21C 3311   0.810   5.546   3.070  0.7558 -2.3220  1.6490
   45CHL1   C22 3312   0.794   5.344   3.204 -0.0692  0.5608 -0.4063
   45CHL1  H22A 3313   0.796   5.240   3.243 -3.9517  1.0963  1.6917
   45CHL1  H22B 3314   0.898   5.383   3.201  0.5810 -1.0593  0.1327
   45CHL1   C23 3315   0.713   5.416   3.319  0.3257 -0.0377  0.1812
   45CHL1  H23A 3316   0.724   5.526   3.326  0.0881 -0.0767  1.5563
   45CHL1  H23B 3317   0.608   5.387   3.296  0.2574 -0.5554  1.0760
   45CHL1   C24 3318   0.751   5.376   3.459 -0.5980 -0.1453 -1.0862
   45CHL1  H24A 3319   0.742   5.266   3.460 -0.1652 -0.1820 -1.1398
   45CHL1  H24B 3320   0.856   5.398   3.487 -1.1982  2.0945 -0.3233
   45CHL1   C25 3321   0.661   5.424   3.565 -0.3984  0.2574 -0.3603
   45CHL1   H25 3322   0.560   5.390   3.534  0.2981 -2.3563 -0.0612
   45CHL1   C26 3323   0.699   5.344   3.692 -0.0800 -0.1203 -0.2239
   45CHL1  H26A 3324   0.694   5.235   3.672  1.7765 -0.5641  1.3787
   45CHL1  H26B 3325   0.800   5.364   3.735  0.5200 -3.2762  0.0316
   45CHL1  H26C 3326   0.623   5.353   3.772 -1.3920 -0.8272 -1.3560
   45CHL1   C27 3327   0.671   5.577   3.595  0.3422  0.0248 -0.0636
   45CHL1  H27A 3328   0.615   5.609   3.686  0.1946  0.8831 -0.4472
   45CHL1  H27B 3329   0.778   5.606   3.602  0.4810 -0.6853  1.1053
   45CHL1  H27C 3330   0.623   5.633   3.511 -0.4067  1.7040  1.4034
   46CHL1    C3 3331   4.392   6.285   2.135  0.0350 -0.1174  0.0144
   46CHL1    H3 3332   4.289   6.322   2.156  0.0419 -0.8058  1.3681
   46CHL1    O3 3333   4.413   6.266   2.002  0.2304  0.5907  0.1131
   46CHL1   H3' 3334   4.488   6.207   1.993  0.5586  1.0257 -0.0185
   46CHL1    C4 3335   4.496   6.382   2.193  0.1920  0.1029  0.3221
   46CHL1   H4A 3336   4.604   6.361   2.181  0.3131 -0.1387  1.6711
   46CHL1   H4B 3337   4.468   6.470   2.131 -1.1579  0.2984  1.1760
   46CHL1    C5 3338   4.471   6.404   2.337 -0.2719  0.2635  0.2495
   46CHL1    C6 3339   4.452   6.528   2.384 -0.1971  0.0332  0.1817
   46CHL1    H6 3340   4.467   6.612   2.315 -0.9600 -0.1248 -0.1957
   46CHL1    C7 3341   4.433   6.564   2.531  0.6566 -0.3828  0.7646
   46CHL1   H7A 3342   4.510   6.639   2.556  1.2781 -0.2344 -1.3761
   46CHL1   H7B 3343   4.330   6.604   2.540 -0.2550 -2.3287 -0.3121
   46CHL1    C8 3344   4.452   6.447   2.625  0.3661  0.2422 -0.4291
   46CHL1    H8 3345   4.562   6.435   2.637  1.3271  4.4295 -3.0185
   46CHL1   C14 3346   4.385   6.465   2.762 -0.3755  0.1443  0.2065
   46CHL1   H14 3347   4.276   6.470   2.742 -0.3748 -2.7858 -0.9970
   46CHL1   C15 3348   4.421   6.597   2.832 -0.2504 -0.3708 -0.2223
   46CHL1  H15A 3349   4.522   6.629   2.798  0.2736 -1.1129  0.6107
   46CHL1  H15B 3350   4.354   6.681   2.805  0.0863  0.4415  1.3365
   46CHL1   C16 3351   4.413   6.562   2.980  0.7297 -0.3983 -0.3164
   46CHL1  H16A 3352   4.520   6.559   3.010  1.7183 -0.4486 -3.4721
   46CHL1  H16B 3353   4.343   6.618   3.046 -1.9714 -2.9407 -0.8531
   46CHL1   C17 3354   4.358   6.416   2.992 -0.2559  0.2422 -0.5658
   46CHL1   H17 3355   4.247   6.422   2.989 -0.3172  0.8295  1.4954
   46CHL1   C13 3356   4.407   6.354   2.855 -0.1321 -0.0515 -0.5749
   46CHL1   C18 3357   4.568   6.325   2.874  0.4915 -0.3923 -0.3591
   46CHL1  H18A 3358   4.590   6.244   2.948 -0.2998 -0.0425  0.2666
   46CHL1  H18B 3359   4.625   6.297   2.782  1.6469  1.2042 -0.1705
   46CHL1  H18C 3360   4.622   6.416   2.906 -0.0881 -0.3884  0.6429
   46CHL1   C12 3361   4.341   6.228   2.809 -0.1809  0.2823 -0.2163
   46CHL1  H12A 3362   4.368   6.136   2.865  1.3799 -1.9697 -4.1899
   46CHL1  H12B 3363   4.233   6.252   2.816 -0.4107 -1.1606  2.2169
   46CHL1   C11 3364   4.381   6.198   2.664  0.4247 -0.3872  0.5260
   46CHL1  H11A 3365   4.483   6.157   2.681  1.3158  1.5533  0.1588
   46CHL1  H11B 3366   4.307   6.127   2.622 -1.2727  1.1107  0.8117
   46CHL1    C9 3367   4.389   6.321   2.562  0.0017  0.0501  0.5796
   46CHL1    H9 3368   4.284   6.350   2.538  0.3564 -0.3426 -1.6460
   46CHL1   C10 3369   4.452   6.284   2.428 -0.5442 -0.0126 -0.1983
   46CHL1   C19 3370   4.592   6.225   2.450  0.3104 -0.2421 -0.1845
   46CHL1  H19A 3371   4.578   6.121   2.486  0.3871 -1.0561 -2.3416
   46CHL1  H19B 3372   4.649   6.213   2.355 -0.6718  0.9747 -0.9588
   46CHL1  H19C 3373   4.649   6.290   2.519  1.5181 -2.0918  0.6308
   46CHL1    C1 3374   4.369   6.175   2.362 -0.4005 -0.1400  0.8085
   46CHL1   H1A 3375   4.385   6.079   2.416  1.0504 -0.5274 -0.2715
   46CHL1   H1B 3376   4.261   6.199   2.357 -0.2300  0.2865 -2.6746
   46CHL1    C2 3377   4.410   6.155   2.210  0.3690 -0.4190 -0.5857
   46CHL1   H2A 3378   4.364   6.072   2.153  0.1478  0.7562 -2.1739
   46CHL1   H2B 3379   4.516   6.123   2.197  0.9644  2.1655 -2.9397
   46CHL1   C20 3380   4.395   6.342   3.115  0.4623 -0.0574  0.4166
   46CHL1   H20 3381   4.486   6.278   3.111  0.8462  0.4241  1.1722
   46CHL1   C21 3382   4.281   6.237   3.133  0.7993  0.7775  0.0515
   46CHL1  H21A 3383   4.177   6.276   3.140  0.5467  0.4910 -1.7656
   46CHL1  H21B 3384   4.295   6.183   3.229  1.4405 -1.9744 -1.4885
   46CHL1  H21C 3385   4.300   6.155   3.061  2.2955 -1.6005  2.9328
   46CHL1   C22 3386   4.412   6.434   3.241 -0.4876  0.5431  0.0138
   46CHL1  H22A 3387   4.476   6.520   3.213  1.1691 -0.8211 -0.5205
   46CHL1  H22B 3388   4.322   6.487   3.279  0.6235  2.0151  0.6437
   46CHL1   C23 3389   4.477   6.365   3.360 -0.5733  0.3440 -0.2011
   46CHL1  H23A 3390   4.395   6.307   3.407 -0.8072  0.2856 -0.6763
   46CHL1  H23B 3391   4.563   6.302   3.326  0.6144 -0.2782  3.4675
   46CHL1   C24 3392   4.532   6.478   3.448  0.0443  0.0245 -0.9359
   46CHL1  H24A 3393   4.602   6.544   3.391  0.1078 -0.4859 -1.4594
   46CHL1  H24B 3394   4.448   6.542   3.483 -1.2798 -1.0178 -2.0970
   46CHL1   C25 3395   4.604   6.412   3.570  0.4445  0.0562  0.5223
   46CHL1   H25 3396   4.673   6.341   3.520 -1.3351 -0.2838 -1.6477
   46CHL1   C26 3397   4.683   6.511   3.655 -0.3369  0.5478  0.7909
   46CHL1  H26A 3398   4.759   6.572   3.601  0.5239 -1.9863 -1.0547
   46CHL1  H26B 3399   4.614   6.575   3.715 -1.6062 -1.3944  1.4721
   46CHL1  H26C 3400   4.739   6.452   3.730 -0.0161  1.0587  0.9630
   46CHL1   C27 3401   4.503   6.340   3.663 -0.4549 -0.4825  0.1395
   46CHL1  H27A 3402   4.456   6.255   3.609 -2.5611  0.4567  0.3637
   46CHL1  H27B 3403   4.558   6.299   3.751  1.0365  2.9151  0.9396
   46CHL1  H27C 3404   4.426   6.411   3.701 -1.0455 -1.3836  0.6829
   47CHL1    C3 3405   1.105   1.383   2.470  0.6709  0.1645  0.4903
   47CHL1    H3 3406   1.011   1.438   2.494  1.1088  1.2977 -0.3017
   47CHL1    O3 3407   1.102   1.377   2.329  0.2009  0.6308  0.0426
   47CHL1   H3' 3408   1.181   1.326   2.310  1.8139  3.3606 -1.1843
   47CHL1    C4 3409   1.231   1.462   2.515  0.1170  0.4182 -0.8407
   47CHL1   H4A 3410   1.314   1.412   2.460 -1.7953 -2.2664 -1.4921
   47CHL1   H4B 3411   1.216   1.564   2.474 -2.1066  0.9883  1.1662
   47CHL1    C5 3412   1.246   1.459   2.670 -0.2560 -0.1440 -0.2122
   47CHL1    C6 3413   1.259   1.574   2.739 -0.1068 -0.5776 -0.1066
   47CHL1    H6 3414   1.270   1.673   2.691  0.9889 -1.2634 -1.3458
   47CHL1    C7 3415   1.292   1.578   2.890  0.1370 -0.3299 -0.4569
   47CHL1   H7A 3416   1.377   1.636   2.930  0.2637 -1.5565  1.1943
   47CHL1   H7B 3417   1.197   1.606   2.941 -0.1967 -2.6215  0.3096
   47CHL1    C8 3418   1.325   1.441   2.951  0.3013 -0.2301  0.1254
   47CHL1    H8 3419   1.431   1.415   2.930  0.1819 -1.9674  1.4685
   47CHL1   C14 3420   1.308   1.446   3.104  0.2610 -0.0931  0.3119
   47CHL1   H14 3421   1.202   1.475   3.117 -0.1261 -1.8518  1.5526
   47CHL1   C15 3422   1.385   1.552   3.171  0.6272  0.8912 -0.0425
   47CHL1  H15A 3423   1.488   1.549   3.130  0.4786 -2.4123 -0.4541
   47CHL1  H15B 3424   1.332   1.648   3.153 -2.7443 -0.8045  0.0125
   47CHL1   C16 3425   1.370   1.514   3.323  0.2333 -0.7722  0.0219
   47CHL1  H16A 3426   1.472   1.506   3.366 -0.3732 -0.2462  1.6127
   47CHL1  H16B 3427   1.308   1.586   3.380 -1.1346 -1.2098 -0.8569
   47CHL1   C17 3428   1.315   1.370   3.326 -0.4057 -0.4635  0.3031
   47CHL1   H17 3429   1.207   1.380   3.353 -0.1195  1.6367  0.8096
   47CHL1   C13 3430   1.339   1.319   3.183  0.4513  0.2377  0.1825
   47CHL1   C18 3431   1.492   1.283   3.163  0.2493 -0.5618  0.1183
   47CHL1  H18A 3432   1.566   1.335   3.228 -1.4672 -1.1771  2.6867
   47CHL1  H18B 3433   1.522   1.177   3.180  1.6445 -0.0435  1.0822
   47CHL1  H18C 3434   1.520   1.297   3.056 -1.4362 -3.0040 -0.7390
   47CHL1   C12 3435   1.242   1.215   3.122  0.3780 -0.1275 -0.4098
   47CHL1  H12A 3436   1.259   1.119   3.176 -0.0335  0.5873  1.0591
   47CHL1  H12B 3437   1.136   1.247   3.128  0.4313  0.3007 -1.5868
   47CHL1   C11 3438   1.264   1.202   2.964 -0.4728 -0.4515  0.4124
   47CHL1  H11A 3439   1.373   1.185   2.947 -0.6771 -1.5109  0.0726
   47CHL1  H11B 3440   1.211   1.117   2.916 -0.5169  1.0661 -2.4735
   47CHL1    C9 3441   1.234   1.336   2.890 -0.3289  0.2246 -0.2361
   47CHL1    H9 3442   1.129   1.365   2.913  0.3158  1.2716  1.5831
   47CHL1   C10 3443   1.242   1.322   2.739 -0.1498 -0.3704  0.5988
   47CHL1   C19 3444   1.362   1.237   2.688 -0.6645 -0.1522  0.8586
   47CHL1  H19A 3445   1.460   1.265   2.733 -0.3947 -1.4832  1.1377
   47CHL1  H19B 3446   1.353   1.128   2.709  0.0609 -0.5515 -0.7334
   47CHL1  H19C 3447   1.368   1.231   2.577  3.2615 -2.3202  1.0206
   47CHL1    C1 3448   1.113   1.251   2.691  0.1656 -0.2119  0.2334
   47CHL1   H1A 3449   1.098   1.155   2.743  1.2131  0.6406  2.2215
   47CHL1   H1B 3450   1.034   1.316   2.734  0.7834  0.4488  0.3977
   47CHL1    C2 3451   1.086   1.250   2.537 -1.0219 -0.1259 -0.0870
   47CHL1   H2A 3452   0.985   1.207   2.518 -0.8660  0.1450 -1.6250
   47CHL1   H2B 3453   1.165   1.185   2.494 -1.4401 -0.4822 -0.3141
   47CHL1   C20 3454   1.383   1.287   3.435 -0.1836 -0.2448  0.4275
   47CHL1   H20 3455   1.492   1.279   3.411 -0.0158  2.7645 -0.2612
   47CHL1   C21 3456   1.333   1.140   3.445  0.1794  0.4973 -0.7305
   47CHL1  H21A 3457   1.380   1.104   3.539 -1.3628  2.1610  0.7453
   47CHL1  H21B 3458   1.367   1.080   3.357  0.1095 -2.1223  0.9098
   47CHL1  H21C 3459   1.222   1.139   3.450  0.2152  1.4766  1.9345
   47CHL1   C22 3460   1.368   1.346   3.581 -0.8501  0.4911  0.1224
   47CHL1  H22A 3461   1.413   1.270   3.649  2.1798  0.4193 -1.7559
   47CHL1  H22B 3462   1.431   1.435   3.606 -2.6137  1.8850 -0.1837
   47CHL1   C23 3463   1.227   1.387   3.618 -0.6320 -0.6719 -0.7791
   47CHL1  H23A 3464   1.177   1.442   3.535 -1.6932  0.3853  0.5049
   47CHL1  H23B 3465   1.151   1.306   3.626 -1.8826  0.4394 -0.8925
   47CHL1   C24 3466   1.222   1.468   3.753 -0.2092 -0.2183  0.2365
   47CHL1  H24A 3467   1.295   1.552   3.746 -2.0522  1.3869 -0.7153
   47CHL1  H24B 3468   1.118   1.502   3.771 -1.1030 -1.7224 -1.7511
   47CHL1   C25 3469   1.259   1.381   3.870 -0.4888 -0.7509  0.6011
   47CHL1   H25 3470   1.346   1.316   3.845 -0.2078 -0.3676  0.5737
   47CHL1   C26 3471   1.323   1.449   3.988 -0.1350  0.3064  0.0351
   47CHL1  H26A 3472   1.366   1.380   4.064  1.2202  1.1932  0.1040
   47CHL1  H26B 3473   1.394   1.526   3.952 -1.0432  1.4440  0.5754
   47CHL1  H26C 3474   1.251   1.504   4.053 -1.5972 -0.5269 -0.8416
   47CHL1   C27 3475   1.144   1.285   3.905  0.3461  0.1583 -0.3279
   47CHL1  H27A 3476   1.180   1.197   3.962 -0.2084 -0.2171 -0.5488
   47CHL1  H27B 3477   1.073   1.340   3.971  1.7202  0.3405  1.0509
   47CHL1  H27C 3478   1.100   1.247   3.810  0.4093 -0.2399 -0.1995
   48CHL1    C3 3479   6.057   2.132   2.787  0.0878  0.1021 -0.4475
   48CHL1    H3 3480   6.028   2.217   2.722 -1.6466 -1.2721 -1.5767
   48CHL1    O3 3481   6.088   2.021   2.707 -0.7769  0.3628 -0.3183
   48CHL1   H3' 3482   6.115   1.956   2.771  0.0583  1.7226  0.7512
   48CHL1    C4 3483   6.175   2.169   2.875  0.2622 -0.1667  0.3336
   48CHL1   H4A 3484   6.210   2.077   2.925 -0.1418 -1.0850 -1.0324
   48CHL1   H4B 3485   6.253   2.202   2.804 -0.6989  0.8083 -0.3217
   48CHL1    C5 3486   6.144   2.281   2.974  0.3059 -0.1757 -0.1524
   48CHL1    C6 3487   6.207   2.397   2.982  1.1339 -0.3887 -0.0440
   48CHL1    H6 3488   6.299   2.403   2.921  1.0373  0.6679 -0.1004
   48CHL1    C7 3489   6.183   2.501   3.086 -0.2355 -0.4242  0.2975
   48CHL1   H7A 3490   6.281   2.544   3.116 -1.1264  1.6907  0.3309
   48CHL1   H7B 3491   6.117   2.582   3.047  0.3661  0.7092  1.5450
   48CHL1    C8 3492   6.108   2.446   3.213  0.4302 -0.0840 -0.0817
   48CHL1    H8 3493   6.181   2.380   3.267 -0.2041 -0.9352 -0.2412
   48CHL1   C14 3494   6.054   2.560   3.296 -0.9564 -0.3602  0.3355
   48CHL1   H14 3495   5.968   2.604   3.241 -1.6005 -2.2126 -0.1971
   48CHL1   C15 3496   6.145   2.670   3.337  0.5555 -0.5495  0.0595
   48CHL1  H15A 3497   6.246   2.625   3.345 -0.0035 -1.6161  1.5679
   48CHL1  H15B 3498   6.152   2.748   3.258 -0.7862  0.6406  1.0608
   48CHL1   C16 3499   6.085   2.730   3.462  0.2034 -0.2200 -1.1281
   48CHL1  H16A 3500   6.151   2.718   3.550  0.0023 -0.9740 -1.0722
   48CHL1  H16B 3501   6.059   2.838   3.451 -1.0079 -0.1534  1.5994
   48CHL1   C17 3502   5.957   2.652   3.485 -0.1977  0.1038 -0.2269
   48CHL1   H17 3503   5.876   2.702   3.426 -0.1609  1.3952  0.7699
   48CHL1   C13 3504   5.985   2.511   3.422  0.1545 -0.4816 -0.4470
   48CHL1   C18 3505   6.089   2.422   3.508  0.4751 -0.0505  0.5982
   48CHL1  H18A 3506   6.094   2.318   3.469 -1.9188  0.8990 -2.6897
   48CHL1  H18B 3507   6.191   2.466   3.514  2.0637 -3.4904  1.4570
   48CHL1  H18C 3508   6.033   2.417   3.604  0.6122  0.1704  0.6900
   48CHL1   C12 3509   5.868   2.422   3.389  0.6269  0.7340 -0.3066
   48CHL1  H12A 3510   5.830   2.361   3.473 -1.4214 -0.8835 -2.2473
   48CHL1  H12B 3511   5.780   2.476   3.347  0.6342  0.2027 -1.0465
   48CHL1   C11 3512   5.909   2.315   3.282 -0.4985 -0.3850 -0.6010
   48CHL1  H11A 3513   5.957   2.237   3.346 -0.5304  0.1944  0.1389
   48CHL1  H11B 3514   5.811   2.274   3.248 -0.2695 -0.2648 -1.4439
   48CHL1    C9 3515   5.992   2.368   3.169  0.0737  0.5022 -0.1554
   48CHL1    H9 3516   5.927   2.437   3.111 -0.6160  0.6186  0.7437
   48CHL1   C10 3517   6.018   2.249   3.068 -0.3564 -0.6216 -0.8776
   48CHL1   C19 3518   6.070   2.129   3.156  0.0313 -0.8973  0.2677
   48CHL1  H19A 3519   5.996   2.078   3.221 -0.4048  0.6434  1.0259
   48CHL1  H19B 3520   6.091   2.047   3.084 -0.9680  0.0475 -1.1511
   48CHL1  H19C 3521   6.154   2.147   3.226 -1.2380 -1.0802  1.8854
   48CHL1    C1 3522   5.903   2.203   2.978 -0.7520 -0.5675 -0.6127
   48CHL1   H1A 3523   5.815   2.184   3.043  0.7041 -0.0854  1.6152
   48CHL1   H1B 3524   5.874   2.283   2.906 -0.6482 -0.6143 -0.7083
   48CHL1    C2 3525   5.936   2.094   2.873 -0.1615  0.1441 -0.8477
   48CHL1   H2A 3526   5.851   2.075   2.805 -0.2481 -2.5098 -0.1029
   48CHL1   H2B 3527   5.945   1.998   2.927 -0.9838  0.6272  0.1892
   48CHL1   C20 3528   5.914   2.660   3.631  0.4772  0.2490 -0.2003
   48CHL1   H20 3529   5.998   2.621   3.693  0.0924  0.2951  0.3603
   48CHL1   C21 3530   5.793   2.577   3.658  0.3126 -0.7386 -0.2184
   48CHL1  H21A 3531   5.720   2.571   3.575 -0.3642 -0.8778  0.3838
   48CHL1  H21B 3532   5.728   2.614   3.740  2.1642 -0.2168  1.0715
   48CHL1  H21C 3533   5.817   2.472   3.684  1.3631 -0.2781  0.7720
   48CHL1   C22 3534   5.881   2.805   3.677  0.1800 -0.4660 -0.3661
   48CHL1  H22A 3535   5.822   2.806   3.771  1.7467  1.5936  0.6809
   48CHL1  H22B 3536   5.979   2.853   3.698 -0.7007  0.3994  2.2669
   48CHL1   C23 3537   5.775   2.885   3.585  0.0608  0.1507 -0.4130
   48CHL1  H23A 3538   5.815   2.946   3.501  0.7223  0.0250 -0.1930
   48CHL1  H23B 3539   5.700   2.818   3.537  1.4991 -1.4365 -0.5213
   48CHL1   C24 3540   5.702   2.985   3.675 -0.2140  0.0967  0.6146
   48CHL1  H24A 3541   5.633   2.926   3.739  1.7501 -0.6460  2.1511
   48CHL1  H24B 3542   5.775   3.028   3.747 -1.8348  0.5982  2.0042
   48CHL1   C25 3543   5.649   3.108   3.592  1.1585 -0.0226  0.4461
   48CHL1   H25 3544   5.731   3.171   3.551  1.0814 -0.0696  0.2236
   48CHL1   C26 3545   5.562   3.072   3.469 -0.2201 -0.6535  0.8622
   48CHL1  H26A 3546   5.514   3.167   3.435 -1.1217 -0.6761  2.0112
   48CHL1  H26B 3547   5.619   3.021   3.389 -1.7201 -0.4497 -0.3845
   48CHL1  H26C 3548   5.476   3.005   3.492  0.1200 -1.5789 -0.4703
   48CHL1   C27 3549   5.572   3.216   3.684  0.1434  1.0302  0.2060
   48CHL1  H27A 3550   5.475   3.175   3.720  1.4277 -0.9970  1.5110
   48CHL1  H27B 3551   5.625   3.242   3.777  1.1984 -3.5298  1.1370
   48CHL1  H27C 3552   5.560   3.300   3.612  1.0346 -0.1521 -1.3844
   49CHL1    C3 3553   0.778   6.204   2.582 -0.2691  0.1844  0.5527
   49CHL1    H3 3554   0.888   6.191   2.569 -0.6002 -0.2301 -2.7264
   49CHL1    O3 3555   0.727   6.252   2.458  0.1881  0.7105  0.1572
   49CHL1   H3' 3556   0.634   6.229   2.466  0.6721 -1.7452 -0.5241
   49CHL1    C4 3557   0.725   6.058   2.625  0.2007 -0.4301  0.8614
   49CHL1   H4A 3558   0.615   6.069   2.634  0.4652  1.4283  2.5715
   49CHL1   H4B 3559   0.747   5.979   2.551 -0.9203  0.5470 -0.5823
   49CHL1    C5 3560   0.783   6.015   2.760 -0.4241  0.0526  0.0002
   49CHL1    C6 3561   0.845   5.897   2.782  0.0490  0.3149  0.1931
   49CHL1    H6 3562   0.862   5.827   2.700 -1.5105  0.7375 -0.5249
   49CHL1    C7 3563   0.897   5.856   2.919 -0.0831 -0.1139  0.2618
   49CHL1   H7A 3564   0.845   5.760   2.942 -2.5121  0.2106 -3.0630
   49CHL1   H7B 3565   1.007   5.862   2.923  0.1843  1.7262 -4.0603
   49CHL1    C8 3566   0.837   5.938   3.035  0.1356  0.4929 -0.5084
   49CHL1    H8 3567   0.733   5.903   3.051  0.7936 -0.7457  1.3397
   49CHL1   C14 3568   0.896   5.908   3.177 -0.1511  0.0352  0.2020
   49CHL1   H14 3569   1.003   5.935   3.166 -0.8219  2.3856 -1.4951
   49CHL1   C15 3570   0.910   5.766   3.218 -0.2101  0.6885  0.2830
   49CHL1  H15A 3571   0.815   5.710   3.203  0.0790  0.7455 -2.2482
   49CHL1  H15B 3572   0.979   5.716   3.146 -3.1112 -0.2527 -2.0423
   49CHL1   C16 3573   0.959   5.763   3.359  0.6397  0.0822  0.2679
   49CHL1  H16A 3574   0.910   5.680   3.413  0.2075  0.4258  0.4074
   49CHL1  H16B 3575   1.070   5.753   3.354  0.3944 -2.8137 -0.8395
   49CHL1   C17 3576   0.919   5.907   3.418 -0.5413  0.1918  0.7046
   49CHL1   H17 3577   1.017   5.958   3.433  0.2809 -0.9854 -0.4494
   49CHL1   C13 3578   0.848   5.982   3.298 -0.0273 -1.0726 -0.0665
   49CHL1   C18 3579   0.695   5.955   3.316 -0.3750 -0.1798  0.4293
   49CHL1  H18A 3580   0.664   5.849   3.325 -2.0004  0.0486 -1.6831
   49CHL1  H18B 3581   0.645   6.020   3.391  1.5365  1.3904  0.4059
   49CHL1  H18C 3582   0.639   5.985   3.224 -1.6287  0.8594  1.4825
   49CHL1   C12 3583   0.879   6.129   3.271  0.2561 -0.3764  0.5157
   49CHL1  H12A 3584   0.825   6.191   3.346 -2.1884 -0.1774 -1.2809
   49CHL1  H12B 3585   0.987   6.152   3.268  0.0082  0.7898  0.0971
   49CHL1   C11 3586   0.820   6.177   3.131 -0.3478 -0.0202  0.1943
   49CHL1  H11A 3587   0.710   6.175   3.145 -0.0232 -0.6658  3.8702
   49CHL1  H11B 3588   0.860   6.279   3.110 -2.7887  1.4785  2.2526
   49CHL1    C9 3589   0.850   6.088   3.004  0.3458 -1.0116  0.4939
   49CHL1    H9 3590   0.956   6.108   2.978  1.1379  3.2214  5.3523
   49CHL1   C10 3591   0.763   6.113   2.879  0.0213  0.6357  0.1954
   49CHL1   C19 3592   0.613   6.103   2.912 -0.2447 -0.0062  0.3088
   49CHL1  H19A 3593   0.594   6.177   2.993 -0.1886  0.0593  0.2625
   49CHL1  H19B 3594   0.557   6.126   2.819  1.9582  0.9967 -0.8567
   49CHL1  H19C 3595   0.592   6.004   2.956  0.2644 -1.7631 -3.0881
   49CHL1    C1 3596   0.808   6.252   2.824  0.0256  0.7005 -0.5174
   49CHL1   H1A 3597   0.775   6.321   2.905 -1.4485 -0.8470  0.2561
   49CHL1   H1B 3598   0.917   6.257   2.807 -0.0696  1.0719 -1.0519
   49CHL1    C2 3599   0.746   6.303   2.690  0.3099  0.6226 -0.4479
   49CHL1   H2A 3600   0.799   6.399   2.672 -1.5498  1.9028  0.5938
   49CHL1   H2B 3601   0.637   6.322   2.695 -0.7181 -4.0712 -0.4361
   49CHL1   C20 3602   0.846   5.910   3.548  0.4730  0.2748 -0.3935
   49CHL1   H20 3603   0.744   5.866   3.543 -0.2968  1.2938  3.0583
   49CHL1   C21 3604   0.836   6.058   3.593 -0.1701  0.5050 -0.1795
   49CHL1  H21A 3605   0.759   6.119   3.541 -0.2949  0.6486  0.1712
   49CHL1  H21B 3606   0.931   6.110   3.569  0.4305 -1.0157 -1.2627
   49CHL1  H21C 3607   0.823   6.077   3.702 -0.8091  0.1704 -0.1947
   49CHL1   C22 3608   0.913   5.838   3.676  0.2602 -0.2677 -0.0512
   49CHL1  H22A 3609   0.936   5.735   3.640 -0.8600 -0.6854  0.3693
   49CHL1  H22B 3610   1.007   5.885   3.711 -0.1881 -1.1082  2.5259
   49CHL1   C23 3611   0.820   5.821   3.800  0.0565 -0.5471  0.8986
   49CHL1  H23A 3612   0.795   5.923   3.835  2.1979  1.1687 -2.0493
   49CHL1  H23B 3613   0.728   5.769   3.766  1.9871 -3.0684 -0.8478
   49CHL1   C24 3614   0.885   5.733   3.906  0.0294  0.0388  0.1474
   49CHL1  H24A 3615   0.883   5.626   3.877 -2.1665  0.2388 -0.5608
   49CHL1  H24B 3616   0.988   5.766   3.930 -0.3558  2.8675 -1.6361
   49CHL1   C25 3617   0.803   5.725   4.032  0.3450  0.2626  0.2214
   49CHL1   H25 3618   0.696   5.739   4.009  0.0591  0.7387  1.7003
   49CHL1   C26 3619   0.840   5.596   4.110 -0.3131  0.7538  0.2781
   49CHL1  H26A 3620   0.854   5.516   4.035  1.2761 -0.8422  2.1423
   49CHL1  H26B 3621   0.937   5.612   4.163  1.6428 -1.0242 -2.5313
   49CHL1  H26C 3622   0.763   5.564   4.183 -1.6736  1.8034 -0.6418
   49CHL1   C27 3623   0.841   5.847   4.121  0.6789  0.1550  0.0915
   49CHL1  H27A 3624   0.821   5.946   4.075 -1.2213 -0.2603 -0.0587
   49CHL1  H27B 3625   0.814   5.831   4.228 -1.4033 -0.3887 -0.4850
   49CHL1  H27C 3626   0.952   5.854   4.134  0.4218  2.1100  1.8510
   50CHL1    C3 3627   4.850   6.669   2.031  0.1394 -0.4457  0.0760
   50CHL1    H3 3628   4.803   6.769   2.031  0.9641 -0.0461 -1.1159
   50CHL1    O3 3629   4.849   6.623   1.901  0.4621  0.3940  0.4057
   50CHL1   H3' 3630   4.809   6.536   1.904  3.2623 -1.0584 -0.3753
   50CHL1    C4 3631   4.998   6.690   2.079  0.5249  0.6884 -0.8265
   50CHL1   H4A 3632   5.062   6.607   2.044 -0.3826  0.2925 -1.6118
   50CHL1   H4B 3633   5.031   6.779   2.022  1.0046 -1.1108 -3.5669
   50CHL1    C5 3634   5.007   6.706   2.229  1.0444 -0.8646 -0.0317
   50CHL1    C6 3635   5.068   6.817   2.277 -0.4035 -0.6964 -0.3619
   50CHL1    H6 3636   5.117   6.882   2.203 -1.0157  0.5207  0.2678
   50CHL1    C7 3637   5.075   6.850   2.424  0.9902 -0.4525 -0.2981
   50CHL1   H7A 3638   5.173   6.887   2.460 -0.0690  0.5223  1.8031
   50CHL1   H7B 3639   4.994   6.925   2.438 -0.8062 -1.5674 -3.5744
   50CHL1    C8 3640   5.044   6.725   2.519  0.3092  0.4102 -0.2785
   50CHL1    H8 3641   5.125   6.649   2.518 -0.3044 -0.2466 -1.1660
   50CHL1   C14 3642   5.028   6.783   2.656 -0.7757 -0.1638  0.1639
   50CHL1   H14 3643   4.954   6.866   2.652 -1.9541 -1.1160  1.3756
   50CHL1   C15 3644   5.152   6.849   2.712  0.3017  0.2204  0.3909
   50CHL1  H15A 3645   5.230   6.775   2.684 -1.2061 -2.1213  1.9681
   50CHL1  H15B 3646   5.174   6.951   2.674 -2.0185  0.4345 -0.5989
   50CHL1   C16 3647   5.109   6.849   2.862  0.1501 -0.8119  0.4499
   50CHL1  H16A 3648   5.185   6.811   2.933  0.7787 -0.3042  0.0601
   50CHL1  H16B 3649   5.089   6.957   2.882  1.4058 -0.5388  0.3055
   50CHL1   C17 3650   4.973   6.770   2.874 -0.3695 -0.1561  0.3408
   50CHL1   H17 3651   4.890   6.843   2.861  2.0882  2.5554 -1.3719
   50CHL1   C13 3652   4.972   6.679   2.753  0.1669  0.3218  0.1024
   50CHL1   C18 3653   5.075   6.560   2.772  0.7681  0.0545  0.4588
   50CHL1  H18A 3654   5.038   6.478   2.836 -0.1987 -0.8803 -1.2144
   50CHL1  H18B 3655   5.105   6.512   2.676 -1.5831 -0.9903  0.1668
   50CHL1  H18C 3656   5.167   6.604   2.816  1.1694  0.7347 -0.9910
   50CHL1   C12 3657   4.838   6.636   2.695  0.4264  0.7711 -0.4416
   50CHL1  H12A 3658   4.786   6.571   2.769  1.2158  0.9039  0.2525
   50CHL1  H12B 3659   4.761   6.712   2.673  0.0617  0.3509 -0.6198
   50CHL1   C11 3660   4.845   6.559   2.563 -0.0190 -0.2274  0.2551
   50CHL1  H11A 3661   4.911   6.470   2.568 -0.8266 -1.0121 -1.8339
   50CHL1  H11B 3662   4.744   6.525   2.532 -0.8658  0.1375  2.4230
   50CHL1    C9 3663   4.917   6.656   2.467  0.2302 -0.2290  0.3539
   50CHL1    H9 3664   4.841   6.737   2.463  2.1428  1.6661  0.6827
   50CHL1   C10 3665   4.926   6.613   2.317 -0.2751  0.3282 -0.6111
   50CHL1   C19 3666   4.994   6.474   2.311  1.0526 -0.4016 -0.2905
   50CHL1  H19A 3667   4.945   6.402   2.380  0.8321  0.3230  0.3195
   50CHL1  H19B 3668   4.995   6.425   2.211  0.7746 -2.1194  0.5048
   50CHL1  H19C 3669   5.098   6.483   2.350  0.1744 -0.1328  2.1418
   50CHL1    C1 3670   4.783   6.598   2.265  0.6079 -0.9241  0.4226
   50CHL1   H1A 3671   4.727   6.516   2.315  1.6557 -0.2674  2.8313
   50CHL1   H1B 3672   4.729   6.693   2.286 -2.3761 -2.2575 -0.6917
   50CHL1    C2 3673   4.777   6.565   2.118 -0.1953 -0.3279  0.4784
   50CHL1   H2A 3674   4.667   6.569   2.099 -0.3052  0.9447  1.2728
   50CHL1   H2B 3675   4.809   6.462   2.092 -1.5225 -0.6605  0.0310
   50CHL1   C20 3676   4.963   6.707   3.012 -0.3850 -0.3639 -0.0656
   50CHL1   H20 3677   5.055   6.646   3.027  0.2913  0.4665 -0.7396
   50CHL1   C21 3678   4.846   6.606   3.031 -0.7357 -0.3497  0.9738
   50CHL1  H21A 3679   4.848   6.508   2.978  0.9947 -1.0004  2.1868
   50CHL1  H21B 3680   4.762   6.663   2.985 -0.1495 -0.1771  0.0965
   50CHL1  H21C 3681   4.831   6.579   3.137 -2.0943 -0.5027  0.7666
   50CHL1   C22 3682   4.963   6.819   3.120  0.9733 -0.3297 -0.6977
   50CHL1  H22A 3683   5.051   6.886   3.112  0.2685  1.2359  2.7597
   50CHL1  H22B 3684   4.881   6.894   3.123  1.5927  0.4500  3.6916
   50CHL1   C23 3685   4.979   6.766   3.266  0.7419  0.1082 -0.5081
   50CHL1  H23A 3686   4.882   6.722   3.299  1.6169 -1.4172  0.1660
   50CHL1  H23B 3687   5.045   6.676   3.261 -2.6128 -2.6368  0.6051
   50CHL1   C24 3688   5.030   6.874   3.359  0.8308  0.3518 -0.0985
   50CHL1  H24A 3689   5.121   6.922   3.318  1.9472 -1.7526 -0.2165
   50CHL1  H24B 3690   4.962   6.960   3.376  0.6569  0.3665 -0.8496
   50CHL1   C25 3691   5.068   6.809   3.494 -0.6479  0.3330 -0.6932
   50CHL1   H25 3692   5.123   6.717   3.467  1.8518  0.9188  1.9166
   50CHL1   C26 3693   5.158   6.902   3.578  0.6258 -0.1455 -0.8384
   50CHL1  H26A 3694   5.097   6.985   3.619  1.1228  0.0382 -0.4684
   50CHL1  H26B 3695   5.204   6.845   3.662 -1.0825 -0.0938  0.1760
   50CHL1  H26C 3696   5.242   6.946   3.520  0.3495  0.4053 -0.8282
   50CHL1   C27 3697   4.953   6.763   3.590  0.3681 -0.0693  0.0511
   50CHL1  H27A 3698   4.884   6.706   3.524 -0.9090 -0.5241  1.7056
   50CHL1  H27B 3699   4.998   6.692   3.662 -0.0461  0.3381  0.7155
   50CHL1  H27C 3700   4.903   6.847   3.642  0.0582 -0.7882  0.9390
   51CHL1    C3 3701   0.946   7.035   2.777  0.3381 -0.3342  0.2675
   51CHL1    H3 3702   0.960   7.128   2.836 -1.3632  0.4261 -0.4340
   51CHL1    O3 3703   0.935   7.066   2.641 -0.3905 -0.4606 -0.4176
   51CHL1   H3' 3704   0.851   7.112   2.636  0.7292  1.8901  0.9830
   51CHL1    C4 3705   1.063   6.937   2.794 -0.8196  0.7109  0.1298
   51CHL1   H4A 3706   1.053   6.850   2.725  0.3835  0.5416  0.1355
   51CHL1   H4B 3707   1.150   6.995   2.756 -0.0351  0.4729  1.4999
   51CHL1    C5 3708   1.058   6.890   2.938 -0.5983 -0.0974  0.1682
   51CHL1    C6 3709   1.169   6.903   3.016  0.0775 -0.1205  0.2971
   51CHL1    H6 3710   1.261   6.941   2.968  0.0169  0.3559  0.5545
   51CHL1    C7 3711   1.179   6.857   3.159 -0.4112 -0.4007  0.1488
   51CHL1   H7A 3712   1.280   6.813   3.173 -0.0308  0.9718  2.2143
   51CHL1   H7B 3713   1.174   6.950   3.219 -2.4740  0.5640 -1.3672
   51CHL1    C8 3714   1.074   6.755   3.192  0.0075 -0.8455 -0.7377
   51CHL1    H8 3715   1.107   6.658   3.149  0.9649 -0.9895  0.2927
   51CHL1   C14 3716   1.071   6.727   3.341  0.1539 -0.0037  0.3876
   51CHL1   H14 3717   1.028   6.817   3.390 -0.7259 -0.4952  0.5521
   51CHL1   C15 3718   1.202   6.713   3.416  0.2844  0.8343 -0.7425
   51CHL1  H15A 3719   1.273   6.654   3.354  1.9406  3.2265 -1.2418
   51CHL1  H15B 3720   1.257   6.808   3.429 -0.6217  1.0645  1.9063
   51CHL1   C16 3721   1.164   6.653   3.553  0.3542  0.1322  0.0300
   51CHL1  H16A 3722   1.228   6.564   3.570 -1.2307 -1.4860 -2.0146
   51CHL1  H16B 3723   1.177   6.733   3.628  0.7098  1.1832 -1.1121
   51CHL1   C17 3724   1.014   6.606   3.547 -0.3760 -0.3371  0.1504
   51CHL1   H17 3725   0.950   6.683   3.595 -1.2234 -0.7394 -0.3152
   51CHL1   C13 3726   0.976   6.614   3.399  0.4241 -0.1016 -0.0234
   51CHL1   C18 3727   0.998   6.478   3.323  0.1347 -0.3484  0.4606
   51CHL1  H18A 3728   0.998   6.497   3.214 -2.1913  0.3300  0.5131
   51CHL1  H18B 3729   1.092   6.428   3.353  0.2758 -0.0765  0.4746
   51CHL1  H18C 3730   0.919   6.402   3.344 -0.1595 -0.5662 -1.2948
   51CHL1   C12 3731   0.836   6.666   3.366  0.1462 -0.0309  0.1112
   51CHL1  H12A 3732   0.756   6.590   3.379 -0.0783  0.2666  0.4910
   51CHL1  H12B 3733   0.814   6.764   3.413 -1.0569 -1.0091  1.7045
   51CHL1   C11 3734   0.825   6.693   3.210 -0.8691 -0.8800  0.2836
   51CHL1  H11A 3735   0.820   6.597   3.156  2.2988 -0.7893 -0.3194
   51CHL1  H11B 3736   0.725   6.737   3.186  0.0343  0.4426 -1.2358
   51CHL1    C9 3737   0.938   6.795   3.146 -0.1034  0.1283 -0.6791
   51CHL1    H9 3738   0.919   6.895   3.191 -0.2752 -0.3079  0.2445
   51CHL1   C10 3739   0.932   6.828   2.995 -0.0851 -0.6935  0.0776
   51CHL1   C19 3740   0.906   6.693   2.924 -0.4260  0.1928  0.0594
   51CHL1  H19A 3741   0.972   6.610   2.958 -0.0432  0.5427  0.1860
   51CHL1  H19B 3742   0.802   6.660   2.941 -0.2412 -1.8551 -2.1317
   51CHL1  H19C 3743   0.911   6.702   2.813  0.9946  2.3308  0.2313
   51CHL1    C1 3744   0.828   6.935   2.969  0.5432  0.7369 -0.0221
   51CHL1   H1A 3745   0.729   6.898   3.003 -0.5137  2.8413 -0.6452
   51CHL1   H1B 3746   0.846   7.030   3.023 -0.0227  1.5965 -1.2964
   51CHL1    C2 3747   0.813   6.974   2.820 -0.0671  0.0765  0.6739
   51CHL1   H2A 3748   0.733   7.051   2.813 -1.4394 -1.3796 -0.7166
   51CHL1   H2B 3749   0.788   6.885   2.758  0.5405  0.5854 -0.3333
   51CHL1   C20 3750   0.988   6.466   3.615 -0.2344 -0.3122  0.6894
   51CHL1   H20 3751   1.036   6.385   3.556 -1.0421 -0.2702 -0.0416
   51CHL1   C21 3752   0.844   6.419   3.620  0.9290  0.5891 -0.4913
   51CHL1  H21A 3753   0.779   6.493   3.672 -1.3925  0.4302 -2.9969
   51CHL1  H21B 3754   0.830   6.318   3.665 -1.4918  2.5949  3.9563
   51CHL1  H21C 3755   0.812   6.406   3.515  2.5871 -1.6558 -0.7808
   51CHL1   C22 3756   1.057   6.469   3.751  0.3739  0.1462 -0.4554
   51CHL1  H22A 3757   1.166   6.449   3.737  0.6709  1.3763  0.0026
   51CHL1  H22B 3758   1.038   6.570   3.794 -1.8781  0.4682 -2.0568
   51CHL1   C23 3759   1.014   6.361   3.857  0.3780  0.1142  0.1909
   51CHL1  H23A 3760   0.926   6.400   3.912 -1.3766 -2.4226 -0.6478
   51CHL1  H23B 3761   0.995   6.260   3.815  1.9049 -0.1859  0.1591
   51CHL1   C24 3762   1.114   6.341   3.971 -0.0229  0.6112  1.0210
   51CHL1  H24A 3763   1.219   6.326   3.940 -0.6775 -0.9841 -0.6154
   51CHL1  H24B 3764   1.105   6.431   4.035 -0.1379  1.7919 -0.5955
   51CHL1   C25 3765   1.078   6.221   4.061 -0.4607 -0.1668 -0.4998
   51CHL1   H25 3766   0.968   6.213   4.071 -0.4279  0.3013  0.3896
   51CHL1   C26 3767   1.115   6.087   4.011 -0.0738 -0.2486  0.2108
   51CHL1  H26A 3768   1.039   6.058   3.936 -0.4902  1.7280 -0.1987
   51CHL1  H26B 3769   1.213   6.083   3.960 -0.2825  1.5590 -0.4022
   51CHL1  H26C 3770   1.116   6.012   4.093 -2.2571  0.4810  0.9686
   51CHL1   C27 3771   1.129   6.247   4.201 -0.1263 -0.4970  0.4108
   51CHL1  H27A 3772   1.119   6.161   4.271 -0.2398  1.7433  3.3514
   51CHL1  H27B 3773   1.233   6.284   4.192  0.8202 -3.2286 -1.0259
   51CHL1  H27C 3774   1.073   6.333   4.244  0.5381  0.8068 -1.2317
   52CHL1    C3 3775   6.157   0.694   2.719  0.2981 -0.2295 -0.1863
   52CHL1    H3 3776   6.181   0.593   2.759 -1.2971 -1.1880 -1.5350
   52CHL1    O3 3777   6.153   0.682   2.583  0.8872  0.3663 -0.0023
   52CHL1   H3' 3778   6.095   0.610   2.560  1.4212  0.1747 -0.7894
   52CHL1    C4 3779   6.023   0.739   2.778 -0.3324 -0.0685 -0.1254
   52CHL1   H4A 3780   6.000   0.829   2.717  0.6333 -0.5282 -1.1808
   52CHL1   H4B 3781   5.957   0.653   2.755 -0.4494 -0.0873  0.2736
   52CHL1    C5 3782   6.034   0.770   2.929 -0.6091  0.1763  0.1752
   52CHL1    C6 3783   5.949   0.711   3.013  0.0969 -0.2312  0.0945
   52CHL1    H6 3784   5.867   0.649   2.974 -1.2293  1.6965 -0.3197
   52CHL1    C7 3785   5.953   0.746   3.159 -0.7464 -0.1461 -0.4385
   52CHL1   H7A 3786   5.855   0.778   3.202  0.1922 -1.5513  3.0672
   52CHL1   H7B 3787   5.979   0.653   3.215  1.2748  0.3425 -0.5054
   52CHL1    C8 3788   6.057   0.860   3.198 -0.1655  0.0536  0.0050
   52CHL1    H8 3789   6.012   0.961   3.182 -3.2155 -1.0596  0.8647
   52CHL1   C14 3790   6.092   0.852   3.348  0.3747  0.1570  0.5951
   52CHL1   H14 3791   6.141   0.752   3.351 -0.6928 -0.5040 -1.5713
   52CHL1   C15 3792   5.977   0.842   3.449 -0.1272 -0.1900  0.2517
   52CHL1  H15A 3793   5.911   0.931   3.440  1.9088  1.5403  1.5621
   52CHL1  H15B 3794   5.923   0.746   3.437 -1.5771  0.7866 -1.6870
   52CHL1   C16 3795   6.050   0.856   3.588 -0.2386  0.0901  0.6660
   52CHL1  H16A 3796   5.992   0.931   3.645 -1.0644 -0.4957  0.6187
   52CHL1  H16B 3797   6.060   0.757   3.639 -1.0497 -0.7163 -0.6699
   52CHL1   C17 3798   6.190   0.910   3.555  0.0085 -0.0996  0.2512
   52CHL1   H17 3799   6.260   0.824   3.561  0.8259  0.5713  0.5389
   52CHL1   C13 3800   6.190   0.955   3.404 -0.2954 -0.8706 -0.1545
   52CHL1   C18 3801   6.136   1.095   3.408  1.0038 -0.4313  0.5724
   52CHL1  H18A 3802   6.079   1.125   3.317  0.8417  0.0949  0.8439
   52CHL1  H18B 3803   6.058   1.104   3.486  1.6504 -1.6531  1.4018
   52CHL1  H18C 3804   6.215   1.170   3.430 -1.9263  2.8260  0.8924
   52CHL1   C12 3805   6.317   0.944   3.330 -0.3087  0.7248  0.1231
   52CHL1  H12A 3806   6.377   1.032   3.360  0.4053  0.8340 -1.4892
   52CHL1  H12B 3807   6.373   0.855   3.366 -2.8090 -1.2188 -0.5312
   52CHL1   C11 3808   6.297   0.955   3.177  0.3101 -0.1399 -0.3897
   52CHL1  H11A 3809   6.266   1.057   3.145 -1.2151 -0.6744 -0.6592
   52CHL1  H11B 3810   6.398   0.947   3.130  0.7348 -0.0697  0.4829
   52CHL1    C9 3811   6.184   0.854   3.120 -0.0833  0.2152 -0.2599
   52CHL1    H9 3812   6.226   0.752   3.135 -0.0893  0.2891  0.2750
   52CHL1   C10 3813   6.156   0.862   2.969  0.0932  0.6580  0.2480
   52CHL1   C19 3814   6.127   1.006   2.928  0.1843 -0.2881 -0.1028
   52CHL1  H19A 3815   6.223   1.060   2.918 -0.6038  1.2565  0.3471
   52CHL1  H19B 3816   6.080   1.022   2.829  2.3601  1.1896 -0.9852
   52CHL1  H19C 3817   6.059   1.058   2.999 -0.3573 -0.9014 -0.1570
   52CHL1    C1 3818   6.283   0.815   2.901 -0.3686 -0.3001 -0.1140
   52CHL1   H1A 3819   6.358   0.895   2.917 -3.5361  3.0569 -0.8723
   52CHL1   H1B 3820   6.319   0.719   2.945 -0.2759 -0.9940 -1.6108
   52CHL1    C2 3821   6.271   0.789   2.752 -0.7244 -0.6163 -0.6196
   52CHL1   H2A 3822   6.367   0.747   2.718 -0.2963 -0.1454 -0.0208
   52CHL1   H2B 3823   6.253   0.880   2.691 -1.2515 -1.2877 -1.4910
   52CHL1   C20 3824   6.243   1.002   3.665 -0.2694  0.0731 -0.3306
   52CHL1   H20 3825   6.177   1.092   3.661 -3.0525 -1.7675  1.0477
   52CHL1   C21 3826   6.389   1.032   3.619  0.8117 -0.0535 -0.6144
   52CHL1  H21A 3827   6.398   1.109   3.540 -0.9093  0.3046 -0.4883
   52CHL1  H21B 3828   6.446   0.940   3.594  0.0394 -0.6259 -0.3048
   52CHL1  H21C 3829   6.444   1.073   3.707 -1.5617  2.3050 -0.1215
   52CHL1   C22 3830   6.217   0.956   3.805 -0.4333 -0.3188 -0.4562
   52CHL1  H22A 3831   6.111   0.929   3.824 -0.3443  0.1844  0.9078
   52CHL1  H22B 3832   6.275   0.865   3.830  1.2364  0.4858 -1.2690
   52CHL1   C23 3833   6.263   1.062   3.904  0.1054  0.1194 -0.7479
   52CHL1  H23A 3834   6.374   1.061   3.897  0.1180 -0.1369 -0.5240
   52CHL1  H23B 3835   6.224   1.161   3.873  1.4056  1.0851  0.5381
   52CHL1   C24 3836   6.244   1.042   4.052  0.0760  0.1898  0.0406
   52CHL1  H24A 3837   6.308   0.972   4.111 -0.9353 -1.3724 -0.6662
   52CHL1  H24B 3838   6.252   1.143   4.099  0.8349 -1.0761  2.8715
   52CHL1   C25 3839   6.099   1.014   4.096  0.0916 -0.0100  0.0151
   52CHL1   H25 3840   6.073   0.914   4.055 -0.9549  0.2304  0.0809
   52CHL1   C26 3841   6.102   1.017   4.248  0.1443  0.1127  0.3696
   52CHL1  H26A 3842   6.103   1.125   4.272 -0.4331  0.1453  0.2663
   52CHL1  H26B 3843   6.011   0.976   4.296 -0.1051 -0.5777 -0.6493
   52CHL1  H26C 3844   6.197   0.971   4.285 -0.4545 -1.9573 -0.5000
   52CHL1   C27 3845   6.000   1.113   4.035 -0.2785 -0.0545  0.1471
   52CHL1  H27A 3846   6.036   1.216   4.051  0.8747 -0.1342 -1.7312
   52CHL1  H27B 3847   5.993   1.094   3.926  1.0705  0.0831  0.0219
   52CHL1  H27C 3848   5.900   1.101   4.083  0.4529 -2.7832  1.1983
   53CHL1    C3 3849   1.542   6.925   2.501  0.6948 -0.2487  0.3922
   53CHL1    H3 3850   1.480   7.017   2.495  0.1965 -0.6909 -1.7260
   53CHL1    O3 3851   1.520   6.849   2.386  0.3484  0.8071  0.0156
   53CHL1   H3' 3852   1.424   6.856   2.377  0.2905 -0.5788 -0.7497
   53CHL1    C4 3853   1.689   6.972   2.508 -0.2044  0.2121  0.1100
   53CHL1   H4A 3854   1.748   6.880   2.529  1.1789  0.8430 -0.8903
   53CHL1   H4B 3855   1.714   7.015   2.409 -2.9581  0.5106 -0.5462
   53CHL1    C5 3856   1.696   7.065   2.628  0.3866  0.0010  0.1758
   53CHL1    C6 3857   1.765   7.177   2.624 -0.1825 -0.0023  0.3906
   53CHL1    H6 3858   1.812   7.200   2.527 -1.5764  0.1646 -0.2763
   53CHL1    C7 3859   1.791   7.275   2.728  0.0038 -1.0089 -0.2790
   53CHL1   H7A 3860   1.898   7.306   2.730 -0.1400 -0.3302 -1.7596
   53CHL1   H7B 3861   1.738   7.371   2.712  0.4823 -0.8697 -1.0859
   53CHL1    C8 3862   1.752   7.216   2.870 -0.8173  0.1416 -0.3156
   53CHL1    H8 3863   1.838   7.150   2.896  0.7513  1.4520 -1.9047
   53CHL1   C14 3864   1.735   7.326   2.976 -0.2910 -0.1123 -0.1331
   53CHL1   H14 3865   1.648   7.389   2.949 -0.5869 -1.1411 -1.7308
   53CHL1   C15 3866   1.854   7.415   2.992  0.3774 -0.1228 -0.2330
   53CHL1  H15A 3867   1.952   7.362   2.991  0.5166  0.0977 -2.2432
   53CHL1  H15B 3868   1.852   7.490   2.909  0.0010  0.4886  0.3185
   53CHL1   C16 3869   1.836   7.483   3.124 -0.2255  0.4888  0.2571
   53CHL1  H16A 3870   1.923   7.470   3.192  0.0911 -0.0800 -0.2503
   53CHL1  H16B 3871   1.817   7.592   3.117  1.4242  0.7324 -1.1503
   53CHL1   C17 3872   1.718   7.409   3.198  0.6707 -0.3502 -0.1615
   53CHL1   H17 3873   1.628   7.470   3.175 -0.0237 -1.5432 -0.6878
   53CHL1   C13 3874   1.707   7.276   3.119 -0.0049  1.4603  0.5365
   53CHL1   C18 3875   1.814   7.177   3.173 -0.2725  0.4561 -0.2151
   53CHL1  H18A 3876   1.822   7.102   3.092 -3.3616  1.3620 -1.5286
   53CHL1  H18B 3877   1.918   7.216   3.176  0.0553 -0.1071 -2.3963
   53CHL1  H18C 3878   1.790   7.126   3.269 -0.4230  0.4053 -0.2803
   53CHL1   C12 3879   1.573   7.199   3.115 -0.4215  0.4130  0.1890
   53CHL1  H12A 3880   1.560   7.162   3.219 -0.7280 -0.0861 -0.0213
   53CHL1  H12B 3881   1.492   7.271   3.089 -0.6222 -0.3203 -1.3181
   53CHL1   C11 3882   1.576   7.091   3.004  0.6570 -0.3384  0.4180
   53CHL1  H11A 3883   1.632   7.001   3.036  0.8433 -0.5911 -0.5608
   53CHL1  H11B 3884   1.470   7.058   2.992  0.7233  0.0198 -1.5766
   53CHL1    C9 3885   1.629   7.130   2.865  0.0262 -0.1449 -0.5875
   53CHL1    H9 3886   1.544   7.186   2.822 -2.5644 -1.1168  2.8148
   53CHL1   C10 3887   1.642   7.014   2.765 -0.0287  0.5938 -0.0360
   53CHL1   C19 3888   1.742   6.903   2.818  0.6507 -0.0131 -0.1611
   53CHL1  H19A 3889   1.698   6.860   2.911 -1.7693 -0.1610 -1.2981
   53CHL1  H19B 3890   1.764   6.817   2.752 -0.9106 -0.1652 -0.5412
   53CHL1  H19C 3891   1.838   6.954   2.838 -0.1842  1.8767 -0.7081
   53CHL1    C1 3892   1.506   6.945   2.753  0.6252  0.0519  0.5184
   53CHL1   H1A 3893   1.478   6.888   2.844  0.3870 -0.8770 -0.1266
   53CHL1   H1B 3894   1.431   7.027   2.741  0.9447  0.4125  0.9090
   53CHL1    C2 3895   1.495   6.857   2.625  0.3878  0.7457  0.0828
   53CHL1   H2A 3896   1.389   6.822   2.628  0.7237 -0.2714  0.4849
   53CHL1   H2B 3897   1.557   6.765   2.635 -0.8037 -0.1209 -0.1933
   53CHL1   C20 3898   1.722   7.397   3.350  0.1008  0.1179  0.2802
   53CHL1   H20 3899   1.787   7.314   3.386 -0.8169  0.3426  2.6265
   53CHL1   C21 3900   1.577   7.379   3.404 -0.4164  0.5039 -0.5344
   53CHL1  H21A 3901   1.521   7.475   3.415 -1.1775  0.2020 -1.5373
   53CHL1  H21B 3902   1.577   7.323   3.500  0.2395  0.3285 -0.6368
   53CHL1  H21C 3903   1.514   7.322   3.332 -1.9279  1.4882 -0.0485
   53CHL1   C22 3904   1.773   7.526   3.424  0.6080  0.4258 -0.1097
   53CHL1  H22A 3905   1.875   7.552   3.389  2.1565 -0.6223  3.2556
   53CHL1  H22B 3906   1.700   7.610   3.414  2.4677  2.4054  1.9018
   53CHL1   C23 3907   1.786   7.513   3.579 -0.2885 -0.3616 -0.3427
   53CHL1  H23A 3908   1.699   7.461   3.624 -1.2125  0.3239 -1.2734
   53CHL1  H23B 3909   1.877   7.452   3.597 -0.0053 -0.7013 -2.6495
   53CHL1   C24 3910   1.822   7.641   3.656  0.6674  0.3167  0.6128
   53CHL1  H24A 3911   1.904   7.702   3.611  0.0900  0.4560 -0.2662
   53CHL1  H24B 3912   1.738   7.709   3.630 -0.1134 -0.2724  1.5477
   53CHL1   C25 3913   1.842   7.638   3.804  0.4340  0.3295 -0.7089
   53CHL1   H25 3914   1.780   7.552   3.838  0.6550 -0.2315 -1.6821
   53CHL1   C26 3915   1.990   7.599   3.840 -0.9685 -0.6342  0.1370
   53CHL1  H26A 3916   2.016   7.504   3.788 -2.7050 -0.1081 -1.8024
   53CHL1  H26B 3917   2.063   7.672   3.801  1.1139 -2.4531  0.4419
   53CHL1  H26C 3918   2.012   7.575   3.947 -0.3580 -1.4069 -0.1468
   53CHL1   C27 3919   1.797   7.762   3.879  0.7275  0.0230  0.2035
   53CHL1  H27A 3920   1.688   7.783   3.868  1.1000  1.5179 -1.1578
   53CHL1  H27B 3921   1.804   7.759   3.989  1.6831  0.8657  0.1884
   53CHL1  H27C 3922   1.855   7.855   3.858 -0.7329  0.7329 -0.8895
   54CHL1    C3 3923   0.455   6.600   2.772  0.0234  0.2679 -0.6632
   54CHL1    H3 3924   0.555   6.561   2.799 -1.6584 -2.9910  1.4751
   54CHL1    O3 3925   0.449   6.592   2.633  0.1024  0.7662 -0.7236
   54CHL1   H3' 3926   0.381   6.649   2.598 -0.7316 -0.9805 -2.1139
   54CHL1    C4 3927   0.350   6.502   2.823  0.1896  0.0207 -0.0237
   54CHL1   H4A 3928   0.252   6.548   2.797  0.5881  0.1945 -1.3193
   54CHL1   H4B 3929   0.359   6.413   2.757  0.4984 -0.9625  1.3022
   54CHL1    C5 3930   0.373   6.486   2.968  0.9834 -0.3863  0.0840
   54CHL1    C6 3931   0.386   6.360   3.015 -0.6343  0.6773 -0.9408
   54CHL1    H6 3932   0.376   6.272   2.949  1.4842 -0.2317 -0.1655
   54CHL1    C7 3933   0.432   6.342   3.158 -0.1922  0.0821  0.4070
   54CHL1   H7A 3934   0.389   6.250   3.203  1.6111 -1.2185 -0.3947
   54CHL1   H7B 3935   0.543   6.334   3.159 -0.1624 -0.3150  3.2962
   54CHL1    C8 3936   0.387   6.454   3.260 -0.3123 -0.0555 -0.2565
   54CHL1    H8 3937   0.278   6.439   3.270 -0.0389 -1.0903  1.5331
   54CHL1   C14 3938   0.447   6.441   3.398  0.1593  0.0653 -0.1480
   54CHL1   H14 3939   0.558   6.438   3.392  0.1697 -2.8506 -0.0535
   54CHL1   C15 3940   0.422   6.296   3.467  0.2910 -0.4008 -0.1837
   54CHL1  H15A 3941   0.317   6.264   3.450  0.2762  0.3407 -1.6719
   54CHL1  H15B 3942   0.498   6.226   3.428 -0.7380 -1.5608 -0.1826
   54CHL1   C16 3943   0.430   6.332   3.621  0.8299  0.5718  0.9925
   54CHL1  H16A 3944   0.323   6.312   3.643  0.1670  1.4454 -1.2292
   54CHL1  H16B 3945   0.496   6.269   3.685  3.0564  0.6189 -1.1164
   54CHL1   C17 3946   0.448   6.484   3.639  0.5810  0.0012 -0.0535
   54CHL1   H17 3947   0.557   6.506   3.633  0.7741 -1.2131 -1.4061
   54CHL1   C13 3948   0.401   6.544   3.498 -0.2195  0.0140 -0.0876
   54CHL1   C18 3949   0.242   6.547   3.513 -0.0595 -0.5406  0.3352
   54CHL1  H18A 3950   0.198   6.445   3.502  2.9014 -1.8518 -0.4491
   54CHL1  H18B 3951   0.192   6.601   3.597 -0.0097 -0.1274  0.1011
   54CHL1  H18C 3952   0.196   6.594   3.424  2.2472  0.0343 -0.6108
   54CHL1   C12 3953   0.457   6.683   3.444  0.0890  0.0757  0.1359
   54CHL1  H12A 3954   0.430   6.773   3.502  0.0703  0.4249 -0.4102
   54CHL1  H12B 3955   0.568   6.680   3.439  0.0487 -1.2081 -0.3815
   54CHL1   C11 3956   0.408   6.712   3.297  0.3681 -0.9225  0.6266
   54CHL1  H11A 3957   0.301   6.738   3.304  0.8109  1.6981 -1.0531
   54CHL1  H11B 3958   0.460   6.802   3.257 -0.5326 -1.0439 -0.9249
   54CHL1    C9 3959   0.432   6.592   3.201  0.0102 -0.4203  0.4297
   54CHL1    H9 3960   0.543   6.599   3.195  0.0510  0.0339  1.4885
   54CHL1   C10 3961   0.381   6.623   3.052  0.1429 -0.1644 -0.1199
   54CHL1   C19 3962   0.244   6.686   3.052 -0.4496  0.2481  0.3051
   54CHL1  H19A 3963   0.237   6.783   3.105 -1.9763 -0.3589  1.2715
   54CHL1  H19B 3964   0.200   6.709   2.953 -0.2067 -0.6551 -0.0301
   54CHL1  H19C 3965   0.171   6.623   3.107 -0.5007  0.8000  0.8717
   54CHL1    C1 3966   0.491   6.722   2.985  0.0371  0.6868  0.3090
   54CHL1   H1A 3967   0.486   6.812   3.050 -1.3050 -0.1538  1.4192
   54CHL1   H1B 3968   0.593   6.683   3.011 -0.0171  1.3407  1.5897
   54CHL1    C2 3969   0.455   6.741   2.833 -0.8155  0.8336 -0.4330
   54CHL1   H2A 3970   0.538   6.802   2.793 -0.5254  0.7528  0.0367
   54CHL1   H2B 3971   0.360   6.796   2.815  0.3150  3.0427  0.0063
   54CHL1   C20 3972   0.397   6.543   3.770  0.0404 -0.8569 -0.4639
   54CHL1   H20 3973   0.286   6.540   3.771 -0.0367  0.8640  0.2830
   54CHL1   C21 3974   0.428   6.696   3.780 -0.0459 -0.3785  0.0674
   54CHL1  H21A 3975   0.538   6.705   3.772  0.0916 -0.5286  1.6048
   54CHL1  H21B 3976   0.392   6.733   3.878 -0.9782 -1.4472  0.1493
   54CHL1  H21C 3977   0.373   6.748   3.698  0.2100  1.4653  1.0028
   54CHL1   C22 3978   0.442   6.465   3.895  0.0529 -0.0479 -0.1576
   54CHL1  H22A 3979   0.381   6.501   3.980 -2.4560  0.4789 -2.0510
   54CHL1  H22B 3980   0.413   6.359   3.877  0.5677 -0.1720 -0.2720
   54CHL1   C23 3981   0.590   6.456   3.925  0.2972 -0.4161  0.4398
   54CHL1  H23A 3982   0.630   6.419   3.828 -0.7347  1.8624 -0.9605
   54CHL1  H23B 3983   0.627   6.561   3.932  0.8565 -0.6803  1.6339
   54CHL1   C24 3984   0.625   6.388   4.060  0.1693  0.4773  0.7412
   54CHL1  H24A 3985   0.532   6.367   4.117 -0.0241  1.6198  0.8599
   54CHL1  H24B 3986   0.669   6.287   4.045 -1.2548 -0.0304 -0.2548
   54CHL1   C25 3987   0.724   6.470   4.149 -0.9365 -0.0589  0.6660
   54CHL1   H25 3988   0.812   6.503   4.089 -0.8641 -2.3228 -0.5596
   54CHL1   C26 3989   0.646   6.584   4.222  0.2538  0.4513  0.0335
   54CHL1  H26A 3990   0.595   6.661   4.161  0.0274  3.0234  3.2437
   54CHL1  H26B 3991   0.571   6.523   4.277  0.0371 -0.3058 -1.0663
   54CHL1  H26C 3992   0.715   6.635   4.293 -0.6571  1.4425  0.2241
   54CHL1   C27 3993   0.784   6.379   4.263 -0.6913 -0.8120 -0.1106
   54CHL1  H27A 3994   0.831   6.293   4.211  0.4037  0.7161 -1.7561
   54CHL1  H27B 3995   0.857   6.432   4.329  1.2781 -1.3002 -1.7880
   54CHL1  H27C 3996   0.704   6.344   4.331 -1.2573  2.1880  0.9370
   55CHL1    C3 3997   6.299   6.357   2.544  0.1085  0.7040 -0.2808
   55CHL1    H3 3998   6.211   6.293   2.564  0.1463  1.2345  1.7812
   55CHL1    O3 3999   6.360   6.330   2.423  0.0763 -0.2895  0.1401
   55CHL1   H3' 4000   6.448   6.301   2.445 -0.4773 -2.6035 -0.3932
   55CHL1    C4 4001   6.252   6.502   2.557 -0.0158  0.2265 -0.6606
   55CHL1   H4A 4002   6.345   6.560   2.538  1.6376 -1.3197  1.9692
   55CHL1   H4B 4003   6.178   6.520   2.477 -1.5895 -1.5023  0.3124
   55CHL1    C5 4004   6.183   6.539   2.687 -0.3261 -0.1086  0.4699
   55CHL1    C6 4005   6.057   6.587   2.689 -0.1804 -0.4777  0.1066
   55CHL1    H6 4006   5.989   6.590   2.603  0.1901 -3.5138 -0.4060
   55CHL1    C7 4007   5.991   6.624   2.819 -0.2216  0.1923  0.0629
   55CHL1   H7A 4008   5.933   6.717   2.804 -1.0946  0.3451  3.6189
   55CHL1   H7B 4009   5.915   6.545   2.840  0.8171 -0.9650 -0.3703
   55CHL1    C8 4010   6.085   6.616   2.942 -0.0002  0.0067 -0.3298
   55CHL1    H8 4011   6.146   6.708   2.945  0.6924 -0.4655  0.9301
   55CHL1   C14 4012   6.005   6.615   3.072 -0.0236  0.4735  0.2938
   55CHL1   H14 4013   5.931   6.532   3.071 -1.1920  1.4500 -1.9832
   55CHL1   C15 4014   5.912   6.741   3.095 -0.5953 -0.1802 -0.7565
   55CHL1  H15A 4015   5.976   6.827   3.066 -1.4757  1.5315  2.0932
   55CHL1  H15B 4016   5.818   6.740   3.035  0.1304 -0.5567 -1.9375
   55CHL1   C16 4017   5.888   6.738   3.245  0.1659 -1.0201 -0.0778
   55CHL1  H16A 4018   5.901   6.846   3.269 -0.0612 -0.5575 -1.8705
   55CHL1  H16B 4019   5.783   6.708   3.263  0.2227 -1.3657 -0.2947
   55CHL1   C17 4020   5.988   6.636   3.308  0.2892  0.0663 -0.0695
   55CHL1   H17 4021   5.939   6.541   3.338  3.3930 -0.9574  2.3188
   55CHL1   C13 4022   6.087   6.604   3.199 -0.1152 -0.1063  0.3675
   55CHL1   C18 4023   6.194   6.722   3.215  0.1444  0.6600  0.0750
   55CHL1  H18A 4024   6.268   6.716   3.132  1.4056 -1.6372  1.2477
   55CHL1  H18B 4025   6.161   6.827   3.209  1.6886  1.2320  0.8833
   55CHL1  H18C 4026   6.256   6.700   3.305 -0.6583 -3.5166 -0.1658
   55CHL1   C12 4027   6.164   6.468   3.201  0.1203  0.1326  0.4142
   55CHL1  H12A 4028   6.238   6.448   3.281 -0.4809 -3.7722  0.2043
   55CHL1  H12B 4029   6.085   6.389   3.205 -1.5153  1.6142 -0.8884
   55CHL1   C11 4030   6.247   6.462   3.073 -0.3694  0.5191 -0.8103
   55CHL1  H11A 4031   6.335   6.528   3.083 -1.0035  1.6004 -2.0218
   55CHL1  H11B 4032   6.288   6.359   3.062 -1.5033  0.0798 -1.0864
   55CHL1    C9 4033   6.173   6.493   2.936  1.0789  0.7951 -0.0906
   55CHL1    H9 4034   6.112   6.401   2.929  0.6895  0.9443  1.1330
   55CHL1   C10 4035   6.268   6.501   2.807  0.6523 -0.9812 -0.3038
   55CHL1   C19 4036   6.377   6.618   2.830  0.5419  0.1072 -0.1710
   55CHL1  H19A 4037   6.426   6.626   2.731 -0.7947  1.3803 -0.7555
   55CHL1  H19B 4038   6.334   6.719   2.845  1.6693  0.7951 -1.3979
   55CHL1  H19C 4039   6.453   6.595   2.908  0.5374  0.8048  0.0424
   55CHL1    C1 4040   6.335   6.362   2.801 -0.2906  0.4333  0.2413
   55CHL1   H1A 4041   6.405   6.361   2.887 -3.3247  0.0799  2.9057
   55CHL1   H1B 4042   6.258   6.286   2.828  0.7939  0.0747  2.5242
   55CHL1    C2 4043   6.389   6.319   2.663  0.4603  0.4817 -0.1817
   55CHL1   H2A 4044   6.414   6.211   2.669  2.4358  0.5721 -3.7582
   55CHL1   H2B 4045   6.485   6.372   2.646 -0.9937  3.1591 -0.5897
   55CHL1   C20 4046   6.030   6.691   3.449 -0.1959 -0.0495 -0.4701
   55CHL1   H20 4047   6.081   6.789   3.432  0.0385 -0.1736 -0.4854
   55CHL1   C21 4048   6.119   6.588   3.521 -0.4493 -0.4994  0.5919
   55CHL1  H21A 4049   6.225   6.585   3.487 -0.0900  0.1215  1.5763
   55CHL1  H21B 4050   6.072   6.488   3.527 -0.8404 -0.5185 -1.7604
   55CHL1  H21C 4051   6.129   6.628   3.625  1.8413  1.8048 -0.3938
   55CHL1   C22 4052   5.911   6.726   3.540  0.1537 -0.1994 -0.5784
   55CHL1  H22A 4053   5.959   6.764   3.633  0.2138  1.6885 -1.3421
   55CHL1  H22B 4054   5.852   6.812   3.502  1.1008  0.5106 -0.4641
   55CHL1   C23 4055   5.834   6.605   3.585  0.7221  0.1546 -0.0633
   55CHL1  H23A 4056   5.802   6.554   3.492  1.4235 -1.6336  0.6439
   55CHL1  H23B 4057   5.892   6.529   3.642 -1.0375 -0.9576  0.3325
   55CHL1   C24 4058   5.708   6.640   3.660  0.2639  0.1688 -0.0077
   55CHL1  H24A 4059   5.724   6.633   3.770 -0.7876  0.4785  0.1834
   55CHL1  H24B 4060   5.678   6.746   3.645 -1.0109 -0.0792  0.6587
   55CHL1   C25 4061   5.584   6.568   3.613  0.3863 -0.6703  0.1536
   55CHL1   H25 4062   5.612   6.461   3.623  1.8026 -0.2151  1.2680
   55CHL1   C26 4063   5.458   6.586   3.703 -0.9547  0.0693 -0.3272
   55CHL1  H26A 4064   5.463   6.513   3.787  1.4499 -1.4716 -1.6836
   55CHL1  H26B 4065   5.463   6.687   3.748 -1.4932  0.9105 -2.0821
   55CHL1  H26C 4066   5.363   6.554   3.656 -0.0142 -3.8580  0.1043
   55CHL1   C27 4067   5.542   6.622   3.476  0.4515  0.5094  0.5196
   55CHL1  H27A 4068   5.624   6.618   3.401 -0.3930  3.3012 -0.6830
   55CHL1  H27B 4069   5.459   6.567   3.427  1.3804  1.4047 -2.2600
   55CHL1  H27C 4070   5.518   6.730   3.485  0.0298  0.3061  2.1028
   56CHL1    C3 4071   6.738   0.252   2.711 -0.0003  0.0733  0.1647
   56CHL1    H3 4072   6.669   0.167   2.732  0.7535 -0.0368  2.4297
   56CHL1    O3 4073   6.779   0.243   2.574 -0.2218 -0.0386  0.0952
   56CHL1   H3' 4074   6.695   0.239   2.528 -0.1172 -0.5664 -0.0537
   56CHL1    C4 4075   6.659   0.386   2.730  0.3316 -0.1969  0.1407
   56CHL1   H4A 4076   6.723   0.468   2.692  0.5512 -1.0205 -1.3222
   56CHL1   H4B 4077   6.576   0.373   2.657  0.4121  2.3293 -0.5258
   56CHL1    C5 4078   6.607   0.394   2.876  0.1048 -0.2890  1.1651
   56CHL1    C6 4079   6.476   0.404   2.903  0.2824 -0.3061  0.0379
   56CHL1    H6 4080   6.411   0.409   2.814  0.0806 -2.5971 -0.0003
   56CHL1    C7 4081   6.422   0.422   3.042 -0.0839 -0.2120  0.0086
   56CHL1   H7A 4082   6.341   0.499   3.039  0.7514  0.6711 -1.8202
   56CHL1   H7B 4083   6.374   0.329   3.079 -2.8296  0.8876 -0.4716
   56CHL1    C8 4084   6.535   0.472   3.142  0.1610  0.1505  0.3642
   56CHL1    H8 4085   6.558   0.574   3.103 -0.9895 -0.9074 -3.5285
   56CHL1   C14 4086   6.477   0.457   3.280  0.2614 -0.2786 -0.3798
   56CHL1   H14 4087   6.450   0.349   3.277 -0.8558  0.0246 -2.4049
   56CHL1   C15 4088   6.347   0.534   3.317 -0.0797  0.2354 -0.3927
   56CHL1  H15A 4089   6.365   0.641   3.293 -1.4227  0.3789 -0.8692
   56CHL1  H15B 4090   6.259   0.509   3.253 -0.4335  0.5755 -0.0440
   56CHL1   C16 4091   6.330   0.510   3.464 -0.3236 -0.0760 -0.3743
   56CHL1  H16A 4092   6.296   0.604   3.511 -0.1446 -0.3192  0.2635
   56CHL1  H16B 4093   6.256   0.433   3.495 -0.2698  0.0975  0.2027
   56CHL1   C17 4094   6.474   0.451   3.513  0.2957  0.1796  1.0811
   56CHL1   H17 4095   6.471   0.340   3.518 -2.3411  0.1958  1.4800
   56CHL1   C13 4096   6.575   0.479   3.392 -0.8766 -0.0435 -0.7749
   56CHL1   C18 4097   6.630   0.624   3.392 -0.5407  0.4297 -0.1426
   56CHL1  H18A 4098   6.689   0.647   3.483 -1.7866 -2.0232  1.4280
   56CHL1  H18B 4099   6.692   0.648   3.303  0.6974  2.0425  1.0991
   56CHL1  H18C 4100   6.550   0.700   3.379  0.3807  1.2266 -1.3970
   56CHL1   C12 4101   6.689   0.377   3.379 -0.4793 -0.6296  0.2184
   56CHL1  H12A 4102   6.767   0.402   3.455  0.9950 -0.6949 -1.2091
   56CHL1  H12B 4103   6.645   0.277   3.398 -0.8325 -0.1180  2.3938
   56CHL1   C11 4104   6.756   0.389   3.237  0.1629  0.0712  0.3843
   56CHL1  H11A 4105   6.825   0.476   3.234  0.9147 -0.5171 -1.9012
   56CHL1  H11B 4106   6.832   0.308   3.236 -1.6702 -1.8521 -3.3777
   56CHL1    C9 4107   6.660   0.379   3.121 -0.0034  0.6073  0.1080
   56CHL1    H9 4108   6.616   0.278   3.134  3.1936 -0.9933 -0.3528
   56CHL1   C10 4109   6.719   0.386   2.980  0.4591 -0.6173 -0.4443
   56CHL1   C19 4110   6.803   0.520   2.973  0.3454  0.5458  0.0418
   56CHL1  H19A 4111   6.728   0.602   2.975 -0.0743  0.1635  0.1445
   56CHL1  H19B 4112   6.870   0.525   3.061  1.5971  1.4274 -0.9170
   56CHL1  H19C 4113   6.866   0.508   2.883 -0.4464 -2.7580 -0.2049
   56CHL1    C1 4114   6.803   0.260   2.954 -0.1099  0.6380 -0.4212
   56CHL1   H1A 4115   6.894   0.260   3.018  0.2950  0.5520 -0.9917
   56CHL1   H1B 4116   6.736   0.175   2.976  0.6412  0.0223 -0.4648
   56CHL1    C2 4117   6.852   0.248   2.810  0.4233  0.2886 -0.7504
   56CHL1   H2A 4118   6.909   0.155   2.786  2.6063  1.5844 -0.8933
   56CHL1   H2B 4119   6.929   0.325   2.787  0.5169  1.0928  1.9086
   56CHL1   C20 4120   6.516   0.496   3.649  0.5736 -0.0928 -0.2588
   56CHL1   H20 4121   6.624   0.473   3.654  0.4637 -1.2627 -2.1429
   56CHL1   C21 4122   6.436   0.404   3.745  0.0814  0.9949  0.2680
   56CHL1  H21A 4123   6.468   0.411   3.851  0.9133  0.4098  0.0599
   56CHL1  H21B 4124   6.451   0.297   3.718  0.3120  1.0561  0.1567
   56CHL1  H21C 4125   6.327   0.427   3.742  0.1529  1.3450  0.3395
   56CHL1   C22 4126   6.497   0.646   3.699  0.1022  0.5742  0.8409
   56CHL1  H22A 4127   6.490   0.711   3.609 -0.4431 -0.5904  0.0269
   56CHL1  H22B 4128   6.404   0.651   3.761 -0.8830 -0.3002 -0.5133
   56CHL1   C23 4129   6.618   0.687   3.792 -0.8127 -0.0048 -0.9995
   56CHL1  H23A 4130   6.603   0.613   3.874  1.2727 -1.0495 -1.4790
   56CHL1  H23B 4131   6.719   0.657   3.756  1.0452  0.4515  3.2111
   56CHL1   C24 4132   6.628   0.827   3.847 -0.6162  0.0850  0.0059
   56CHL1  H24A 4133   6.699   0.888   3.787  3.0840 -1.4498  2.4697
   56CHL1  H24B 4134   6.527   0.869   3.865 -0.2885  1.6054 -1.4793
   56CHL1   C25 4135   6.688   0.826   3.988 -0.2162 -0.9924  0.2738
   56CHL1   H25 4136   6.643   0.739   4.041 -1.8885  1.1107  2.4673
   56CHL1   C26 4137   6.839   0.789   4.003  0.0178 -0.1624  0.4213
   56CHL1  H26A 4138   6.911   0.869   3.975  0.2806 -0.1710  1.0456
   56CHL1  H26B 4139   6.838   0.770   4.113 -0.6417  0.5370  0.5504
   56CHL1  H26C 4140   6.859   0.700   3.940  2.5810  0.0984  0.7515
   56CHL1   C27 4141   6.655   0.954   4.071  0.0396 -0.2441 -0.1822
   56CHL1  H27A 4142   6.718   1.041   4.041 -0.8859 -0.1325 -1.8888
   56CHL1  H27B 4143   6.547   0.979   4.070 -0.7873 -3.4796 -0.1233
   56CHL1  H27C 4144   6.678   0.932   4.177  0.1467 -1.9475 -0.5405
   57SAPC     N 4145   4.232   2.757   6.195 -0.4145  1.0211  0.7455
   57SAPC   C12 4146   4.249   2.769   6.041  0.4300  0.0299  0.1504
   57SAPC  H12A 4147   4.203   2.683   5.996  0.2698  0.3369 -0.2837
   57SAPC  H12B 4148   4.356   2.763   6.027  0.6896  1.3984  1.2609
   57SAPC   C13 4149   4.096   2.784   6.237 -0.3546 -0.0433  0.2230
   57SAPC  H13A 4150   4.070   2.885   6.211 -0.5755  0.0030  0.6156
   57SAPC  H13B 4151   4.029   2.708   6.200  0.4906 -0.7918  0.1780
   57SAPC  H13C 4152   4.086   2.781   6.345  1.1538  1.1687  0.4287
   57SAPC   C14 4153   4.256   2.618   6.248  0.3322 -0.1839  0.8402
   57SAPC  H14A 4154   4.196   2.545   6.196  3.3248 -1.4986 -1.0423
   57SAPC  H14B 4155   4.357   2.583   6.230 -0.1584 -0.0370 -2.9530
   57SAPC  H14C 4156   4.232   2.617   6.353  0.4596  0.0625  0.8729
   57SAPC   C15 4157   4.325   2.852   6.268 -0.2170 -0.2418 -0.2901
   57SAPC  H15A 4158   4.322   2.839   6.375  1.6310  2.1393  0.1047
   57SAPC  H15B 4159   4.425   2.838   6.230  0.4748  3.0431  0.0323
   57SAPC  H15C 4160   4.298   2.954   6.247 -1.0584 -0.3416  0.2129
   57SAPC   C11 4161   4.189   2.898   5.973 -0.3095 -0.3183 -0.0800
   57SAPC  H11A 4162   4.080   2.912   5.989 -0.5218 -0.5296 -1.2389
   57SAPC  H11B 4163   4.196   2.897   5.862 -1.0395 -0.5647 -0.1318
   57SAPC     P 4164   4.382   3.083   5.975 -0.0662  0.5683  0.1543
   57SAPC   O13 4165   4.388   3.222   6.013  0.1089  0.3420  0.5216
   57SAPC   O14 4166   4.501   3.002   6.014  0.6070  0.0818 -0.5938
   57SAPC   O12 4167   4.243   3.020   6.025 -0.3506 -0.4005  0.3472
   57SAPC   O11 4168   4.365   3.078   5.815  0.6583  0.2091 -0.6911
   57SAPC    C1 4169   4.481   3.070   5.730  0.3886 -0.8435 -0.5301
   57SAPC    HA 4170   4.570   3.012   5.763  0.7479 -0.4205 -0.7323
   57SAPC    HB 4171   4.451   3.022   5.634 -1.5953 -0.4357 -0.1615
   57SAPC    C2 4172   4.525   3.210   5.675  0.3659 -0.2808 -1.1810
   57SAPC    HS 4173   4.451   3.279   5.721  1.0772  0.2893 -0.8652
   57SAPC   O21 4174   4.522   3.219   5.537  0.2869  0.0380  0.3066
   57SAPC   C21 4175   4.541   3.347   5.500 -0.8080 -0.1257  0.0905
   57SAPC   O22 4176   4.550   3.444   5.573  0.2267  0.0499 -0.0482
   57SAPC   C22 4177   4.547   3.347   5.350  0.0115 -0.6917  0.2656
   57SAPC   H2R 4178   4.652   3.322   5.324  0.4778 -1.7140  2.8500
   57SAPC   H2S 4179   4.495   3.263   5.300 -0.9280  0.5764 -0.9556
   57SAPC    C3 4180   4.671   3.229   5.734  0.1708  0.1197 -0.4138
   57SAPC    HX 4181   4.661   3.227   5.845 -0.8487  0.8640 -0.4775
   57SAPC    HY 4182   4.705   3.331   5.707  3.3178 -0.8739 -0.5953
   57SAPC   O31 4183   4.767   3.141   5.683 -0.7089  0.5245 -0.0730
   57SAPC   C31 4184   4.828   3.167   5.569  0.4871  0.4888 -0.1902
   57SAPC   O32 4185   4.822   3.272   5.505 -0.2355 -0.0421 -0.2382
   57SAPC   C32 4186   4.933   3.057   5.547 -0.3235  0.6920 -0.2514
   57SAPC   H2X 4187   4.986   3.036   5.642 -1.3457 -1.7759 -0.1584
   57SAPC   H2Y 4188   5.010   3.105   5.482  1.7077  0.7779  2.0591
   57SAPC   C23 4189   4.513   3.484   5.282  1.0004 -0.0538  0.1598
   57SAPC   H3R 4190   4.573   3.566   5.327  1.4202  1.0573 -2.2869
   57SAPC   H3S 4191   4.407   3.511   5.297  1.0065 -0.4214  0.9580
   57SAPC   C24 4192   4.524   3.477   5.127 -0.5130 -0.2014  0.0082
   57SAPC   H4R 4193   4.475   3.566   5.083 -1.4349 -0.5163  0.3697
   57SAPC   H4S 4194   4.459   3.394   5.089 -1.0814 -1.6695  3.7181
   57SAPC   C25 4195   4.656   3.473   5.066 -0.1595 -0.4495  0.5873
   57SAPC   H5R 4196   4.738   3.481   5.138  0.1458 -0.5820  0.2573
   57SAPC   C26 4197   4.677   3.456   4.931  0.0684  0.3853 -0.5596
   57SAPC   H6R 4198   4.782   3.453   4.899 -0.5801  0.7711 -2.9208
   57SAPC   C27 4199   4.578   3.436   4.821 -0.0086 -0.0699 -0.1212
   57SAPC   H7R 4200   4.535   3.531   4.784 -1.5789 -1.4993 -2.2562
   57SAPC   H7S 4201   4.490   3.374   4.848 -0.1242 -1.3770 -3.0767
   57SAPC   C28 4202   4.640   3.369   4.695  0.4955  0.1594 -0.7178
   57SAPC   H8R 4203   4.672   3.265   4.706 -1.5460 -0.3918  0.5604
   57SAPC   C29 4204   4.680   3.445   4.589  0.8757  0.3076 -0.2828
   57SAPC   H9R 4205   4.735   3.392   4.510  1.7461  0.3396  0.2891
   57SAPC  C210 4206   4.688   3.597   4.585 -0.1044 -0.0715  0.0328
   57SAPC  H10R 4207   4.765   3.630   4.512  0.9900 -0.5594  0.9328
   57SAPC  H10S 4208   4.733   3.635   4.679  2.9820 -1.2169 -0.8416
   57SAPC  C211 4209   4.548   3.655   4.551  0.1622  0.0813  0.1089
   57SAPC  H11R 4210   4.485   3.662   4.641  2.3784 -1.0926  1.8697
   57SAPC  C212 4211   4.502   3.681   4.427  0.4712 -0.8210  0.2863
   57SAPC  H12R 4212   4.398   3.716   4.418  0.0017 -2.6465 -2.5598
   57SAPC  C213 4213   4.567   3.666   4.297  0.1897 -0.2477  0.1157
   57SAPC  H13R 4214   4.507   3.591   4.240  0.6697 -0.5389 -0.0137
   57SAPC  H13S 4215   4.668   3.622   4.316  0.4365  0.2467 -0.0328
   57SAPC  C214 4216   4.588   3.792   4.216  0.1972  0.7587  0.4922
   57SAPC  H14R 4217   4.681   3.847   4.236  0.9443 -1.0641  2.3594
   57SAPC  C215 4218   4.521   3.831   4.103  0.2019 -0.8261  0.7027
   57SAPC  H15R 4219   4.547   3.924   4.051 -3.4048  0.5398  1.0668
   57SAPC  C216 4220   4.395   3.762   4.044 -0.3607 -0.3056  0.0886
   57SAPC  H16R 4221   4.365   3.666   4.092  3.3737 -2.2495 -1.0949
   57SAPC  H16S 4222   4.424   3.727   3.943  2.1039 -1.2491  1.0450
   57SAPC  C217 4223   4.271   3.855   4.021 -0.1266  0.3702 -0.0106
   57SAPC  H17R 4224   4.242   3.888   4.123 -2.4288  1.7380 -1.0256
   57SAPC  H17S 4225   4.192   3.788   3.980  0.2314 -0.9554  1.3878
   57SAPC  C218 4226   4.284   3.981   3.936  0.0190 -0.7969  0.0799
   57SAPC  H18R 4227   4.364   4.050   3.970 -2.3390  2.0046  0.3229
   57SAPC  H18S 4228   4.189   4.038   3.944  0.6002 -0.0210  1.6895
   57SAPC  C219 4229   4.314   3.940   3.795  0.1623  0.1678  0.1591
   57SAPC  H19R 4230   4.243   3.874   3.740  1.9996 -1.8302  0.0346
   57SAPC  H19S 4231   4.412   3.888   3.785  0.1305 -0.3773  2.3139
   57SAPC  C220 4232   4.323   4.063   3.710  0.2154 -0.4629  0.0664
   57SAPC  H20R 4233   4.234   4.127   3.729  0.6317  0.0668  0.2672
   57SAPC  H20S 4234   4.335   4.047   3.601  2.3516  0.2302  0.1583
   57SAPC  H20T 4235   4.413   4.123   3.735  0.4035 -1.1094  0.9953
   57SAPC   C33 4236   4.892   2.922   5.494  0.9931  0.7905  0.0795
   57SAPC   H3X 4237   4.804   2.878   5.547 -0.6670  0.8862 -2.4534
   57SAPC   H3Y 4238   4.979   2.854   5.506 -0.3216 -1.0587 -0.3655
   57SAPC   C34 4239   4.858   2.927   5.344  0.0536 -0.1575 -0.2024
   57SAPC   H4X 4240   4.867   2.825   5.301 -1.5268  0.3692 -1.9332
   57SAPC   H4Y 4241   4.926   2.996   5.291  0.4637 -2.3339 -2.7014
   57SAPC   C35 4242   4.719   2.974   5.319  0.2430 -0.4110  0.6667
   57SAPC   H5X 4243   4.711   3.084   5.332  2.2448 -0.3208  1.4999
   57SAPC   H5Y 4244   4.638   2.934   5.384 -1.9771  2.4849 -0.0710
   57SAPC   C36 4245   4.687   2.947   5.181  0.0570  0.8649  0.2172
   57SAPC   H6X 4246   4.688   2.836   5.167  0.2333  0.5484  2.2814
   57SAPC   H6Y 4247   4.778   2.981   5.128 -1.1392  1.4677 -1.5076
   57SAPC   C37 4248   4.561   3.006   5.129 -1.0978 -0.1353  0.5577
   57SAPC   H7X 4249   4.550   3.108   5.170 -1.6629 -0.7809  2.1089
   57SAPC   H7Y 4250   4.476   2.950   5.174 -0.2829 -0.6882  1.4557
   57SAPC   C38 4251   4.555   3.004   4.982 -0.6041 -0.2959 -0.1354
   57SAPC   H8X 4252   4.583   2.902   4.947  0.5591  0.3543 -1.1682
   57SAPC   H8Y 4253   4.632   3.065   4.929 -0.5434 -0.9825 -0.8700
   57SAPC   C39 4254   4.418   3.050   4.929  0.2933  0.6023 -0.7508
   57SAPC   H9X 4255   4.395   3.148   4.975  1.5016 -0.1622  1.6351
   57SAPC   H9Y 4256   4.341   2.978   4.963 -0.5764  1.0196 -1.7740
   57SAPC  C310 4257   4.405   3.071   4.780 -0.5743  0.6760  0.0668
   57SAPC  H10X 4258   4.430   2.978   4.725  0.2538  1.7631 -1.4489
   57SAPC  H10Y 4259   4.485   3.142   4.750  0.9355 -0.3285  1.4904
   57SAPC  C311 4260   4.273   3.120   4.733  0.1036 -0.3123 -0.2692
   57SAPC  H11X 4261   4.254   3.227   4.757 -0.2781  0.4566 -3.4374
   57SAPC  H11Y 4262   4.197   3.047   4.765  2.0458 -1.8460  1.0655
   57SAPC  C312 4263   4.259   3.108   4.576  0.0564 -0.4102 -0.9970
   57SAPC  H12X 4264   4.149   3.107   4.562 -0.1244  0.0930  0.2475
   57SAPC  H12Y 4265   4.286   3.005   4.545  1.5579  0.2537 -2.0234
   57SAPC  C313 4266   4.335   3.213   4.495 -0.0676  0.0048  0.3291
   57SAPC  H13X 4267   4.445   3.207   4.507 -0.2972 -2.7479  2.2627
   57SAPC  H13Y 4268   4.299   3.313   4.527  1.1767  0.6566 -0.2780
   57SAPC  C314 4269   4.294   3.185   4.347  0.4137 -0.2355  0.0167
   57SAPC  H14X 4270   4.185   3.171   4.326  0.3555 -0.9040  0.7219
   57SAPC  H14Y 4271   4.342   3.089   4.318  0.2711  0.5398 -3.1280
   57SAPC  C315 4272   4.330   3.297   4.248 -0.6738  0.0108  0.3750
   57SAPC  H15X 4273   4.440   3.311   4.239 -0.9405  1.1938 -1.7794
   57SAPC  H15Y 4274   4.297   3.394   4.291 -0.8266  1.2397 -2.3052
   57SAPC  C316 4275   4.267   3.272   4.111 -0.2312  0.0072  0.0477
   57SAPC  H16X 4276   4.279   3.352   4.034 -2.3256  0.7126  0.3596
   57SAPC  H16Y 4277   4.160   3.254   4.136  0.4486 -1.0107  2.4758
   57SAPC  C317 4278   4.333   3.149   4.041  0.7483  0.1217  0.4625
   57SAPC  H17X 4279   4.372   3.076   4.114 -0.5498 -2.3401 -1.1740
   57SAPC  H17Y 4280   4.424   3.187   3.989  0.6685  0.7205  0.7529
   57SAPC  C318 4281   4.237   3.085   3.934 -0.0143  0.1490 -0.5062
   57SAPC  H18X 4282   4.295   2.996   3.903  1.2696  0.3789  1.0495
   57SAPC  H18Y 4283   4.224   3.156   3.850 -0.6907  0.1341 -0.4181
   57SAPC  H18Z 4284   4.137   3.056   3.971 -0.3479 -0.0918 -1.5905
   58SAPC     N 4285   3.222   2.269   5.978 -0.1143 -0.4134  0.4415
   58SAPC   C12 4286   3.307   2.171   6.062  0.0055 -0.4504 -0.6111
   58SAPC  H12A 4287   3.403   2.162   6.013  0.3830  0.3257 -0.0243
   58SAPC  H12B 4288   3.257   2.074   6.062 -0.8583 -0.0344  0.6258
   58SAPC   C13 4289   3.304   2.395   5.962  0.3660 -0.3463 -0.4867
   58SAPC  H13A 4290   3.265   2.463   5.887  0.9592  2.6254  1.6841
   58SAPC  H13B 4291   3.304   2.451   6.055  0.6641 -0.3424 -0.4884
   58SAPC  H13C 4292   3.407   2.383   5.933  0.1790 -0.2872 -1.1926
   58SAPC   C14 4293   3.194   2.209   5.848  0.0014  0.1447  0.1253
   58SAPC  H14A 4294   3.128   2.278   5.798  2.0721  1.5222 -0.8575
   58SAPC  H14B 4295   3.282   2.194   5.787 -1.0663 -2.6216 -0.9221
   58SAPC  H14C 4296   3.148   2.112   5.858 -0.1668  0.2963  0.8606
   58SAPC   C15 4297   3.088   2.296   6.039  0.2506  0.0025  0.0961
   58SAPC  H15A 4298   3.051   2.396   6.030  1.7111  0.4563 -1.5660
   58SAPC  H15B 4299   3.010   2.230   6.005  1.3223 -1.1102 -0.3223
   58SAPC  H15C 4300   3.092   2.284   6.146 -0.6391 -0.0572  0.1284
   58SAPC   C11 4301   3.331   2.199   6.215  0.0203 -0.2320  0.4289
   58SAPC  H11A 4302   3.388   2.294   6.217  1.8961 -1.2811 -0.5634
   58SAPC  H11B 4303   3.394   2.114   6.248  0.8502  0.2693  0.1581
   58SAPC     P 4304   3.111   2.083   6.312 -0.0259 -0.0227 -0.3771
   58SAPC   O13 4305   3.137   2.028   6.448 -0.1857  0.2381  0.2214
   58SAPC   O14 4306   2.966   2.116   6.287  0.2132 -0.5459 -0.0327
   58SAPC   O12 4307   3.209   2.211   6.294 -0.4209 -0.3114  0.5640
   58SAPC   O11 4308   3.161   1.982   6.199 -0.0620 -0.4241 -0.0409
   58SAPC    C1 4309   3.104   1.856   6.206  0.2437  0.0677 -0.3154
   58SAPC    HA 4310   3.177   1.782   6.247 -1.7817 -0.7408  2.0405
   58SAPC    HB 4311   3.020   1.850   6.277 -1.3706 -0.3660 -2.1660
   58SAPC    C2 4312   3.056   1.813   6.066  0.9952 -0.5083 -0.5490
   58SAPC    HS 4313   3.043   1.704   6.084  0.7206 -0.2676  0.8035
   58SAPC   O21 4314   3.146   1.846   5.959 -0.3631 -0.2855 -0.3875
   58SAPC   C21 4315   3.251   1.767   5.962 -0.1693 -0.2738  1.0235
   58SAPC   O22 4316   3.273   1.676   6.036  0.3024 -0.0664  0.2213
   58SAPC   C22 4317   3.338   1.817   5.844 -0.3000  0.0450  0.1641
   58SAPC   H2R 4318   3.267   1.844   5.762 -1.6710  0.0021  1.2844
   58SAPC   H2S 4319   3.391   1.903   5.891  1.8859 -1.0717 -0.1529
   58SAPC    C3 4320   2.918   1.878   6.040 -0.0489  0.6332 -0.4421
   58SAPC    HX 4321   2.926   1.986   6.066  2.9845  0.2219  0.6224
   58SAPC    HY 4322   2.843   1.850   6.117  1.5013  0.3812  1.0132
   58SAPC   O31 4323   2.868   1.854   5.906 -0.0642 -0.3606  0.4582
   58SAPC   C31 4324   2.909   1.942   5.818 -0.4621  0.0387  0.3550
   58SAPC   O32 4325   2.953   2.054   5.837  0.0870 -0.4560 -0.2217
   58SAPC   C32 4326   2.900   1.869   5.671  0.1826  0.0504 -0.1019
   58SAPC   H2X 4327   2.792   1.850   5.651  0.5688  0.0204 -2.3897
   58SAPC   H2Y 4328   2.957   1.774   5.680 -2.2995 -1.4740  0.6955
   58SAPC   C23 4329   3.449   1.720   5.795  0.0531  0.4091  0.1960
   58SAPC   H3R 4330   3.502   1.684   5.885 -1.6490 -0.4101  0.9007
   58SAPC   H3S 4331   3.516   1.788   5.737  0.3409  0.4568  0.5800
   58SAPC   C24 4332   3.398   1.614   5.701 -0.7887 -0.6179  0.7043
   58SAPC   H4R 4333   3.360   1.679   5.619  0.8466 -0.3004  0.1608
   58SAPC   H4S 4334   3.312   1.555   5.739 -2.3372  1.4992  0.6527
   58SAPC   C25 4335   3.503   1.520   5.637  0.5309  0.2135 -0.0415
   58SAPC   H5R 4336   3.585   1.485   5.701  0.0702 -0.1957  0.3364
   58SAPC   C26 4337   3.481   1.467   5.511  0.0324 -0.9874 -0.4674
   58SAPC   H6R 4338   3.565   1.403   5.480  1.7398  0.0422  1.7507
   58SAPC   C27 4339   3.372   1.492   5.409 -0.3216 -0.1496 -0.7569
   58SAPC   H7R 4340   3.399   1.579   5.345 -0.4906  1.4112  1.1823
   58SAPC   H7S 4341   3.275   1.513   5.459 -1.7211  0.8597 -3.6394
   58SAPC   C28 4342   3.356   1.381   5.312  0.1685 -0.2086  0.2294
   58SAPC   H8R 4343   3.344   1.286   5.366  1.0973 -0.4955 -0.0466
   58SAPC   C29 4344   3.331   1.383   5.177 -0.4756  0.4459 -0.2422
   58SAPC   H9R 4345   3.312   1.288   5.126 -0.9458  0.4845 -0.1485
   58SAPC  C210 4346   3.338   1.505   5.095  0.5248 -0.1544  0.1815
   58SAPC  H10R 4347   3.272   1.584   5.137  0.4495  0.1672 -0.5204
   58SAPC  H10S 4348   3.278   1.478   5.005  1.5539 -3.0818  0.2689
   58SAPC  C211 4349   3.481   1.550   5.070 -0.5105 -0.4122 -0.5383
   58SAPC  H11R 4350   3.526   1.593   5.160  0.4896 -3.5572  0.6085
   58SAPC  C212 4351   3.543   1.556   4.947  0.4169  0.0489 -0.1177
   58SAPC  H12R 4352   3.650   1.582   4.945  1.0614 -2.4430 -0.7275
   58SAPC  C213 4353   3.493   1.509   4.816  0.2928  0.2774  0.3410
   58SAPC  H13R 4354   3.576   1.505   4.742  0.7775 -1.1706  0.9236
   58SAPC  H13S 4355   3.410   1.579   4.792 -0.1377  0.2609  1.7079
   58SAPC  C214 4356   3.452   1.362   4.814  0.2993 -0.1990  0.0525
   58SAPC  H14R 4357   3.479   1.305   4.904 -1.2373  1.4347  1.6486
   58SAPC  C215 4358   3.391   1.302   4.710  0.2805 -0.1982 -0.4447
   58SAPC  H15R 4359   3.362   1.197   4.723 -1.0289  0.3945  2.0136
   58SAPC  C216 4360   3.347   1.369   4.579  0.4080 -0.0290  0.4182
   58SAPC  H16R 4361   3.322   1.476   4.592 -0.2964 -0.0698 -0.5312
   58SAPC  H16S 4362   3.263   1.311   4.535  0.0680 -2.4806  3.9005
   58SAPC  C217 4363   3.474   1.380   4.478  0.2105  0.4453 -0.5409
   58SAPC  H17R 4364   3.488   1.276   4.442 -1.2402  1.1200 -3.3314
   58SAPC  H17S 4365   3.561   1.423   4.533  0.8374 -1.6209  0.1776
   58SAPC  C218 4366   3.445   1.471   4.358 -0.2295  0.2666 -0.7193
   58SAPC  H18R 4367   3.420   1.570   4.402 -3.3849 -0.2328 -1.1050
   58SAPC  H18S 4368   3.349   1.440   4.310 -0.0373  1.5134 -2.0013
   58SAPC  C219 4369   3.557   1.484   4.251 -0.0324 -0.0264  0.2144
   58SAPC  H19R 4370   3.656   1.512   4.293 -0.0503  0.9704 -0.3567
   58SAPC  H19S 4371   3.526   1.571   4.189 -0.5568  1.5606  2.5691
   58SAPC  C220 4372   3.577   1.361   4.162 -0.0733  0.0267 -0.0238
   58SAPC  H20R 4373   3.629   1.278   4.215 -0.4956 -0.4337 -0.3240
   58SAPC  H20S 4374   3.652   1.387   4.085 -0.8836  1.8024 -0.2482
   58SAPC  H20T 4375   3.485   1.320   4.115  0.1983 -0.9645  0.2899
   58SAPC   C33 4376   2.945   1.953   5.559 -0.0841  0.3599  0.3340
   58SAPC   H3X 4377   2.900   2.055   5.560 -1.0238 -0.0375  1.7689
   58SAPC   H3Y 4378   2.914   1.907   5.463  2.1010 -1.0269  0.2381
   58SAPC   C34 4379   3.097   1.966   5.551 -0.0078  0.5577  1.0198
   58SAPC   H4X 4380   3.155   1.872   5.559 -0.3529  0.3959  1.7272
   58SAPC   H4Y 4381   3.143   2.038   5.623  0.8010 -0.2066  1.2858
   58SAPC   C35 4382   3.139   2.036   5.416  0.2242 -0.0595  0.2098
   58SAPC   H5X 4383   3.241   2.079   5.423  0.7708 -1.3680  0.6698
   58SAPC   H5Y 4384   3.068   2.118   5.394 -2.6626 -2.5126 -0.3732
   58SAPC   C36 4385   3.126   1.944   5.289 -0.1193 -0.0381 -0.1811
   58SAPC   H6X 4386   3.021   1.912   5.274 -0.4011  0.3848  0.8190
   58SAPC   H6Y 4387   3.208   1.870   5.295  0.5764  0.6705 -0.7216
   58SAPC   C37 4388   3.153   2.022   5.159 -0.6670  0.0188  0.2825
   58SAPC   H7X 4389   3.262   2.042   5.149 -0.5492 -1.3540 -1.8707
   58SAPC   H7Y 4390   3.090   2.113   5.156  2.9731  2.7460  0.6890
   58SAPC   C38 4391   3.119   1.938   5.032  0.1731 -0.9148  0.4658
   58SAPC   H8X 4392   3.009   1.927   5.022 -0.0816  0.2048  1.7543
   58SAPC   H8Y 4393   3.164   1.836   5.039  1.2190 -0.4616  0.6748
   58SAPC   C39 4394   3.178   2.015   4.907 -0.0827  0.3873 -0.2444
   58SAPC   H9X 4395   3.286   2.031   4.926  0.0840 -1.8157  0.9703
   58SAPC   H9Y 4396   3.125   2.110   4.886 -1.3419  0.4709  2.7510
   58SAPC  C310 4397   3.167   1.930   4.769  0.1814 -0.6760 -0.4088
   58SAPC  H10X 4398   3.150   2.010   4.693  4.0004  0.3709 -0.3826
   58SAPC  H10Y 4399   3.076   1.868   4.781 -2.1542  2.0676 -2.4964
   58SAPC  C311 4400   3.293   1.853   4.723 -0.6131  0.5826 -0.5681
   58SAPC  H11X 4401   3.261   1.789   4.638 -0.0840  1.3533 -1.3693
   58SAPC  H11Y 4402   3.322   1.788   4.808  1.0186  0.5499 -1.1025
   58SAPC  C312 4403   3.404   1.947   4.680 -0.0448 -0.0023 -0.1956
   58SAPC  H12X 4404   3.436   2.008   4.767 -0.3475  0.3562 -0.3332
   58SAPC  H12Y 4405   3.364   2.014   4.601 -0.9780  0.8396  0.9555
   58SAPC  C313 4406   3.538   1.883   4.638  0.0751  0.3928  0.6988
   58SAPC  H13X 4407   3.518   1.804   4.563  0.2865  0.1320  0.9124
   58SAPC  H13Y 4408   3.582   1.836   4.729 -0.3631 -1.9265 -0.2056
   58SAPC  C314 4409   3.639   1.983   4.576 -0.8516  0.5769 -0.3163
   58SAPC  H14X 4410   3.666   2.064   4.647 -0.0493  0.7719 -0.8368
   58SAPC  H14Y 4411   3.589   2.038   4.493 -0.8784  1.3062  0.1688
   58SAPC  C315 4412   3.768   1.917   4.518  0.5987 -0.3517  0.4682
   58SAPC  H15X 4413   3.819   1.854   4.595 -0.4414 -0.3591  1.1780
   58SAPC  H15Y 4414   3.837   1.999   4.489  0.7560  0.1739  2.2167
   58SAPC  C316 4415   3.741   1.833   4.398  0.1988  0.3475  0.4294
   58SAPC  H16X 4416   3.682   1.739   4.411 -0.7016  0.7563 -0.5075
   58SAPC  H16Y 4417   3.842   1.793   4.374  0.3625  1.0947 -0.1501
   58SAPC  C317 4418   3.676   1.913   4.283  0.4978 -0.1944  0.1483
   58SAPC  H17X 4419   3.719   2.014   4.273  1.5782 -0.6893 -0.3766
   58SAPC  H17Y 4420   3.574   1.938   4.319  1.3149  2.2085  0.9463
   58SAPC  C318 4421   3.667   1.843   4.148  0.1284 -0.6644 -0.0738
   58SAPC  H18X 4422   3.771   1.827   4.114  0.2236 -1.4540  0.5626
   58SAPC  H18Y 4423   3.605   1.909   4.084 -0.9384 -0.2366  1.3284
   58SAPC  H18Z 4424   3.610   1.749   4.163  0.2407 -0.9183 -1.1729
   59SAPC     N 4425   1.546   3.261   6.012  0.2625 -1.4811 -0.2275
   59SAPC   C12 4426   1.477   3.357   5.917  0.0059 -0.8476  0.3080
   59SAPC  H12A 4427   1.379   3.378   5.957  0.9014  0.5009  1.9001
   59SAPC  H12B 4428   1.463   3.313   5.819  1.1268  0.4970 -0.4991
   59SAPC   C13 4429   1.686   3.231   5.963  0.6336  0.6727 -1.0911
   59SAPC  H13A 4430   1.672   3.164   5.880  1.2046  0.4296 -0.9930
   59SAPC  H13B 4431   1.744   3.321   5.946  1.1957  0.5066 -0.1333
   59SAPC  H13C 4432   1.740   3.181   6.042 -0.6079 -0.5519 -0.9904
   59SAPC   C14 4433   1.566   3.338   6.140 -0.2466 -0.6183  0.0563
   59SAPC  H14A 4434   1.631   3.281   6.205 -1.7100 -1.0381  1.2062
   59SAPC  H14B 4435   1.622   3.429   6.120  0.8589 -0.5701  2.9085
   59SAPC  H14C 4436   1.464   3.345   6.175 -1.1983 -0.4885 -2.5249
   59SAPC   C15 4437   1.462   3.145   6.052 -0.3647  0.4464 -0.1209
   59SAPC  H15A 4438   1.514   3.081   6.121 -0.8426 -0.0738 -0.2367
   59SAPC  H15B 4439   1.372   3.165   6.107  0.3360  4.6284 -0.1996
   59SAPC  H15C 4440   1.448   3.077   5.969 -2.3222  0.0634  0.4705
   59SAPC   C11 4441   1.551   3.490   5.878 -0.2833 -0.1952  0.7709
   59SAPC  H11A 4442   1.502   3.537   5.790  2.2818  0.2953 -0.5179
   59SAPC  H11B 4443   1.651   3.459   5.841 -1.8126 -0.5977 -3.6047
   59SAPC     P 4444   1.463   3.685   6.033  0.0803 -0.0609  0.2178
   59SAPC   O13 4445   1.355   3.594   6.076  0.7566 -0.5697 -0.2606
   59SAPC   O14 4446   1.525   3.777   6.134 -0.5866  0.2010 -0.1989
   59SAPC   O12 4447   1.578   3.582   5.979  0.0304  0.0865 -0.5859
   59SAPC   O11 4448   1.423   3.759   5.897 -0.3476 -0.1364 -0.0230
   59SAPC    C1 4449   1.515   3.845   5.830  0.5029 -0.5637 -0.1085
   59SAPC    HA 4450   1.579   3.894   5.907  0.0256 -3.0357  2.0086
   59SAPC    HB 4451   1.583   3.796   5.757 -0.0242 -0.7151 -0.5044
   59SAPC    C2 4452   1.431   3.949   5.760  0.6951 -0.2383  0.2004
   59SAPC    HS 4453   1.326   3.923   5.783  1.1884 -0.4638  2.4567
   59SAPC   O21 4454   1.478   3.963   5.622 -0.3783  0.5402  0.4130
   59SAPC   C21 4455   1.381   3.995   5.535 -0.3343  0.2396  0.0544
   59SAPC   O22 4456   1.259   3.995   5.567  0.0677 -0.6526 -0.7529
   59SAPC   C22 4457   1.440   4.044   5.402 -0.9368 -0.4364 -0.4265
   59SAPC   H2R 4458   1.417   4.151   5.385  0.6254 -0.0947 -0.4402
   59SAPC   H2S 4459   1.550   4.039   5.410 -0.8742  2.1301  1.2367
   59SAPC    C3 4460   1.439   4.087   5.827  0.9098 -0.1653 -0.2599
   59SAPC    HX 4461   1.415   4.064   5.933  2.3599 -3.9987 -0.5994
   59SAPC    HY 4462   1.370   4.162   5.783 -2.3721 -1.5517  2.0937
   59SAPC   O31 4463   1.576   4.137   5.825  0.0127  0.6338 -0.2983
   59SAPC   C31 4464   1.605   4.227   5.738 -1.0792  0.1736 -0.0736
   59SAPC   O32 4465   1.532   4.284   5.662  0.6821  0.1891 -0.5776
   59SAPC   C32 4466   1.755   4.248   5.747 -0.3728 -0.7095 -0.1744
   59SAPC   H2X 4467   1.799   4.161   5.801  0.5522  1.6759  3.3056
   59SAPC   H2Y 4468   1.766   4.338   5.812 -0.5489  0.7324 -2.0720
   59SAPC   C23 4469   1.401   3.963   5.276 -0.2462 -0.0693 -0.6505
   59SAPC   H3R 4470   1.293   3.986   5.263  0.2546  2.7289 -0.4073
   59SAPC   H3S 4471   1.419   3.855   5.297 -0.1000  0.1614  0.4928
   59SAPC   C24 4472   1.488   4.004   5.152  0.3191 -0.4029 -0.1861
   59SAPC   H4R 4473   1.452   3.933   5.074 -1.2702  0.6546 -0.4784
   59SAPC   H4S 4474   1.597   3.995   5.172  0.6162  1.7357 -0.5525
   59SAPC   C25 4475   1.455   4.150   5.106  0.3068  0.0039 -0.4422
   59SAPC   H5R 4476   1.415   4.216   5.184 -2.7067 -1.0193 -0.9777
   59SAPC   C26 4477   1.461   4.202   4.984  0.3390 -0.0189  0.3523
   59SAPC   H6R 4478   1.406   4.294   4.961  0.1016 -0.0580  0.7475
   59SAPC   C27 4479   1.518   4.137   4.861 -0.0983 -0.3943  0.5825
   59SAPC   H7R 4480   1.586   4.053   4.889 -0.7960 -0.4665  2.1758
   59SAPC   H7S 4481   1.589   4.206   4.812 -0.9934  1.7995  2.1937
   59SAPC   C28 4482   1.409   4.087   4.775 -0.5200 -0.2383 -0.4750
   59SAPC   H8R 4483   1.362   3.993   4.807  1.1177 -0.9644 -0.0897
   59SAPC   C29 4484   1.375   4.132   4.651 -0.2169 -0.0064  0.1463
   59SAPC   H9R 4485   1.285   4.089   4.603  0.6890 -0.7595 -0.9500
   59SAPC  C210 4486   1.435   4.263   4.598 -0.0854 -0.3319  0.1304
   59SAPC  H10R 4487   1.541   4.235   4.581  0.0096 -0.6964  1.2439
   59SAPC  H10S 4488   1.423   4.348   4.669 -0.8013 -0.2316 -0.1001
   59SAPC  C211 4489   1.358   4.303   4.476 -0.5768 -0.3440 -0.0936
   59SAPC  H11R 4490   1.251   4.277   4.468 -0.2525 -1.0815 -3.4170
   59SAPC  C212 4491   1.404   4.357   4.361 -0.0552  1.0661  0.5151
   59SAPC  H12R 4492   1.337   4.379   4.276  1.4383  0.7506 -0.7854
   59SAPC  C213 4493   1.548   4.376   4.321 -0.5218 -0.0962 -0.5040
   59SAPC  H13R 4494   1.603   4.417   4.408 -1.8093 -0.8037  0.6806
   59SAPC  H13S 4495   1.559   4.453   4.241 -2.7471  3.0778  1.9473
   59SAPC  C214 4496   1.616   4.250   4.288 -0.1920  0.5446  0.7885
   59SAPC  H14R 4497   1.616   4.164   4.357  4.0672 -1.8092 -1.7331
   59SAPC  C215 4498   1.662   4.213   4.162 -0.1352 -0.2965 -0.0945
   59SAPC  H15R 4499   1.718   4.119   4.168 -1.4147 -1.2070 -1.5997
   59SAPC  C216 4500   1.656   4.283   4.030  0.1418  0.2468  0.2115
   59SAPC  H16R 4501   1.596   4.377   4.028  0.6533  0.5884  0.6813
   59SAPC  H16S 4502   1.608   4.216   3.956 -0.1008  1.2201 -0.5332
   59SAPC  C217 4503   1.793   4.323   3.979  0.4386  0.5204 -0.1355
   59SAPC  H17R 4504   1.856   4.235   3.953  1.1239  1.8155 -3.2715
   59SAPC  H17S 4505   1.852   4.379   4.055  0.2072 -0.6187  0.9134
   59SAPC  C218 4506   1.768   4.411   3.857  0.4259 -0.1318 -0.2427
   59SAPC  H18R 4507   1.697   4.492   3.880 -0.4660 -0.9386 -0.1023
   59SAPC  H18S 4508   1.733   4.339   3.780  0.0012 -1.3871  1.0756
   59SAPC  C219 4509   1.896   4.478   3.811 -0.9022 -1.3044  0.2523
   59SAPC  H19R 4510   1.876   4.543   3.724  0.7728  1.3487  1.6973
   59SAPC  H19S 4511   1.964   4.398   3.775  1.0656  0.7196 -0.7664
   59SAPC  C220 4512   1.967   4.565   3.918 -0.1812  0.9711 -0.7286
   59SAPC  H20R 4513   2.032   4.514   3.992 -0.0766  3.4783  1.0284
   59SAPC  H20S 4514   1.907   4.635   3.980  0.1285 -0.2803  1.0469
   59SAPC  H20T 4515   2.045   4.623   3.864  0.1315  1.2589  0.0261
   59SAPC   C33 4516   1.830   4.262   5.612 -0.4481  1.0643 -0.1179
   59SAPC   H3X 4517   1.922   4.322   5.628  0.3630 -0.5408  1.7762
   59SAPC   H3Y 4518   1.765   4.319   5.543 -1.0704  2.7962  1.8353
   59SAPC   C34 4519   1.858   4.121   5.564 -0.4728 -0.4105  0.3427
   59SAPC   H4X 4520   1.764   4.065   5.548 -0.0771 -0.5369 -1.8358
   59SAPC   H4Y 4521   1.917   4.068   5.643 -0.3879 -1.7643 -0.6000
   59SAPC   C35 4522   1.948   4.118   5.433 -0.7499 -0.6051 -0.3138
   59SAPC   H5X 4523   1.880   4.160   5.356 -0.9924  0.1364  0.2877
   59SAPC   H5Y 4524   1.962   4.010   5.411 -0.9352 -1.2389  2.3648
   59SAPC   C36 4525   2.085   4.195   5.440 -0.6068  0.0721 -0.1470
   59SAPC   H6X 4526   2.129   4.181   5.541  2.2923  0.9577 -1.1716
   59SAPC   H6Y 4527   2.064   4.303   5.428  0.2614  0.4101  1.2403
   59SAPC   C37 4528   2.188   4.145   5.335  0.3404 -0.3602 -0.3060
   59SAPC   H7X 4529   2.214   4.037   5.334  2.6580  0.1349  0.6581
   59SAPC   H7Y 4530   2.287   4.189   5.362  0.3193 -0.5077  0.0053
   59SAPC   C38 4531   2.135   4.167   5.195 -0.2853 -0.2719  0.3433
   59SAPC   H8X 4532   2.103   4.273   5.184  1.0996  0.0424 -1.0023
   59SAPC   H8Y 4533   2.047   4.108   5.162  0.0499 -1.5024  1.5847
   59SAPC   C39 4534   2.240   4.118   5.094  0.4254 -0.1951 -0.7305
   59SAPC   H9X 4535   2.280   4.017   5.119 -0.0238  0.3861  2.8850
   59SAPC   H9Y 4536   2.322   4.191   5.109 -0.4694  0.5292  0.9832
   59SAPC  C310 4537   2.184   4.133   4.948 -1.0070 -0.1186 -0.4792
   59SAPC  H10X 4538   2.159   4.238   4.923  0.3374  0.3005 -0.1137
   59SAPC  H10Y 4539   2.089   4.077   4.933 -0.4663 -1.0441 -0.5803
   59SAPC  C311 4540   2.288   4.088   4.843 -0.4667 -0.0478 -0.6044
   59SAPC  H11X 4541   2.273   3.978   4.834  0.3574 -0.4704  2.3804
   59SAPC  H11Y 4542   2.393   4.110   4.870 -1.0730  3.5078 -0.5694
   59SAPC  C312 4543   2.264   4.151   4.704 -0.3939 -0.2136 -0.7895
   59SAPC  H12X 4544   2.341   4.122   4.630  0.0898  0.2424 -0.4676
   59SAPC  H12Y 4545   2.277   4.261   4.697  1.4855 -0.5004 -3.6730
   59SAPC  C313 4546   2.130   4.123   4.631 -0.4705 -0.3352  0.6139
   59SAPC  H13X 4547   2.050   4.165   4.695 -1.1131  0.7459 -0.8499
   59SAPC  H13Y 4548   2.118   4.013   4.617  0.0505 -0.1915 -1.0868
   59SAPC  C314 4549   2.131   4.192   4.493  0.2248 -0.3917 -0.5157
   59SAPC  H14X 4550   2.230   4.187   4.443  0.4055  0.9020 -0.3394
   59SAPC  H14Y 4551   2.112   4.300   4.509 -0.3466 -0.6200  0.3873
   59SAPC  C315 4552   2.036   4.127   4.389  0.5266  0.7028  0.0896
   59SAPC  H15X 4553   2.002   4.191   4.305  0.9507 -3.0041 -3.1863
   59SAPC  H15Y 4554   1.949   4.085   4.444  0.5424 -0.8571 -1.0178
   59SAPC  C316 4555   2.099   4.019   4.303  0.5570 -0.1608 -0.4576
   59SAPC  H16X 4556   2.124   3.935   4.372  1.5776 -0.6765 -1.4219
   59SAPC  H16Y 4557   2.191   4.062   4.258  0.2730  0.8673 -0.0721
   59SAPC  C317 4558   1.997   3.984   4.191 -0.0847  0.2915 -0.6862
   59SAPC  H17X 4559   1.893   4.014   4.212 -0.3747 -0.8450 -0.4464
   59SAPC  H17Y 4560   1.993   3.873   4.186  2.5317 -0.0929  2.4256
   59SAPC  C318 4561   2.034   4.040   4.054  0.4249 -0.1157 -0.8744
   59SAPC  H18X 4562   2.056   4.147   4.074 -0.8450  0.0955 -0.5069
   59SAPC  H18Y 4563   1.950   4.035   3.982 -1.5021  2.7708  0.9593
   59SAPC  H18Z 4564   2.126   3.989   4.018  0.3483 -0.9029  0.0183
   60SAPC     N 4565   1.190   4.657   5.985  0.5364  0.4005 -0.0358
   60SAPC   C12 4566   1.176   4.531   5.905 -0.1333  0.1037 -0.2943
   60SAPC  H12A 4567   1.198   4.545   5.800  0.3717  0.9777 -0.0847
   60SAPC  H12B 4568   1.073   4.498   5.897 -0.3771  1.1984 -3.4308
   60SAPC   C13 4569   1.120   4.628   6.119 -0.9318  0.5372  0.2796
   60SAPC  H13A 4570   1.013   4.619   6.108 -0.8382  0.9684 -1.0943
   60SAPC  H13B 4571   1.157   4.534   6.159 -1.1978  0.8527  1.3171
   60SAPC  H13C 4572   1.142   4.707   6.190 -1.9854  1.3503 -0.2785
   60SAPC   C14 4573   1.330   4.700   6.009 -0.4591 -0.4484 -0.4679
   60SAPC  H14A 4574   1.388   4.720   5.920  1.6979  2.1566  1.3678
   60SAPC  H14B 4575   1.338   4.794   6.061 -0.1848 -1.3948  1.2751
   60SAPC  H14C 4576   1.381   4.624   6.067  0.5675  1.0223  0.6176
   60SAPC   C15 4577   1.118   4.757   5.910 -0.4995  0.4374 -0.0512
   60SAPC  H15A 4578   1.014   4.728   5.915 -0.5848  0.2052 -2.2828
   60SAPC  H15B 4579   1.125   4.857   5.951  0.3750  0.5289 -0.4016
   60SAPC  H15C 4580   1.152   4.759   5.808 -3.4525 -0.3925 -1.1444
   60SAPC   C11 4581   1.252   4.408   5.965 -0.0745  0.0715  0.1717
   60SAPC  H11A 4582   1.244   4.407   6.075  0.6959 -0.1772  0.2296
   60SAPC  H11B 4583   1.362   4.417   5.952 -0.1349  1.0236  0.2638
   60SAPC     P 4584   1.077   4.220   5.926 -0.0252 -0.1323  0.2966
   60SAPC   O13 4585   1.111   4.079   5.934  0.2612 -0.1854 -0.1934
   60SAPC   O14 4586   1.025   4.277   6.051  1.1666  0.3744 -0.1644
   60SAPC   O12 4587   1.207   4.293   5.892 -0.2577  0.3234  0.0954
   60SAPC   O11 4588   0.973   4.243   5.807 -0.4168  0.9931  0.2787
   60SAPC    C1 4589   1.009   4.261   5.667  0.1682  0.6709  0.0062
   60SAPC    HA 4590   0.988   4.365   5.634 -1.8758  0.4785  0.5481
   60SAPC    HB 4591   1.118   4.243   5.657  0.5690  2.6645  0.3199
   60SAPC    C2 4592   0.940   4.153   5.578  0.7577  0.2409 -0.2612
   60SAPC    HS 4593   0.983   4.062   5.625  3.0680  0.1354 -2.3871
   60SAPC   O21 4594   0.980   4.169   5.443  0.2550  0.4443  0.0712
   60SAPC   C21 4595   0.964   4.046   5.373  0.1788  0.7241 -0.3706
   60SAPC   O22 4596   0.940   3.941   5.426 -0.1004 -0.4279  0.1991
   60SAPC   C22 4597   0.964   4.075   5.216  0.0769  0.3057 -0.0891
   60SAPC   H2R 4598   0.888   4.153   5.190  1.5803  1.5785 -0.8278
   60SAPC   H2S 4599   1.062   4.118   5.187 -0.9238  1.2061 -2.4429
   60SAPC    C3 4600   0.785   4.148   5.587 -0.7992 -0.2462  0.4931
   60SAPC    HX 4601   0.759   4.118   5.690 -2.4919  1.4950  0.6325
   60SAPC    HY 4602   0.736   4.070   5.525 -3.2990  1.9814 -0.5923
   60SAPC   O31 4603   0.731   4.284   5.566  0.6977  0.2209 -0.3855
   60SAPC   C31 4604   0.703   4.314   5.435 -0.2335 -0.0473 -0.2058
   60SAPC   O32 4605   0.708   4.235   5.344  0.6566 -0.5075 -0.0362
   60SAPC   C32 4606   0.637   4.451   5.427  0.4242 -1.0209  0.0161
   60SAPC   H2X 4607   0.541   4.452   5.483  0.6309 -0.0885  0.3636
   60SAPC   H2Y 4608   0.606   4.458   5.321  1.5919 -1.3302 -0.3644
   60SAPC   C23 4609   0.929   3.960   5.127 -0.9891  0.3886  0.1364
   60SAPC   H3R 4610   0.820   3.941   5.125 -1.0519  0.7921 -0.7358
   60SAPC   H3S 4611   0.983   3.875   5.174 -0.9325 -0.7929 -1.9223
   60SAPC   C24 4612   0.991   3.968   4.985  0.4139  0.3323 -0.6566
   60SAPC   H4R 4613   0.973   3.874   4.928  1.5458 -0.5152  0.3009
   60SAPC   H4S 4614   1.102   3.981   4.990  0.2811  1.0754  0.7490
   60SAPC   C25 4615   0.919   4.075   4.912 -0.1053  0.6546 -0.6496
   60SAPC   H5R 4616   0.836   4.113   4.974 -0.4235 -2.1497  0.7970
   60SAPC   C26 4617   0.928   4.112   4.784 -0.5926  0.5186 -0.2233
   60SAPC   H6R 4618   0.855   4.186   4.750  1.1584  2.1213 -0.6744
   60SAPC   C27 4619   1.019   4.042   4.688 -0.3028 -0.0298 -0.2199
   60SAPC   H7R 4620   1.103   3.983   4.729 -0.3022  0.3773  0.3816
   60SAPC   H7S 4621   1.078   4.119   4.633 -0.1375 -0.3773 -0.5336
   60SAPC   C28 4622   0.957   3.940   4.594  0.2477 -0.7933  0.2537
   60SAPC   H8R 4623   0.918   3.844   4.632 -0.2299 -2.2634 -3.5816
   60SAPC   C29 4624   0.887   3.969   4.483 -0.3848 -0.0059  0.1353
   60SAPC   H9R 4625   0.849   3.879   4.432 -2.0493  0.8360 -0.1728
   60SAPC  C210 4626   0.859   4.103   4.413  0.9903  0.1116  0.3260
   60SAPC  H10R 4627   0.908   4.108   4.314 -0.0764  3.6835 -0.1545
   60SAPC  H10S 4628   0.901   4.192   4.464 -0.7927  1.9157 -1.1641
   60SAPC  C211 4629   0.710   4.130   4.404  0.3952 -0.2651 -0.0258
   60SAPC  H11R 4630   0.661   4.167   4.495  1.4616 -0.7371  0.7707
   60SAPC  C212 4631   0.633   4.100   4.297 -0.1705 -0.3029  0.1431
   60SAPC  H12R 4632   0.525   4.116   4.308 -0.0983 -1.5277  3.8443
   60SAPC  C213 4633   0.676   4.038   4.160 -0.0452 -0.1134  0.3860
   60SAPC  H13R 4634   0.583   3.995   4.119 -1.4837  0.7400  2.5550
   60SAPC  H13S 4635   0.750   3.956   4.165  0.3209  0.1701 -0.2167
   60SAPC  C214 4636   0.719   4.143   4.058 -0.0767  0.5544  0.6227
   60SAPC  H14R 4637   0.632   4.204   4.031 -0.2138 -1.2933 -3.9776
   60SAPC  C215 4638   0.842   4.163   4.006 -0.4690 -0.4000 -0.6459
   60SAPC  H15R 4639   0.871   4.255   3.953  0.2872 -0.0302  0.3761
   60SAPC  C216 4640   0.968   4.086   4.038 -0.0280 -0.1694  1.1470
   60SAPC  H16R 4641   1.014   4.057   3.941  0.6536 -1.1625  1.7509
   60SAPC  H16S 4642   0.958   4.001   4.108  2.5333 -1.0125  0.6125
   60SAPC  C217 4643   1.071   4.185   4.102 -0.3382 -0.5436  0.5786
   60SAPC  H17R 4644   1.032   4.247   4.186  2.0965  1.0373  0.6546
   60SAPC  H17S 4645   1.094   4.257   4.020  0.5489 -1.7704 -0.2804
   60SAPC  C218 4646   1.199   4.121   4.157  1.1237 -0.3339  0.5657
   60SAPC  H18R 4647   1.279   4.196   4.173  1.5824 -0.7630  0.3028
   60SAPC  H18S 4648   1.233   4.052   4.077 -1.0584 -1.1093  0.2227
   60SAPC  C219 4649   1.188   4.036   4.278 -0.5150  0.0954 -1.2209
   60SAPC  H19R 4650   1.098   3.971   4.275 -0.6292  0.1760  0.0537
   60SAPC  H19S 4651   1.162   4.098   4.366 -0.9714 -0.2141 -1.1349
   60SAPC  C220 4652   1.319   3.950   4.298 -0.1689 -0.2954  0.4323
   60SAPC  H20R 4653   1.411   4.012   4.298 -0.2367 -0.1709 -0.8832
   60SAPC  H20S 4654   1.334   3.877   4.215  1.6904  0.6579 -0.1130
   60SAPC  H20T 4655   1.318   3.894   4.394  1.4043 -1.4706 -0.1865
   60SAPC   C33 4656   0.715   4.570   5.491 -0.1808 -0.3262  0.5454
   60SAPC   H3X 4657   0.762   4.525   5.580  2.2928  1.0467  0.0375
   60SAPC   H3Y 4658   0.647   4.657   5.508 -3.8348 -2.8327 -0.0932
   60SAPC   C34 4659   0.827   4.622   5.395  0.6200  0.0235 -0.0117
   60SAPC   H4X 4660   0.849   4.717   5.448 -1.1241 -0.0976  1.0140
   60SAPC   H4Y 4661   0.777   4.650   5.300  1.3788  2.3557  0.2154
   60SAPC   C35 4662   0.943   4.532   5.353 -0.6163  0.0148  0.0963
   60SAPC   H5X 4663   0.900   4.454   5.286 -0.0891  0.7920 -1.2030
   60SAPC   H5Y 4664   0.990   4.476   5.436 -0.0479 -1.5509 -1.2206
   60SAPC   C36 4665   1.056   4.602   5.271 -0.0638 -0.2383  0.3009
   60SAPC   H6X 4666   1.097   4.685   5.333 -1.4636  0.7496 -0.0211
   60SAPC   H6Y 4667   1.005   4.653   5.186  0.1252  0.0674  0.3687
   60SAPC   C37 4668   1.171   4.512   5.221  0.0905  0.9298 -0.0244
   60SAPC   H7X 4669   1.235   4.474   5.303  0.3178  0.0770 -0.5831
   60SAPC   H7Y 4670   1.244   4.576   5.167  0.1834  1.2056  0.4208
   60SAPC   C38 4671   1.128   4.388   5.144  0.4926  0.4130 -0.4178
   60SAPC   H8X 4672   1.051   4.344   5.210 -0.5352  1.7732 -0.6653
   60SAPC   H8Y 4673   1.223   4.332   5.128  2.3168  3.5203 -1.4233
   60SAPC   C39 4674   1.064   4.426   5.006  0.0767 -0.0759  0.4857
   60SAPC   H9X 4675   0.962   4.468   5.023  1.4312  3.8550 -0.0419
   60SAPC   H9Y 4676   1.064   4.328   4.955 -1.9658  0.4102 -0.5381
   60SAPC  C310 4677   1.144   4.526   4.920 -0.0086 -0.3224 -0.5770
   60SAPC  H10X 4678   1.253   4.515   4.938 -0.0547  0.4564  0.2244
   60SAPC  H10Y 4679   1.120   4.630   4.950  1.0368  0.0258 -0.9140
   60SAPC  C311 4680   1.136   4.518   4.769  0.1784  0.3595  0.1044
   60SAPC  H11X 4681   1.201   4.436   4.732  0.7649  0.6210  0.5140
   60SAPC  H11Y 4682   1.182   4.609   4.724  1.2207 -1.1644 -2.1102
   60SAPC  C312 4683   0.996   4.494   4.706  0.6252 -0.1223 -0.3610
   60SAPC  H12X 4684   0.936   4.584   4.733  1.4715 -0.1767  1.8958
   60SAPC  H12Y 4685   0.946   4.407   4.752  1.0960  0.2000  0.7836
   60SAPC  C313 4686   1.004   4.483   4.550 -0.4678  0.6489  0.2152
   60SAPC  H13X 4687   1.063   4.390   4.536  0.8557  1.7357 -2.0765
   60SAPC  H13Y 4688   1.059   4.561   4.493 -1.3789 -1.5843 -4.1357
   60SAPC  C314 4689   0.867   4.469   4.481  0.1187  0.9819  0.3438
   60SAPC  H14X 4690   0.790   4.542   4.515 -2.0245 -1.4006  0.9539
   60SAPC  H14Y 4691   0.819   4.372   4.507  0.1938  1.2176  1.4175
   60SAPC  C315 4692   0.903   4.472   4.333  0.9529  0.4091  0.6188
   60SAPC  H15X 4693   0.960   4.381   4.308  0.2673 -0.0421  0.6845
   60SAPC  H15Y 4694   0.970   4.555   4.300 -1.5785  2.9517  1.4323
   60SAPC  C316 4695   0.777   4.479   4.245  0.7644  0.8478  1.0195
   60SAPC  H16X 4696   0.705   4.553   4.287  0.9344  2.2673 -1.0524
   60SAPC  H16Y 4697   0.730   4.378   4.245  1.1428  0.6676  0.5157
   60SAPC  C317 4698   0.809   4.529   4.101  0.2053  0.2862 -0.4494
   60SAPC  H17X 4699   0.885   4.458   4.061  0.9449  2.3767 -3.0072
   60SAPC  H17Y 4700   0.848   4.632   4.116  1.5355 -0.0266 -1.5196
   60SAPC  C318 4701   0.683   4.525   4.018 -0.2422  0.2961  0.3418
   60SAPC  H18X 4702   0.649   4.421   3.998 -0.1677  0.6065 -1.6422
   60SAPC  H18Y 4703   0.704   4.570   3.918  0.3940 -0.9117 -0.0849
   60SAPC  H18Z 4704   0.604   4.590   4.063  0.2216 -0.0577  1.6950
   61SAPC     N 4705   5.705   4.792   6.289  0.2334  0.1098 -0.3904
   61SAPC   C12 4706   5.805   4.894   6.311  0.2605 -0.6981  0.4156
   61SAPC  H12A 4707   5.843   4.875   6.410  0.6781 -0.6874  0.2633
   61SAPC  H12B 4708   5.765   4.994   6.302  1.1330 -0.5000 -2.3930
   61SAPC   C13 4709   5.591   4.804   6.391  0.0638 -0.1381 -0.0165
   61SAPC  H13A 4710   5.632   4.798   6.491  1.0582 -0.2044 -0.4158
   61SAPC  H13B 4711   5.521   4.885   6.376 -0.8881 -0.8021  0.6786
   61SAPC  H13C 4712   5.533   4.713   6.398 -0.9521  0.5961  1.9300
   61SAPC   C14 4713   5.649   4.808   6.154  0.3446  1.2229  0.6083
   61SAPC  H14A 4714   5.693   4.741   6.081  0.3443  2.8649 -0.9634
   61SAPC  H14B 4715   5.543   4.788   6.152  0.6654 -0.6686 -0.9636
   61SAPC  H14C 4716   5.674   4.908   6.122  2.5665  1.0691  1.6956
   61SAPC   C15 4717   5.776   4.656   6.300 -0.1614  0.0457  0.2832
   61SAPC  H15A 4718   5.698   4.586   6.278 -3.1812  3.0046  0.7184
   61SAPC  H15B 4719   5.858   4.643   6.231  0.6510  0.5288  1.1296
   61SAPC  H15C 4720   5.818   4.648   6.400 -0.7586 -2.6180  0.3759
   61SAPC   C11 4721   5.918   4.885   6.207  0.1452  0.1884 -0.3718
   61SAPC  H11A 4722   5.948   4.991   6.192  1.5468  0.1317  1.6923
   61SAPC  H11B 4723   5.889   4.836   6.112  0.5385  1.3686 -1.1248
   61SAPC     P 4724   6.164   4.800   6.194  0.1138  0.0335  0.1244
   61SAPC   O13 4725   6.260   4.902   6.231 -0.2775 -0.6182  0.6987
   61SAPC   O14 4726   6.209   4.662   6.225 -0.0981 -0.8392 -0.3725
   61SAPC   O12 4727   6.022   4.821   6.269 -0.7026 -0.1339  0.2544
   61SAPC   O11 4728   6.130   4.817   6.043 -0.1758 -0.0056 -0.2811
   61SAPC    C1 4729   6.199   4.738   5.945 -0.8837 -0.4377 -0.4089
   61SAPC    HA 4730   6.189   4.629   5.965 -0.2648  0.0352  3.0440
   61SAPC    HB 4731   6.149   4.769   5.850  0.0097  1.0867 -0.4065
   61SAPC    C2 4732   6.346   4.778   5.919  0.8664  0.2606 -0.2323
   61SAPC    HS 4733   6.381   4.798   6.023 -2.2778  3.8148  0.3531
   61SAPC   O21 4734   6.350   4.905   5.857  0.1508 -0.2267  0.1656
   61SAPC   C21 4735   6.462   4.963   5.856 -0.0263 -0.6896  0.1500
   61SAPC   O22 4736   6.563   4.927   5.915 -0.4026 -0.1489  0.2014
   61SAPC   C22 4737   6.437   5.098   5.810 -0.1087  0.0096 -0.3109
   61SAPC   H2R 4738   6.333   5.111   5.775 -0.4620 -3.0300 -0.6803
   61SAPC   H2S 4739   6.469   5.169   5.889 -0.4798  1.1660 -1.1748
   61SAPC    C3 4740   6.421   4.663   5.862  0.7571 -0.0412 -0.3215
   61SAPC    HX 4741   6.404   4.570   5.921 -0.7795  1.2531  1.3954
   61SAPC    HY 4742   6.529   4.685   5.876  1.0964  0.4069 -3.1038
   61SAPC   O31 4743   6.390   4.634   5.723  0.0524  0.2463 -0.5990
   61SAPC   C31 4744   6.460   4.689   5.622 -0.3899 -0.2559  0.4544
   61SAPC   O32 4745   6.559   4.759   5.632 -0.1301  0.3172  0.5337
   61SAPC   C32 4746   6.412   4.642   5.485  0.0385  0.0852  0.8600
   61SAPC   H2X 4747   6.334   4.564   5.498 -1.0670  0.9954 -0.1233
   61SAPC   H2Y 4748   6.503   4.605   5.432 -0.7363  0.3569 -0.7252
   61SAPC   C23 4749   6.523   5.118   5.685 -0.1179  0.1796  0.5824
   61SAPC   H3R 4750   6.509   5.051   5.597  0.1485 -0.3794  0.9606
   61SAPC   H3S 4751   6.628   5.123   5.720 -0.1121  1.2463  0.4450
   61SAPC   C24 4752   6.498   5.260   5.635 -0.3803 -0.3768 -0.1893
   61SAPC   H4R 4753   6.590   5.299   5.587  1.6302 -2.7671  1.4828
   61SAPC   H4S 4754   6.477   5.328   5.721  0.9192 -0.0458 -0.1119
   61SAPC   C25 4755   6.385   5.270   5.539 -0.3134  0.2888 -0.4148
   61SAPC   H5R 4756   6.296   5.269   5.603 -0.3461  2.7776 -0.3089
   61SAPC   C26 4757   6.385   5.288   5.407  0.7832 -0.0140  1.0662
   61SAPC   H6R 4758   6.295   5.320   5.353  1.8809  0.8489 -0.3182
   61SAPC   C27 4759   6.502   5.288   5.317  0.1306  0.4806 -0.1216
   61SAPC   H7R 4760   6.590   5.245   5.369 -0.9211 -1.2352  0.3474
   61SAPC   H7S 4761   6.527   5.389   5.280  1.9400  0.3222  0.6021
   61SAPC   C28 4762   6.476   5.189   5.203  0.0506  0.0323  0.6940
   61SAPC   H8R 4763   6.436   5.088   5.223 -0.0700 -0.3930 -1.4320
   61SAPC   C29 4764   6.490   5.218   5.067 -0.3852  0.0324 -0.3268
   61SAPC   H9R 4765   6.468   5.135   4.998  0.9055 -0.3145 -0.3639
   61SAPC  C210 4766   6.541   5.348   5.011 -0.2667  0.0525  0.2647
   61SAPC  H10R 4767   6.649   5.361   5.034 -0.6245  1.4218  1.2585
   61SAPC  H10S 4768   6.497   5.427   5.076 -0.6762  1.1806 -1.3181
   61SAPC  C211 4769   6.504   5.371   4.867 -0.0754 -0.0322 -0.1919
   61SAPC  H11R 4770   6.400   5.404   4.851 -1.3580 -3.4940  0.0012
   61SAPC  C212 4771   6.579   5.329   4.769 -0.2101  0.6566  0.5270
   61SAPC  H12R 4772   6.537   5.340   4.668 -1.1869 -0.3788  0.8005
   61SAPC  C213 4773   6.711   5.254   4.759 -1.2583  0.6391  0.1090
   61SAPC  H13R 4774   6.729   5.200   4.854 -4.8374 -0.3663  0.3996
   61SAPC  H13S 4775   6.782   5.339   4.757 -0.3524 -0.0480  1.3507
   61SAPC  C214 4776   6.734   5.156   4.649  0.4630  0.4634  0.5126
   61SAPC  H14R 4777   6.652   5.087   4.623 -1.7233  3.5601 -1.5907
   61SAPC  C215 4778   6.853   5.125   4.593 -0.3068  0.0426 -0.6574
   61SAPC  H15R 4779   6.866   5.039   4.525  1.2016 -1.0676  0.9316
   61SAPC  C216 4780   6.990   5.184   4.619 -0.2733  0.3528 -0.5013
   61SAPC  H16R 4781   7.028   5.135   4.712  1.4017  2.7164  0.1799
   61SAPC  H16S 4782   6.977   5.291   4.645 -0.6451  0.3639 -0.7374
   61SAPC  C217 4783   7.089   5.164   4.500 -0.0137 -0.0432  0.1365
   61SAPC  H17R 4784   7.092   5.054   4.481 -1.8864 -0.0820 -0.0922
   61SAPC  H17S 4785   7.193   5.191   4.528  0.4172 -1.1341 -0.3389
   61SAPC  C218 4786   7.051   5.214   4.362 -0.0281 -0.9394  0.5056
   61SAPC  H18R 4787   7.063   5.324   4.357  1.0043 -1.0750 -0.4195
   61SAPC  H18S 4788   6.944   5.184   4.353 -0.0898 -0.7365  0.5632
   61SAPC  C219 4789   7.138   5.155   4.247  0.3953 -0.0986 -0.1476
   61SAPC  H19R 4790   7.125   5.221   4.159  1.9353  2.6509  1.5597
   61SAPC  H19S 4791   7.103   5.051   4.230  2.2275 -1.0370  1.4615
   61SAPC  C220 4792   7.288   5.147   4.267 -0.2847 -0.3396 -0.3814
   61SAPC  H20R 4793   7.321   5.249   4.295 -1.7317  0.1429 -0.3062
   61SAPC  H20S 4794   7.329   5.108   4.172  0.8496  1.9827 -0.9100
   61SAPC  H20T 4795   7.316   5.074   4.346 -1.3864 -0.4711 -0.0938
   61SAPC   C33 4796   6.360   4.760   5.402 -0.5442  0.2010 -0.0363
   61SAPC   H3X 4797   6.437   4.833   5.370 -0.5698 -0.3455 -1.4006
   61SAPC   H3Y 4798   6.296   4.818   5.471 -1.3165 -1.2588  0.5302
   61SAPC   C34 4799   6.287   4.726   5.275 -0.0140  0.2774  1.4414
   61SAPC   H4X 4800   6.357   4.678   5.203 -0.9199  2.5236 -1.0964
   61SAPC   H4Y 4801   6.273   4.823   5.223 -0.7143 -0.0692  0.9655
   61SAPC   C35 4802   6.153   4.646   5.283 -0.4984  0.2101  0.0316
   61SAPC   H5X 4803   6.074   4.699   5.340 -1.6181 -0.2542 -1.0360
   61SAPC   H5Y 4804   6.179   4.554   5.339  0.2832  1.3290  1.5680
   61SAPC   C36 4805   6.090   4.596   5.156  0.1550 -0.4062  0.3726
   61SAPC   H6X 4806   6.001   4.532   5.167 -1.2049  1.3753  0.1696
   61SAPC   H6Y 4807   6.167   4.539   5.100  0.1636  0.0652 -0.1119
   61SAPC   C37 4808   6.061   4.706   5.049  0.2604 -0.1698 -0.2612
   61SAPC   H7X 4809   6.149   4.772   5.054  0.2988 -0.3101  1.9665
   61SAPC   H7Y 4810   5.975   4.768   5.082  0.9539  0.2600  0.7806
   61SAPC   C38 4811   6.043   4.653   4.906  0.6503 -0.0500 -0.3406
   61SAPC   H8X 4812   5.970   4.571   4.915  0.0151  0.6814  1.6246
   61SAPC   H8Y 4813   6.131   4.607   4.856  0.4879  0.9230 -1.5763
   61SAPC   C39 4814   5.979   4.765   4.820  0.0151 -0.3795 -0.1417
   61SAPC   H9X 4815   6.047   4.853   4.818 -1.7531  1.0263 -0.7658
   61SAPC   H9Y 4816   5.878   4.784   4.862  0.5366  0.1024  0.9330
   61SAPC  C310 4817   5.953   4.720   4.668 -0.6326  0.4458 -1.1606
   61SAPC  H10X 4818   5.898   4.623   4.668  0.0763  0.0415 -1.1853
   61SAPC  H10Y 4819   6.051   4.708   4.617 -0.6059  0.2790 -1.0703
   61SAPC  C311 4820   5.855   4.812   4.599  0.8529 -0.4241 -0.2760
   61SAPC  H11X 4821   5.896   4.914   4.613  0.5671 -0.6231  2.5200
   61SAPC  H11Y 4822   5.754   4.805   4.645 -0.1479  0.6700 -2.1666
   61SAPC  C312 4823   5.840   4.780   4.449 -0.6452  1.5454 -0.1994
   61SAPC  H12X 4824   5.796   4.680   4.429  1.4838  0.8569 -1.8601
   61SAPC  H12Y 4825   5.945   4.775   4.412 -0.9125  0.3416 -0.8667
   61SAPC  C313 4826   5.771   4.890   4.364 -0.2829  0.3087 -0.5264
   61SAPC  H13X 4827   5.806   4.881   4.259 -4.6067  0.0498 -2.1099
   61SAPC  H13Y 4828   5.793   4.992   4.401 -0.9064 -0.4450  2.1177
   61SAPC  C314 4829   5.624   4.878   4.360  0.8898 -0.3871 -0.2842
   61SAPC  H14X 4830   5.580   4.915   4.455 -1.7381  1.4428 -2.0779
   61SAPC  H14Y 4831   5.600   4.770   4.345  0.3037 -0.0146 -2.3714
   61SAPC  C315 4832   5.550   4.957   4.248  0.8559  0.0135 -0.5197
   61SAPC  H15X 4833   5.609   4.946   4.155 -0.4904  0.7613 -1.5037
   61SAPC  H15Y 4834   5.549   5.065   4.274 -0.3588 -0.0836 -0.0842
   61SAPC  C316 4835   5.414   4.901   4.224  0.5249  0.0222  0.3596
   61SAPC  H16X 4836   5.360   4.924   4.319  1.4906  0.1814  0.8778
   61SAPC  H16Y 4837   5.429   4.792   4.208  2.0174  0.3641 -0.7378
   61SAPC  C317 4838   5.343   4.952   4.096  0.4514 -0.2837  0.3846
   61SAPC  H17X 4839   5.404   4.965   4.004  0.4490  0.5512  0.4874
   61SAPC  H17Y 4840   5.294   5.047   4.127 -0.2053  0.0612 -1.5824
   61SAPC  C318 4841   5.229   4.867   4.045  0.8602  0.1230  0.2087
   61SAPC  H18X 4842   5.165   4.909   3.965 -0.7033 -3.1577 -0.4246
   61SAPC  H18Y 4843   5.160   4.843   4.128  0.7360 -1.7669 -0.4026
   61SAPC  H18Z 4844   5.260   4.773   3.996  1.5046 -0.1177  1.0534
   62SAPC     N 4845   6.846   2.188   6.146 -0.1165  0.3466  0.3646
   62SAPC   C12 4846   6.889   2.321   6.075  0.2984  0.0009  0.1556
   62SAPC  H12A 4847   6.796   2.359   6.036 -0.7049 -0.5071  1.9386
   62SAPC  H12B 4848   6.956   2.299   5.993  0.0138 -1.7050  0.3486
   62SAPC   C13 4849   6.967   2.096   6.143  0.3025 -0.3185  0.4178
   62SAPC  H13A 4850   6.935   2.007   6.195  0.9052  0.6522  2.5449
   62SAPC  H13B 4851   6.986   2.070   6.040 -0.3256 -1.6283  0.6029
   62SAPC  H13C 4852   7.050   2.134   6.201  0.7029 -0.3136 -0.1468
   62SAPC   C14 4853   6.813   2.217   6.289 -0.7913  0.5149  0.2528
   62SAPC  H14A 4854   6.908   2.234   6.336 -0.6257  0.3889 -0.0363
   62SAPC  H14B 4855   6.737   2.293   6.298 -0.7371  0.4636  1.1836
   62SAPC  H14C 4856   6.777   2.126   6.335 -1.3568  1.4890  1.8251
   62SAPC   C15 4857   6.730   2.142   6.070  0.2314  0.6949  0.1735
   62SAPC  H15A 4858   6.748   2.127   5.965 -2.4857  3.3031 -0.8071
   62SAPC  H15B 4859   6.683   2.048   6.098  2.6166 -0.5487  0.2516
   62SAPC  H15C 4860   6.653   2.217   6.064 -1.0562 -0.6480 -0.8148
   62SAPC   C11 4861   6.960   2.426   6.160  0.0776 -0.3176 -0.0159
   62SAPC  H11A 4862   6.882   2.479   6.218  0.9363  1.2371 -0.2267
   62SAPC  H11B 4863   6.991   2.504   6.088 -0.9077 -0.0755 -0.1874
   62SAPC     P 4864   7.213   2.433   6.240 -0.1262 -0.6861  0.3562
   62SAPC   O13 4865   7.201   2.575   6.284 -0.0240 -0.1166  0.1664
   62SAPC   O14 4866   7.296   2.337   6.314 -0.6530  0.0080 -0.2143
   62SAPC   O12 4867   7.068   2.366   6.238 -0.2108 -0.0004 -0.4003
   62SAPC   O11 4868   7.253   2.420   6.087 -0.1141 -0.7775  0.0639
   62SAPC    C1 4869   7.343   2.518   6.026 -0.4824  0.0732  0.3502
   62SAPC    HA 4870   7.431   2.542   6.089  1.6957 -0.3964 -2.3314
   62SAPC    HB 4871   7.389   2.471   5.937 -1.1303 -0.4212  0.2713
   62SAPC    C2 4872   7.266   2.640   5.971 -1.0618  0.2024 -0.1080
   62SAPC    HS 4873   7.205   2.683   6.053  0.8818 -0.9193  2.0452
   62SAPC   O21 4874   7.177   2.594   5.870  0.1634  0.1421 -0.1362
   62SAPC   C21 4875   7.086   2.685   5.837  0.5089 -0.2867  0.7744
   62SAPC   O22 4876   7.094   2.806   5.859 -0.4751 -0.0073  0.4430
   62SAPC   C22 4877   6.966   2.609   5.780  0.2376 -0.1675 -0.0073
   62SAPC   H2R 4878   6.965   2.508   5.826 -1.3981  0.3270  1.1236
   62SAPC   H2S 4879   6.872   2.650   5.823  1.1648  1.2187  0.7526
   62SAPC    C3 4880   7.365   2.744   5.923 -0.4938 -0.3768  0.3641
   62SAPC    HX 4881   7.418   2.777   6.015 -0.3895  0.2706  0.0777
   62SAPC    HY 4882   7.325   2.834   5.870  1.3212  0.4882  0.3833
   62SAPC   O31 4883   7.451   2.674   5.829  0.4519  0.4279  0.3051
   62SAPC   C31 4884   7.469   2.714   5.703 -0.0854 -0.2991 -0.6424
   62SAPC   O32 4885   7.411   2.808   5.653 -0.0262 -0.4541  0.3249
   62SAPC   C32 4886   7.568   2.628   5.627  0.9954  0.1856 -0.2645
   62SAPC   H2X 4887   7.510   2.534   5.615  1.1256  0.0579  0.0980
   62SAPC   H2Y 4888   7.649   2.589   5.692 -0.6178  0.4518  1.9864
   62SAPC   C23 4889   6.967   2.621   5.628  0.0698  0.2031  0.1323
   62SAPC   H3R 4890   6.965   2.727   5.595  0.8456 -0.5053 -2.3610
   62SAPC   H3S 4891   6.874   2.571   5.593  0.2371 -0.5603  0.7509
   62SAPC   C24 4892   7.076   2.543   5.549 -0.6731 -0.1718  0.2872
   62SAPC   H4R 4893   7.030   2.499   5.457 -1.3227 -0.2579  0.6450
   62SAPC   H4S 4894   7.097   2.450   5.606 -0.3505  0.4040  1.1186
   62SAPC   C25 4895   7.204   2.609   5.513  0.0230 -0.2407  0.6021
   62SAPC   H5R 4896   7.222   2.700   5.572  0.3725  1.1047 -1.4783
   62SAPC   C26 4897   7.276   2.584   5.403  0.2596  0.2190  0.0559
   62SAPC   H6R 4898   7.350   2.656   5.365 -1.3191  1.4946 -0.7370
   62SAPC   C27 4899   7.240   2.475   5.308 -0.1976 -0.5909  0.0844
   62SAPC   H7R 4900   7.179   2.398   5.361 -3.8621  2.1020  0.1239
   62SAPC   H7S 4901   7.332   2.413   5.296  0.1129 -0.3355  1.0520
   62SAPC   C28 4902   7.174   2.504   5.178  0.0911  0.4513  0.8180
   62SAPC   H8R 4903   7.068   2.530   5.184 -0.2840 -0.5925 -0.5921
   62SAPC   C29 4904   7.233   2.523   5.058  0.0701 -0.8145 -0.5953
   62SAPC   H9R 4905   7.169   2.571   4.983 -2.3367 -0.0931  1.7482
   62SAPC  C210 4906   7.383   2.506   5.027  0.2613 -0.1698 -0.7979
   62SAPC  H10R 4907   7.440   2.516   5.121 -0.8605 -1.7767  0.0974
   62SAPC  H10S 4908   7.407   2.588   4.956  0.0428  1.3308  0.8206
   62SAPC  C211 4909   7.410   2.365   4.970  0.1383 -0.3164 -0.0045
   62SAPC  H11R 4910   7.383   2.285   5.041  0.2044 -0.6685 -0.3685
   62SAPC  C212 4911   7.437   2.333   4.846  0.2128  0.4342  0.1849
   62SAPC  H12R 4912   7.434   2.226   4.818  1.0205  0.0830  1.3699
   62SAPC  C213 4913   7.465   2.440   4.736 -0.3554  1.0151 -0.6406
   62SAPC  H13R 4914   7.545   2.504   4.776 -1.5442  1.6370  0.8472
   62SAPC  H13S 4915   7.370   2.498   4.734 -0.4513  0.8678 -0.4620
   62SAPC  C214 4916   7.506   2.381   4.609  0.2116 -0.3942  0.9314
   62SAPC  H14R 4917   7.491   2.273   4.596  0.8215 -0.3254 -0.5633
   62SAPC  C215 4918   7.537   2.443   4.498 -1.2581 -0.2179 -0.0917
   62SAPC  H15R 4919   7.563   2.383   4.409 -0.4098 -0.0972  0.0670
   62SAPC  C216 4920   7.547   2.593   4.479  0.0347 -0.1930 -0.1959
   62SAPC  H16R 4921   7.649   2.622   4.444  0.7813  1.3395  2.9029
   62SAPC  H16S 4922   7.545   2.654   4.571  0.8820  1.4576 -1.2088
   62SAPC  C217 4923   7.432   2.629   4.387 -0.2773  0.0173  0.2238
   62SAPC  H17R 4924   7.445   2.573   4.292 -0.6459 -1.9733  1.3055
   62SAPC  H17S 4925   7.447   2.735   4.357 -0.5131  0.2092  0.7701
   62SAPC  C218 4926   7.299   2.634   4.457 -0.6676  0.1752  0.3960
   62SAPC  H18R 4927   7.279   2.537   4.508 -0.8230  0.9787  1.9153
   62SAPC  H18S 4928   7.217   2.657   4.385  0.4777  0.9349 -0.7180
   62SAPC  C219 4929   7.289   2.753   4.555 -0.3651 -0.2396 -0.3450
   62SAPC  H19R 4930   7.336   2.840   4.505 -1.3466 -0.1852 -1.2097
   62SAPC  H19S 4931   7.352   2.725   4.642  0.2667  2.5781  0.2002
   62SAPC  C220 4932   7.152   2.786   4.617  0.2433 -0.5213  0.1166
   62SAPC  H20R 4933   7.105   2.709   4.682 -0.2895  0.7301  1.2705
   62SAPC  H20S 4934   7.069   2.802   4.544 -0.8264 -1.5097  1.0770
   62SAPC  H20T 4935   7.169   2.871   4.687 -1.4953 -1.0899  1.2933
   62SAPC   C33 4936   7.627   2.689   5.495 -0.6518  1.2643 -0.1702
   62SAPC   H3X 4937   7.710   2.757   5.521 -1.4243  1.9595  0.5505
   62SAPC   H3Y 4938   7.540   2.733   5.442 -0.3594  0.4736 -1.3570
   62SAPC   C34 4939   7.658   2.565   5.404 -0.0910  0.3829  0.6756
   62SAPC   H4X 4940   7.569   2.502   5.384 -1.2807  2.7414 -2.1138
   62SAPC   H4Y 4941   7.734   2.500   5.454  0.8731  1.2439  0.3615
   62SAPC   C35 4942   7.705   2.612   5.262 -0.3029 -0.1367  0.4492
   62SAPC   H5X 4943   7.795   2.675   5.282  1.6125 -2.2925 -0.8697
   62SAPC   H5Y 4944   7.628   2.681   5.221  0.1376  0.3885  0.4775
   62SAPC   C36 4945   7.748   2.502   5.167  0.4554  0.2410 -0.0269
   62SAPC   H6X 4946   7.665   2.429   5.170 -0.2395  1.0487  1.1937
   62SAPC   H6Y 4947   7.834   2.442   5.203 -0.8156 -1.2854  0.5146
   62SAPC   C37 4948   7.758   2.560   5.025  0.1174 -0.1097 -0.2278
   62SAPC   H7X 4949   7.821   2.651   5.033 -0.9610  0.8001 -1.5851
   62SAPC   H7Y 4950   7.655   2.592   4.996 -0.3009 -1.3742 -0.2004
   62SAPC   C38 4951   7.812   2.467   4.914  0.5390  0.1001  0.6043
   62SAPC   H8X 4952   7.736   2.391   4.886 -1.0299  0.4199  3.5905
   62SAPC   H8Y 4953   7.899   2.409   4.953  0.5906 -0.2791 -0.0675
   62SAPC   C39 4954   7.845   2.534   4.782 -0.6067 -0.3733  0.6644
   62SAPC   H9X 4955   7.895   2.628   4.813 -0.3427  0.0153 -0.8397
   62SAPC   H9Y 4956   7.756   2.556   4.719  0.5540  1.2224 -0.5070
   62SAPC  C310 4957   7.938   2.452   4.696  0.2715  0.2683 -0.1440
   62SAPC  H10X 4958   7.892   2.355   4.666  1.1081 -0.5733  1.1426
   62SAPC  H10Y 4959   8.023   2.417   4.758 -0.4652 -1.6725 -0.1348
   62SAPC  C311 4960   7.990   2.527   4.577 -0.5502  0.6638  0.0340
   62SAPC  H11X 4961   8.088   2.571   4.607 -0.5539 -0.2638  1.5377
   62SAPC  H11Y 4962   7.934   2.616   4.545  1.3073  2.3096  1.1280
   62SAPC  C312 4963   8.025   2.432   4.461 -0.0561  0.2633  0.3797
   62SAPC  H12X 4964   7.936   2.370   4.440  0.6403 -0.9443  0.8590
   62SAPC  H12Y 4965   8.099   2.364   4.510  1.7029  0.4547 -1.8647
   62SAPC  C313 4966   8.079   2.501   4.337 -0.2115 -0.4213  0.6635
   62SAPC  H13X 4967   8.086   2.425   4.256  0.9147  1.7558 -1.3804
   62SAPC  H13Y 4968   8.184   2.535   4.348 -0.9841  2.6976 -0.6198
   62SAPC  C314 4969   7.996   2.628   4.284 -0.4449 -0.2112  0.6684
   62SAPC  H14X 4970   7.987   2.710   4.357  0.3343  1.4262 -0.9801
   62SAPC  H14Y 4971   7.893   2.594   4.258 -0.3115 -0.1966  0.1107
   62SAPC  C315 4972   8.051   2.678   4.141 -0.0967 -0.2075  0.5380
   62SAPC  H15X 4973   8.014   2.612   4.060  2.2290  0.9054 -1.5764
   62SAPC  H15Y 4974   8.161   2.662   4.140 -0.0219  0.2963 -0.2699
   62SAPC  C316 4975   8.021   2.824   4.098  0.0514  0.1993 -0.0593
   62SAPC  H16X 4976   8.098   2.867   4.030  1.8809  0.5747  2.1227
   62SAPC  H16Y 4977   8.030   2.881   4.194  0.7746 -0.5124  0.3031
   62SAPC  C317 4978   7.882   2.839   4.036 -0.4838 -0.0803 -0.4297
   62SAPC  H17X 4979   7.810   2.829   4.120  0.8658  2.2964  1.1153
   62SAPC  H17Y 4980   7.854   2.762   3.960  0.0579 -0.0543 -0.6653
   62SAPC  C318 4981   7.859   2.979   3.978  1.2036  0.2850 -0.4286
   62SAPC  H18X 4982   7.875   3.054   4.058 -0.5217  1.5226 -1.1898
   62SAPC  H18Y 4983   7.755   2.997   3.945  0.4261 -0.4496  1.4356
   62SAPC  H18Z 4984   7.931   2.999   3.896  2.5137 -0.0844  0.5897
   63SAPC     N 4985   1.522   0.055   6.177 -0.0694 -0.3460 -0.5276
   63SAPC   C12 4986   1.501  -0.093   6.160 -0.3619  0.3926  0.1886
   63SAPC  H12A 4987   1.511  -0.106   6.053 -0.1456  0.0164  0.2509
   63SAPC  H12B 4988   1.401  -0.111   6.196  0.7618  0.7299  3.8437
   63SAPC   C13 4989   1.517   0.098   6.320 -0.2941  0.0833 -0.4589
   63SAPC  H13A 4990   1.592   0.048   6.379 -1.3927  0.9442  1.7898
   63SAPC  H13B 4991   1.523   0.205   6.338 -0.9049 -0.1636  1.4582
   63SAPC  H13C 4992   1.417   0.078   6.356 -0.2935  2.8897  1.4132
   63SAPC   C14 4993   1.652   0.106   6.121 -0.1442 -0.8348 -0.1709
   63SAPC  H14A 4994   1.670   0.059   6.025 -1.9753 -1.6735 -0.1583
   63SAPC  H14B 4995   1.657   0.212   6.101 -0.1874 -0.9793 -1.0200
   63SAPC  H14C 4996   1.730   0.065   6.183  0.2601 -0.2136 -0.2608
   63SAPC   C15 4997   1.406   0.133   6.112 -1.1674 -0.1071  0.0834
   63SAPC  H15A 4998   1.418   0.237   6.139 -0.8426 -0.1406  0.0700
   63SAPC  H15B 4999   1.420   0.121   6.005 -1.1689  0.7499 -0.0222
   63SAPC  H15C 5000   1.313   0.088   6.141 -0.3494 -0.8750  1.6153
   63SAPC   C11 5001   1.606  -0.181   6.244 -0.5003  0.3378 -0.7922
   63SAPC  H11A 5002   1.579  -0.289   6.244  0.3512  0.0217  2.0169
   63SAPC  H11B 5003   1.609  -0.148   6.350  0.9489  1.2626 -1.0845
   63SAPC     P 5004   1.789  -0.226   6.067 -0.4837 -0.0702  0.0312
   63SAPC   O13 5005   1.705  -0.177   5.951  0.1256 -0.0738  0.4319
   63SAPC   O14 5006   1.936  -0.200   6.067 -0.5725  0.6434 -0.3071
   63SAPC   O12 5007   1.740  -0.153   6.198  0.0661  0.3110  0.0811
   63SAPC   O11 5008   1.758  -0.379   6.105 -0.0926  0.0491 -0.1808
   63SAPC    C1 5009   1.863  -0.475   6.141  0.5361  0.6916  1.1486
   63SAPC    HA 5010   1.950  -0.414   6.175  1.4915  0.9015 -1.4243
   63SAPC    HB 5011   1.835  -0.547   6.221 -1.1479 -1.8107 -1.4724
   63SAPC    C2 5012   1.922  -0.567   6.020  0.3015 -0.2662 -0.2736
   63SAPC    HS 5013   2.006  -0.629   6.061 -1.7344 -2.8167  0.3506
   63SAPC   O21 5014   1.965  -0.475   5.916  0.0855 -0.1396  0.1879
   63SAPC   C21 5015   2.089  -0.432   5.927 -0.3920  0.3807  0.1730
   63SAPC   O22 5016   2.167  -0.450   6.019  0.2830  0.8223  0.2680
   63SAPC   C22 5017   2.131  -0.384   5.793 -0.6994  0.4511  0.4570
   63SAPC   H2R 5018   2.042  -0.341   5.741 -2.2918 -1.7770  1.1708
   63SAPC   H2S 5019   2.215  -0.314   5.808 -0.0587 -0.0766 -0.5028
   63SAPC    C3 5020   1.809  -0.655   5.969  0.6223 -0.1082  1.0475
   63SAPC    HX 5021   1.724  -0.590   5.943 -1.5654 -3.3833 -0.7520
   63SAPC    HY 5022   1.772  -0.728   6.044  0.1176  1.3604  2.2621
   63SAPC   O31 5023   1.860  -0.729   5.864 -0.0027 -0.2592  0.3516
   63SAPC   C31 5024   1.776  -0.733   5.761  0.0748  0.2296 -0.5013
   63SAPC   O32 5025   1.658  -0.701   5.765  0.2514 -0.1233 -0.3208
   63SAPC   C32 5026   1.844  -0.782   5.641 -1.0922 -0.0732 -0.4901
   63SAPC   H2X 5027   1.826  -0.891   5.634 -0.9664 -0.1216 -0.0971
   63SAPC   H2Y 5028   1.954  -0.765   5.647 -1.1525  0.7901 -1.4485
   63SAPC   C23 5029   2.207  -0.499   5.716  0.0043  0.0956  0.1296
   63SAPC   H3R 5030   2.166  -0.598   5.743  1.7749 -0.7751 -0.2242
   63SAPC   H3S 5031   2.312  -0.523   5.744 -0.1004 -1.2969 -0.6063
   63SAPC   C24 5032   2.179  -0.484   5.557  0.1957  0.9652  0.3844
   63SAPC   H4R 5033   2.069  -0.481   5.544  0.2918 -0.6607 -1.1442
   63SAPC   H4S 5034   2.211  -0.580   5.512 -0.2123  0.4577  1.1560
   63SAPC   C25 5035   2.243  -0.364   5.500  0.0188 -0.1580 -0.1191
   63SAPC   H5R 5036   2.257  -0.279   5.568 -1.7858  2.0877 -2.3239
   63SAPC   C26 5037   2.295  -0.346   5.378 -0.0225  0.0794 -0.1931
   63SAPC   H6R 5038   2.340  -0.247   5.360 -0.1697  0.2940  0.5711
   63SAPC   C27 5039   2.302  -0.436   5.257  0.1877 -0.1333  0.3530
   63SAPC   H7R 5040   2.266  -0.386   5.164  1.4735 -1.6868 -1.0671
   63SAPC   H7S 5041   2.226  -0.516   5.274  0.2645  0.0014  1.3633
   63SAPC   C28 5042   2.443  -0.506   5.250 -0.1204 -0.9806  0.4527
   63SAPC   H8R 5043   2.477  -0.554   5.343 -0.1795  1.2047  1.6666
   63SAPC   C29 5044   2.518  -0.524   5.138  0.4563  0.8259 -0.3778
   63SAPC   H9R 5045   2.613  -0.579   5.145 -0.9525 -2.0318 -1.6934
   63SAPC  C210 5046   2.484  -0.476   4.997 -0.0409 -0.1583 -1.0298
   63SAPC  H10R 5047   2.584  -0.480   4.949  0.8726 -2.7708  0.8192
   63SAPC  H10S 5048   2.442  -0.374   5.003 -0.2819 -0.3067  0.1858
   63SAPC  C211 5049   2.390  -0.563   4.920  0.0167 -0.2646  0.5796
   63SAPC  H11R 5050   2.336  -0.642   4.974  1.2749  0.3372  2.8626
   63SAPC  C212 5051   2.385  -0.572   4.783 -0.0517 -0.0228 -0.8560
   63SAPC  H12R 5052   2.313  -0.642   4.738 -2.6326  1.9551 -0.1049
   63SAPC  C213 5053   2.462  -0.486   4.694 -0.0006 -1.1707 -0.0506
   63SAPC  H13R 5054   2.482  -0.531   4.594  0.5474  0.1997 -0.5746
   63SAPC  H13S 5055   2.568  -0.468   4.723  0.7430 -0.8270 -2.7526
   63SAPC  C214 5056   2.392  -0.351   4.681 -0.2636  0.7680 -0.4948
   63SAPC  H14R 5057   2.386  -0.293   4.775 -0.6614 -2.4386  1.5976
   63SAPC  C215 5058   2.318  -0.306   4.579 -0.8217 -0.1396  0.5183
   63SAPC  H15R 5059   2.273  -0.205   4.571 -1.4854 -0.4474  0.2945
   63SAPC  C216 5060   2.296  -0.376   4.447 -0.0309  0.1366 -0.6256
   63SAPC  H16R 5061   2.187  -0.371   4.424 -0.3177  1.5986  0.8587
   63SAPC  H16S 5062   2.316  -0.485   4.454  0.4375  0.0695 -2.4908
   63SAPC  C217 5063   2.393  -0.329   4.338  0.2370  0.4647 -0.1218
   63SAPC  H17R 5064   2.495  -0.342   4.381 -0.2902 -3.2117  0.3879
   63SAPC  H17S 5065   2.388  -0.221   4.314 -1.4049  0.9694  2.0877
   63SAPC  C218 5066   2.404  -0.423   4.218 -0.4044  0.4972  0.0086
   63SAPC  H18R 5067   2.413  -0.527   4.256  1.3909  0.6349  0.0178
   63SAPC  H18S 5068   2.498  -0.402   4.163 -0.0249 -2.2665 -0.5239
   63SAPC  C219 5069   2.293  -0.413   4.112 -0.5074 -0.6780  0.2791
   63SAPC  H19R 5070   2.244  -0.313   4.114  0.1672 -0.3404  0.2552
   63SAPC  H19S 5071   2.206  -0.478   4.135  0.5450 -1.3162  2.7871
   63SAPC  C220 5072   2.347  -0.447   3.978  0.0426  0.4056 -0.3341
   63SAPC  H20R 5073   2.281  -0.410   3.896 -0.8826 -0.7620 -0.1352
   63SAPC  H20S 5074   2.350  -0.558   3.972 -0.7607  0.2394  1.6438
   63SAPC  H20T 5075   2.451  -0.410   3.964  0.1945  0.9974  1.9968
   63SAPC   C33 5076   1.801  -0.700   5.514  0.4314 -0.2655 -0.6214
   63SAPC   H3X 5077   1.824  -0.591   5.512  2.0165 -0.5901 -0.7853
   63SAPC   H3Y 5078   1.690  -0.697   5.519  0.4036  2.3408 -1.2124
   63SAPC   C34 5079   1.827  -0.768   5.385  0.5173  0.0164 -0.2142
   63SAPC   H4X 5080   1.764  -0.719   5.308  0.7564  2.0167  0.8115
   63SAPC   H4Y 5081   1.790  -0.873   5.384  0.3910  0.0483  0.5428
   63SAPC   C35 5082   1.977  -0.775   5.344  0.3546 -0.3915  0.3334
   63SAPC   H5X 5083   2.046  -0.810   5.423  0.9753  4.2315  2.1951
   63SAPC   H5Y 5084   2.008  -0.670   5.323 -1.4707 -0.0687 -0.9027
   63SAPC   C36 5085   1.980  -0.858   5.220  0.0153  0.0681  0.5621
   63SAPC   H6X 5086   1.884  -0.875   5.167  0.3131 -0.5757  0.2130
   63SAPC   H6Y 5087   2.002  -0.964   5.245  1.7681 -0.1072 -1.3653
   63SAPC   C37 5088   2.084  -0.824   5.113  0.6837  0.2825  0.2037
   63SAPC   H7X 5089   2.187  -0.840   5.151  0.4681 -1.6955  0.0486
   63SAPC   H7Y 5090   2.075  -0.718   5.081 -1.1040 -0.2740 -1.3529
   63SAPC   C38 5091   2.070  -0.922   4.997  0.6479  0.3942 -0.1946
   63SAPC   H8X 5092   1.971  -0.927   4.945  0.8730  0.8946 -0.6848
   63SAPC   H8Y 5093   2.098  -1.023   5.032 -0.7934 -1.0883 -2.9076
   63SAPC   C39 5094   2.173  -0.895   4.894  0.1775  0.2782  0.5856
   63SAPC   H9X 5095   2.273  -0.915   4.938  0.4472  0.3443  0.0179
   63SAPC   H9Y 5096   2.163  -0.788   4.867 -2.4710  0.1888  1.0363
   63SAPC  C310 5097   2.169  -0.993   4.779  0.3431 -0.5009  0.2549
   63SAPC  H10X 5098   2.077  -0.978   4.718 -0.6829 -0.7763  1.6767
   63SAPC  H10Y 5099   2.168  -1.103   4.799  1.8628 -0.7592 -0.8933
   63SAPC  C311 5100   2.298  -0.977   4.696 -0.0289 -0.3211  0.2629
   63SAPC  H11X 5101   2.383  -1.024   4.750 -0.8649 -0.5343  1.4322
   63SAPC  H11Y 5102   2.317  -0.867   4.691 -0.4156 -0.2164  0.9745
   63SAPC  C312 5103   2.287  -1.039   4.555  0.1332  0.4967 -0.1443
   63SAPC  H12X 5104   2.202  -0.990   4.504 -3.0986 -2.4578  1.9668
   63SAPC  H12Y 5105   2.270  -1.148   4.565  1.6163  0.1324 -1.2414
   63SAPC  C313 5106   2.416  -1.034   4.478  0.2148  0.1219  0.4311
   63SAPC  H13X 5107   2.394  -1.057   4.372 -2.7351  0.9207  0.7744
   63SAPC  H13Y 5108   2.491  -1.103   4.524  0.4814  0.9175  1.2199
   63SAPC  C314 5109   2.476  -0.891   4.456 -0.2581  0.2198 -0.0416
   63SAPC  H14X 5110   2.500  -0.851   4.557 -1.4988  1.1288 -0.0948
   63SAPC  H14Y 5111   2.395  -0.826   4.418 -2.9737 -1.6319  2.1728
   63SAPC  C315 5112   2.604  -0.892   4.381 -0.0290 -0.0764  0.6335
   63SAPC  H15X 5113   2.677  -0.958   4.433 -0.2617  0.5478  1.7847
   63SAPC  H15Y 5114   2.630  -0.784   4.384 -0.3625  0.0227  0.0502
   63SAPC  C316 5115   2.603  -0.923   4.228  0.2705  0.7395 -0.2448
   63SAPC  H16X 5116   2.573  -1.029   4.209  0.7251  0.6875 -0.6960
   63SAPC  H16Y 5117   2.710  -0.932   4.199  0.1604 -1.8291 -0.1489
   63SAPC  C317 5118   2.527  -0.837   4.137 -0.0120 -0.9160  0.1112
   63SAPC  H17X 5119   2.555  -0.732   4.158 -1.2435 -0.3863 -0.8213
   63SAPC  H17Y 5120   2.417  -0.846   4.142 -0.5353  1.8592 -3.2269
   63SAPC  C318 5121   2.550  -0.862   3.983  0.2159 -0.4107 -0.2351
   63SAPC  H18X 5122   2.489  -0.787   3.926  0.3617  1.5053  1.9777
   63SAPC  H18Y 5123   2.521  -0.960   3.940  1.1019 -0.0541 -1.7336
   63SAPC  H18Z 5124   2.655  -0.833   3.961  0.6857 -2.0620 -0.2600
   64SAPC     N 5125   2.498   0.428   6.030  0.4090  0.1388 -0.2612
   64SAPC   C12 5126   2.452   0.540   6.131 -0.2165  0.5675  0.0042
   64SAPC  H12A 5127   2.355   0.569   6.093  0.5855 -1.0880 -3.7800
   64SAPC  H12B 5128   2.532   0.612   6.122 -0.6910  0.8893 -2.0429
   64SAPC   C13 5129   2.641   0.377   6.051 -0.2545  0.0140 -0.2090
   64SAPC  H13A 5130   2.708   0.461   6.039  0.4350 -0.0581  2.3817
   64SAPC  H13B 5131   2.657   0.327   6.145 -0.9308 -0.4810 -0.3495
   64SAPC  H13C 5132   2.654   0.309   5.969  2.3383  0.2366 -0.0616
   64SAPC   C14 5133   2.407   0.310   6.034  0.0358  0.3040 -0.3888
   64SAPC  H14A 5134   2.305   0.331   6.007 -0.3478 -1.9156 -0.9040
   64SAPC  H14B 5135   2.439   0.232   5.966  0.2102 -0.0861  0.1346
   64SAPC  H14C 5136   2.420   0.271   6.134  1.5747  1.5743 -0.0527
   64SAPC   C15 5137   2.495   0.488   5.894  0.0399 -0.1665  0.7770
   64SAPC  H15A 5138   2.403   0.536   5.865 -0.1557 -0.0716  1.5406
   64SAPC  H15B 5139   2.572   0.563   5.881  0.0375 -0.3926 -0.7527
   64SAPC  H15C 5140   2.520   0.404   5.831 -1.6053 -0.7502  0.8564
   64SAPC   C11 5141   2.448   0.499   6.281  0.2778 -0.9988  0.1333
   64SAPC  H11A 5142   2.428   0.596   6.331  1.2841  1.0709 -3.1053
   64SAPC  H11B 5143   2.550   0.461   6.305  0.4279 -0.4557  0.3670
   64SAPC     P 5144   2.198   0.422   6.312  0.3523 -0.1471 -0.0661
   64SAPC   O13 5145   2.122   0.297   6.315  0.5798  0.2667  0.1618
   64SAPC   O14 5146   2.176   0.523   6.418 -0.3071 -0.2128  0.0926
   64SAPC   O12 5147   2.358   0.395   6.313  0.5286 -0.4185 -0.4682
   64SAPC   O11 5148   2.174   0.496   6.170 -0.3619 -0.3077  0.2029
   64SAPC    C1 5149   2.098   0.617   6.165  0.2780  0.5326  0.2095
   64SAPC    HA 5150   2.103   0.679   6.257 -0.4796 -0.4465  0.9254
   64SAPC    HB 5151   2.139   0.687   6.088 -0.0026  1.5004  0.9227
   64SAPC    C2 5152   1.945   0.589   6.138  0.6689  0.1432 -0.2139
   64SAPC    HS 5153   1.896   0.538   6.223  0.3180  2.0404  0.7730
   64SAPC   O21 5154   1.929   0.496   6.024 -0.2465 -0.0555 -0.3975
   64SAPC   C21 5155   1.807   0.441   6.004 -0.2015  0.3579  0.2713
   64SAPC   O22 5156   1.719   0.429   6.087 -0.4676  0.0644  0.2207
   64SAPC   C22 5157   1.788   0.412   5.851  0.0873 -0.4058 -0.1268
   64SAPC   H2R 5158   1.798   0.507   5.795 -0.5893 -1.7580 -2.7109
   64SAPC   H2S 5159   1.863   0.333   5.828 -0.6689 -0.9733 -0.6959
   64SAPC    C3 5160   1.858   0.715   6.117 -0.2311 -0.3139 -0.3139
   64SAPC    HX 5161   1.890   0.802   6.179  0.4105  0.4219 -1.6298
   64SAPC    HY 5162   1.751   0.692   6.136 -0.9315  1.3255 -2.0359
   64SAPC   O31 5163   1.862   0.755   5.976 -0.1779 -0.0190 -0.1055
   64SAPC   C31 5164   1.768   0.841   5.941 -0.0857 -0.3508 -0.0215
   64SAPC   O32 5165   1.679   0.889   6.010  0.0799 -0.1118 -0.0067
   64SAPC   C32 5166   1.795   0.871   5.792  0.4493 -0.0254  0.1756
   64SAPC   H2X 5167   1.845   0.782   5.747  2.0496  1.3676 -0.9111
   64SAPC   H2Y 5168   1.871   0.951   5.784 -0.3445  0.7564  0.2879
   64SAPC   C23 5169   1.642   0.363   5.821 -0.0078 -0.2689  0.2599
   64SAPC   H3R 5170   1.611   0.268   5.870 -0.5543 -0.8882 -1.2276
   64SAPC   H3S 5171   1.650   0.339   5.713  1.4519  4.8058 -1.0117
   64SAPC   C24 5172   1.534   0.478   5.841 -0.1522 -0.2403  0.6990
   64SAPC   H4R 5173   1.567   0.579   5.810 -1.1739 -0.3953 -1.0130
   64SAPC   H4S 5174   1.510   0.478   5.949  1.3218 -3.7173  1.1534
   64SAPC   C25 5175   1.403   0.437   5.776 -0.0837 -0.3506 -0.0396
   64SAPC   H5R 5176   1.348   0.369   5.843 -0.9061  0.3214 -0.0180
   64SAPC   C26 5177   1.353   0.482   5.661 -0.1251 -0.3132 -0.3516
   64SAPC   H6R 5178   1.261   0.432   5.626 -0.3514  0.8847 -1.5521
   64SAPC   C27 5179   1.415   0.582   5.569  0.4623 -0.7062 -0.5076
   64SAPC   H7R 5180   1.521   0.552   5.554  0.9794  0.9711 -0.5054
   64SAPC   H7S 5181   1.431   0.681   5.618  0.4793 -1.8852  2.0446
   64SAPC   C28 5182   1.351   0.597   5.439 -0.3255 -0.4349 -0.2215
   64SAPC   H8R 5183   1.249   0.636   5.452  0.4919  1.2051  2.1133
   64SAPC   C29 5184   1.414   0.570   5.324  0.4569 -0.7062  0.3264
   64SAPC   H9R 5185   1.371   0.576   5.223  1.1636 -0.4288  0.0359
   64SAPC  C210 5186   1.554   0.523   5.315 -0.2028 -0.2398 -0.3771
   64SAPC  H10R 5187   1.561   0.420   5.355 -0.7915 -0.4674 -0.8431
   64SAPC  H10S 5188   1.624   0.586   5.374  0.3424  0.9729 -2.2048
   64SAPC  C211 5189   1.597   0.542   5.166  0.4630 -0.4783  0.1135
   64SAPC  H11R 5190   1.630   0.640   5.130 -0.9556  0.7057  1.8131
   64SAPC  C212 5191   1.592   0.441   5.075  0.1865  0.2122 -0.2737
   64SAPC  H12R 5192   1.640   0.461   4.978 -0.7301 -3.4750 -1.6733
   64SAPC  C213 5193   1.532   0.301   5.086 -0.5205  0.0860  0.1609
   64SAPC  H13R 5194   1.432   0.284   5.041 -0.5647 -1.4972  0.7914
   64SAPC  H13S 5195   1.504   0.275   5.190  0.9997 -1.7012  0.1879
   64SAPC  C214 5196   1.633   0.197   5.047  0.4020 -0.3043  0.0903
   64SAPC  H14R 5197   1.732   0.201   5.095 -0.4020  0.8402  1.7331
   64SAPC  C215 5198   1.605   0.106   4.954 -0.1937 -0.6503 -0.0995
   64SAPC  H15R 5199   1.686   0.035   4.929  0.2353  0.5536 -2.3180
   64SAPC  C216 5200   1.480   0.101   4.871  0.1958  0.0572 -0.2575
   64SAPC  H16R 5201   1.451   0.196   4.821  0.6153 -0.3776 -1.3562
   64SAPC  H16S 5202   1.401   0.073   4.944 -1.2058  0.6464 -1.4911
   64SAPC  C217 5203   1.476  -0.005   4.766 -0.0439 -0.1826  0.0727
   64SAPC  H17R 5204   1.379   0.005   4.712  0.0682 -0.4526 -0.1813
   64SAPC  H17S 5205   1.481  -0.109   4.805 -2.0151 -0.7158 -0.9394
   64SAPC  C218 5206   1.582   0.013   4.660 -0.2211 -0.1519  0.5635
   64SAPC  H18R 5207   1.681  -0.025   4.692  0.9941  2.1235 -0.2543
   64SAPC  H18S 5208   1.594   0.122   4.645 -0.7415  0.2065  2.4223
   64SAPC  C219 5209   1.533  -0.046   4.528  0.1437 -0.0853 -0.0775
   64SAPC  H19R 5210   1.446   0.000   4.478 -0.8451 -2.8781 -1.1266
   64SAPC  H19S 5211   1.510  -0.155   4.528  1.4906 -0.3865 -0.2160
   64SAPC  C220 5212   1.640  -0.028   4.414  0.0120 -0.2961 -0.5877
   64SAPC  H20R 5213   1.653   0.078   4.382  1.8046 -0.2885  0.0309
   64SAPC  H20S 5214   1.616  -0.082   4.320 -2.0279  0.2239 -0.4052
   64SAPC  H20T 5215   1.741  -0.056   4.451 -0.5933  1.4023  2.6688
   64SAPC   C33 5216   1.674   0.914   5.703 -0.1269 -0.7006  0.0706
   64SAPC   H3X 5217   1.651   1.019   5.732  3.1843  0.3298 -0.6029
   64SAPC   H3Y 5218   1.580   0.859   5.726  0.0331 -0.2247  2.0525
   64SAPC   C34 5219   1.683   0.905   5.550 -0.3033  0.3243 -0.5514
   64SAPC   H4X 5220   1.699   0.796   5.539  0.6579 -0.0442  3.1976
   64SAPC   H4Y 5221   1.769   0.966   5.515 -0.4489  0.2214 -1.0850
   64SAPC   C35 5222   1.565   0.950   5.464 -0.1415  0.0826  0.1871
   64SAPC   H5X 5223   1.533   1.049   5.504 -2.4167 -0.5292  0.0379
   64SAPC   H5Y 5224   1.484   0.874   5.467  0.4157 -0.6511 -1.6749
   64SAPC   C36 5225   1.614   0.963   5.323  0.0024  0.1324  0.5056
   64SAPC   H6X 5226   1.665   0.869   5.294  0.9544  1.0431 -0.9415
   64SAPC   H6Y 5227   1.689   1.045   5.326  1.9295 -1.5546  0.6010
   64SAPC   C37 5228   1.488   0.980   5.229  0.2860  0.5051  0.4236
   64SAPC   H7X 5229   1.469   1.088   5.211 -3.1593  0.0807  0.8324
   64SAPC   H7Y 5230   1.396   0.928   5.263  0.1288  1.6876  1.9375
   64SAPC   C38 5231   1.523   0.922   5.090  0.2427 -0.6851 -0.6020
   64SAPC   H8X 5232   1.528   0.811   5.097 -4.6759 -1.1784 -1.5245
   64SAPC   H8Y 5233   1.618   0.969   5.054  1.0730  0.7983  3.0922
   64SAPC   C39 5234   1.415   0.922   4.981 -0.1002  0.2124  0.2644
   64SAPC   H9X 5235   1.372   1.021   4.956 -0.3938 -0.1483 -0.7084
   64SAPC   H9Y 5236   1.334   0.862   5.028  0.6090 -1.8135 -0.9577
   64SAPC  C310 5237   1.473   0.847   4.858 -0.8316 -0.4276  0.0179
   64SAPC  H10X 5238   1.382   0.823   4.800 -1.4242  2.1140 -0.2321
   64SAPC  H10Y 5239   1.514   0.750   4.894 -0.8087 -1.1270 -1.7980
   64SAPC  C311 5240   1.564   0.936   4.774  0.7104  0.5625 -0.7842
   64SAPC  H11X 5241   1.646   0.880   4.726  0.1425 -0.9264 -0.0640
   64SAPC  H11Y 5242   1.611   1.011   4.841  0.6171  1.2102 -1.4276
   64SAPC  C312 5243   1.480   1.002   4.664  0.2150  0.0406 -0.1011
   64SAPC  H12X 5244   1.420   1.084   4.708 -2.6093 -1.7110 -0.4266
   64SAPC  H12Y 5245   1.405   0.931   4.622 -0.0134  0.5987 -0.6556
   64SAPC  C313 5246   1.573   1.051   4.554 -0.6706 -0.0399 -0.3077
   64SAPC  H13X 5247   1.622   0.961   4.511  1.2814  1.8547 -2.3184
   64SAPC  H13Y 5248   1.648   1.118   4.600 -2.9419  2.2509  0.3408
   64SAPC  C314 5249   1.504   1.132   4.448  0.9720  0.2244  0.3268
   64SAPC  H14X 5250   1.452   1.065   4.377  1.3171 -0.1183  0.3909
   64SAPC  H14Y 5251   1.581   1.186   4.389 -0.1040 -0.1778 -1.5279
   64SAPC  C315 5252   1.400   1.243   4.499  0.2609  0.9345  0.9389
   64SAPC  H15X 5253   1.452   1.298   4.580  1.3272  0.4044  0.6228
   64SAPC  H15Y 5254   1.314   1.188   4.544  0.9510 -0.4720  0.5916
   64SAPC  C316 5255   1.346   1.332   4.390  0.0888  0.3039 -0.0222
   64SAPC  H16X 5256   1.284   1.267   4.325 -0.8614 -0.1388  1.2901
   64SAPC  H16Y 5257   1.427   1.371   4.325 -0.3523 -0.8806 -1.3252
   64SAPC  C317 5258   1.277   1.451   4.446  0.8917  0.1792 -0.1947
   64SAPC  H17X 5259   1.349   1.522   4.492 -1.6866  1.4574  2.1245
   64SAPC  H17Y 5260   1.213   1.411   4.528 -0.1944 -0.0880 -1.1498
   64SAPC  C318 5261   1.187   1.530   4.352  0.0276  0.8932 -0.1892
   64SAPC  H18X 5262   1.148   1.621   4.401  0.8468  0.7702  0.7303
   64SAPC  H18Y 5263   1.103   1.471   4.308  0.4643 -1.3140  1.7305
   64SAPC  H18Z 5264   1.252   1.556   4.266  1.8284 -0.9332  0.5352
   65SAPC     N 5265   2.257   1.893   1.869  0.1381 -0.4280 -0.0326
   65SAPC   C12 5266   2.129   1.824   1.896  1.1631  0.2828  0.3605
   65SAPC  H12A 5267   2.154   1.733   1.949  0.4091  0.5012  1.1137
   65SAPC  H12B 5268   2.089   1.799   1.799  1.7368  1.5357 -0.2259
   65SAPC   C13 5269   2.344   1.814   1.773  0.2407  0.0750  0.2309
   65SAPC  H13A 5270   2.445   1.847   1.759  0.3176 -0.7029 -1.2408
   65SAPC  H13B 5271   2.357   1.715   1.814  1.9160 -0.0433 -0.5331
   65SAPC  H13C 5272   2.292   1.796   1.680 -0.0917 -5.5524  1.1467
   65SAPC   C14 5273   2.238   2.030   1.805 -0.0729 -0.0848 -0.1861
   65SAPC  H14A 5274   2.329   2.084   1.784 -1.0233  1.5962 -0.2067
   65SAPC  H14B 5275   2.180   2.029   1.713 -0.3495 -1.0042 -0.0129
   65SAPC  H14C 5276   2.182   2.087   1.878  1.0614 -0.3822  0.9428
   65SAPC   C15 5277   2.331   1.916   1.994 -0.1164  0.2941  0.3792
   65SAPC  H15A 5278   2.339   1.830   2.059 -0.1779 -0.4916 -0.6408
   65SAPC  H15B 5279   2.431   1.947   1.964 -0.5440  1.7798  0.4018
   65SAPC  H15C 5280   2.282   1.997   2.045 -1.2906 -0.4871  0.5088
   65SAPC   C11 5281   2.022   1.910   1.978 -0.1411  0.3405 -0.5090
   65SAPC  H11A 5282   1.921   1.872   1.953  0.3226 -0.2922 -1.4842
   65SAPC  H11B 5283   2.019   2.015   1.942 -0.4682  0.1614 -1.0096
   65SAPC     P 5284   2.029   1.768   2.190  0.1228 -0.0154 -0.1140
   65SAPC   O13 5285   1.883   1.725   2.189  0.0206  0.2391  0.2824
   65SAPC   O14 5286   2.124   1.666   2.142 -0.4633 -0.4849 -0.2034
   65SAPC   O12 5287   2.059   1.911   2.119  0.0828  0.5382  0.2885
   65SAPC   O11 5288   2.064   1.805   2.343  0.4315 -0.5435 -0.0396
   65SAPC    C1 5289   1.972   1.902   2.405  0.4555  0.0991  0.3582
   65SAPC    HA 5290   1.917   1.976   2.342 -1.3663  1.5667  3.4379
   65SAPC    HB 5291   1.891   1.848   2.458 -0.7268  0.0845 -1.3736
   65SAPC    C2 5292   2.039   2.000   2.510 -0.8509 -0.2294  0.4625
   65SAPC    HS 5293   2.132   2.033   2.459 -1.1776 -0.0209 -0.0025
   65SAPC   O21 5294   2.075   1.932   2.633  0.4522 -0.6116 -0.2279
   65SAPC   C21 5295   2.166   2.000   2.703 -0.5915  0.3976  0.2598
   65SAPC   O22 5296   2.231   2.095   2.671 -0.6543  0.2142  0.5875
   65SAPC   C22 5297   2.201   1.919   2.835  0.5871  1.1357 -0.3102
   65SAPC   H2R 5298   2.115   1.860   2.873  1.7616  0.1141  0.8656
   65SAPC   H2S 5299   2.274   1.841   2.804 -0.5065  0.0383 -0.2110
   65SAPC    C3 5300   1.949   2.124   2.531  0.2410 -0.6391 -0.9588
   65SAPC    HX 5301   1.934   2.171   2.431 -0.7550 -1.1175 -1.0454
   65SAPC    HY 5302   2.003   2.207   2.581  0.7125 -0.9139 -1.0108
   65SAPC   O31 5303   1.824   2.096   2.600  0.1019  0.1502  0.4489
   65SAPC   C31 5304   1.736   2.195   2.605  0.6219  0.7722  0.5373
   65SAPC   O32 5305   1.754   2.308   2.568  0.1539 -0.3677 -0.1085
   65SAPC   C32 5306   1.607   2.143   2.661 -0.3001 -0.3142 -0.1832
   65SAPC   H2X 5307   1.610   2.033   2.677 -1.0350 -0.3705 -0.3976
   65SAPC   H2Y 5308   1.532   2.157   2.580 -0.7508 -0.2963  0.2318
   65SAPC   C23 5309   2.253   2.006   2.949  0.6545  0.5480 -0.0395
   65SAPC   H3R 5310   2.161   2.049   2.994 -1.4824 -2.0775 -1.5780
   65SAPC   H3S 5311   2.322   2.088   2.919 -1.3146  2.7337  1.1312
   65SAPC   C24 5312   2.299   1.930   3.071 -0.0361 -0.2716 -0.2122
   65SAPC   H4R 5313   2.305   2.008   3.151  2.8687  0.7334 -1.2788
   65SAPC   H4S 5314   2.401   1.890   3.053  0.3865  1.0059 -0.8120
   65SAPC   C25 5315   2.205   1.820   3.117 -0.3017  0.2394 -0.8424
   65SAPC   H5R 5316   2.111   1.857   3.161 -0.8103 -3.3008  1.4633
   65SAPC   C26 5317   2.215   1.689   3.095 -0.3718 -0.2033  0.4593
   65SAPC   H6R 5318   2.130   1.625   3.124 -1.8811  2.3266  1.9235
   65SAPC   C27 5319   2.320   1.613   3.016 -1.3095  0.8110 -0.6893
   65SAPC   H7R 5320   2.356   1.541   3.092 -2.5795  1.8541  0.9801
   65SAPC   H7S 5321   2.403   1.681   2.989 -0.6441  0.7125  0.9800
   65SAPC   C28 5322   2.273   1.552   2.884 -0.6677 -0.0505 -0.5700
   65SAPC   H8R 5323   2.228   1.623   2.814 -1.2259  0.6240  0.4458
   65SAPC   C29 5324   2.303   1.431   2.839 -0.3149  0.2608 -0.3200
   65SAPC   H9R 5325   2.265   1.405   2.739 -1.2609 -1.1757  0.3649
   65SAPC  C210 5326   2.393   1.344   2.923  0.0768 -0.0707  0.0065
   65SAPC  H10R 5327   2.355   1.326   3.026  1.6187  2.2051  1.0773
   65SAPC  H10S 5328   2.483   1.406   2.943 -1.1657  1.5562  0.7613
   65SAPC  C211 5329   2.431   1.213   2.848  0.3597 -0.0788 -0.7703
   65SAPC  H11R 5330   2.466   1.236   2.746  0.7854  0.7210 -0.4579
   65SAPC  C212 5331   2.401   1.089   2.904 -0.1464 -0.1322 -0.3235
   65SAPC  H12R 5332   2.411   1.001   2.839 -2.2722 -0.2892 -0.4860
   65SAPC  C213 5333   2.348   1.055   3.040 -0.0235 -0.1449  0.7318
   65SAPC  H13R 5334   2.312   0.950   3.047  1.3629 -0.5221  3.2225
   65SAPC  H13S 5335   2.260   1.115   3.072 -1.2993 -0.5428 -1.7792
   65SAPC  C214 5336   2.474   1.064   3.136 -0.1514 -0.5174  0.5630
   65SAPC  H14R 5337   2.564   1.007   3.110  2.8811  2.7482  2.9626
   65SAPC  C215 5338   2.472   1.122   3.256  0.4154 -0.0057 -0.0726
   65SAPC  H15R 5339   2.561   1.109   3.319 -1.2754 -0.7200  2.3175
   65SAPC  C216 5340   2.359   1.196   3.322  0.5039 -0.5617 -0.7120
   65SAPC  H16R 5341   2.268   1.134   3.331  0.0773  0.0974 -0.3923
   65SAPC  H16S 5342   2.327   1.284   3.262 -1.7275 -1.4767 -0.9587
   65SAPC  C217 5343   2.401   1.244   3.466 -0.1829 -0.0255  0.1634
   65SAPC  H17R 5344   2.508   1.276   3.468 -0.1809  0.0588 -0.8458
   65SAPC  H17S 5345   2.391   1.157   3.534  0.2438 -2.1189 -2.2881
   65SAPC  C218 5346   2.318   1.354   3.529 -0.7053 -0.2507  0.2937
   65SAPC  H18R 5347   2.375   1.375   3.622 -1.3682  1.6691  0.3156
   65SAPC  H18S 5348   2.216   1.317   3.553 -0.0856 -1.9316  0.5012
   65SAPC  C219 5349   2.320   1.484   3.449 -0.2659 -0.5549  0.4354
   65SAPC  H19R 5350   2.276   1.466   3.348  1.0099 -0.3574 -0.1762
   65SAPC  H19S 5351   2.426   1.516   3.435 -1.1312  1.4664 -2.3786
   65SAPC  C220 5352   2.235   1.599   3.510 -0.4509 -0.2774 -0.4389
   65SAPC  H20R 5353   2.139   1.558   3.549  0.6859 -0.9950  1.7887
   65SAPC  H20S 5354   2.214   1.665   3.423  1.2531 -1.3386 -1.7188
   65SAPC  H20T 5355   2.289   1.638   3.599  0.0239  0.3637 -0.9976
   65SAPC   C33 5356   1.562   2.230   2.785  0.1531 -0.3774  0.2229
   65SAPC   H3X 5357   1.608   2.331   2.780  0.2610 -0.4850 -1.2515
   65SAPC   H3Y 5358   1.609   2.189   2.877  2.8523  1.1421 -0.3721
   65SAPC   C34 5359   1.411   2.249   2.790  0.4544 -0.5119 -1.0861
   65SAPC   H4X 5360   1.351   2.158   2.809 -1.3553  0.1382 -3.2703
   65SAPC   H4Y 5361   1.375   2.296   2.696  3.5150  0.8584 -1.7138
   65SAPC   C35 5362   1.372   2.360   2.897 -0.3027  0.7252 -0.4759
   65SAPC   H5X 5363   1.261   2.360   2.906 -0.2372 -0.4066  0.5070
   65SAPC   H5Y 5364   1.398   2.461   2.857  1.0742  0.6503  0.2048
   65SAPC   C36 5365   1.441   2.363   3.036 -0.6575 -0.3514  0.3760
   65SAPC   H6X 5366   1.407   2.450   3.096 -0.0380 -0.7600  1.3452
   65SAPC   H6Y 5367   1.552   2.370   3.025 -0.8257  0.4141 -1.0968
   65SAPC   C37 5368   1.410   2.239   3.117 -0.1729 -0.1146 -0.1619
   65SAPC   H7X 5369   1.475   2.162   3.071  3.3320  2.4195  0.0514
   65SAPC   H7Y 5370   1.306   2.202   3.105  0.5307 -2.3237  0.1485
   65SAPC   C38 5371   1.463   2.248   3.261 -0.2722 -0.1928  0.3066
   65SAPC   H8X 5372   1.416   2.336   3.310 -1.3316  0.6892 -2.1494
   65SAPC   H8Y 5373   1.572   2.268   3.254 -0.6020  1.7400 -0.0665
   65SAPC   C39 5374   1.441   2.115   3.348 -0.2164 -0.5525  0.5578
   65SAPC   H9X 5375   1.334   2.084   3.349 -0.6297  0.5186  3.8266
   65SAPC   H9Y 5376   1.467   2.139   3.453  0.2007 -2.0156  0.8098
   65SAPC  C310 5377   1.538   2.001   3.304  0.3100  0.1129 -0.9962
   65SAPC  H10X 5378   1.641   2.039   3.322 -0.2091  0.0419  3.1121
   65SAPC  H10Y 5379   1.510   1.979   3.199 -0.1493  0.8681 -1.0369
   65SAPC  C311 5380   1.511   1.870   3.378  0.0034  1.1048 -0.2181
   65SAPC  H11X 5381   1.582   1.792   3.341 -0.5761 -0.5542  1.9293
   65SAPC  H11Y 5382   1.411   1.833   3.347 -0.4720  2.9367 -0.9732
   65SAPC  C312 5383   1.519   1.871   3.531 -0.2457  0.1233 -0.1615
   65SAPC  H12X 5384   1.421   1.906   3.571 -0.7522 -1.0649 -0.3305
   65SAPC  H12Y 5385   1.598   1.937   3.573 -0.2193  0.3296 -0.5295
   65SAPC  C313 5386   1.535   1.735   3.606  0.1472  0.7966 -0.1017
   65SAPC  H13X 5387   1.640   1.709   3.582 -0.8526 -1.7121 -2.2536
   65SAPC  H13Y 5388   1.469   1.658   3.560  1.7611  0.0439 -1.1999
   65SAPC  C314 5389   1.542   1.733   3.758 -0.5134  0.3049  0.1515
   65SAPC  H14X 5390   1.546   1.625   3.785 -3.2468 -0.1811 -0.9837
   65SAPC  H14Y 5391   1.449   1.782   3.796 -0.6500 -1.3746  2.1635
   65SAPC  C315 5392   1.665   1.808   3.813  0.0046 -0.4279 -0.4386
   65SAPC  H15X 5393   1.656   1.912   3.775 -4.4291  0.5162  2.4295
   65SAPC  H15Y 5394   1.756   1.762   3.767 -0.9319 -0.6637 -2.1135
   65SAPC  C316 5395   1.674   1.782   3.963  0.0078 -0.3884 -0.4030
   65SAPC  H16X 5396   1.705   1.677   3.979 -1.6340 -1.2391 -2.4358
   65SAPC  H16Y 5397   1.570   1.783   4.003 -0.1342 -0.1985 -0.7715
   65SAPC  C317 5398   1.756   1.884   4.039 -0.3826  0.0721 -0.0177
   65SAPC  H17X 5399   1.730   1.889   4.147 -0.5728 -1.9398  0.0659
   65SAPC  H17Y 5400   1.718   1.983   4.006 -4.4385 -0.6276  1.9856
   65SAPC  C318 5401   1.909   1.873   4.017 -0.1381  0.6553 -0.2211
   65SAPC  H18X 5402   1.947   1.785   4.073 -2.0707  0.4508  0.8518
   65SAPC  H18Y 5403   1.960   1.963   4.059 -0.5449  0.1947  1.3346
   65SAPC  H18Z 5404   1.934   1.865   3.909 -0.5500  0.6830 -0.3229
   66SAPC     N 5405   5.620   2.998   1.520 -0.3803 -0.6184 -0.1100
   66SAPC   C12 5406   5.678   3.036   1.654 -0.1789 -1.1785 -0.6731
   66SAPC  H12A 5407   5.690   3.143   1.666  0.0269 -1.3330  0.6410
   66SAPC  H12B 5408   5.772   2.984   1.659 -1.1158 -2.8021  1.0606
   66SAPC   C13 5409   5.704   3.039   1.400  0.3389 -0.2851  0.3545
   66SAPC  H13A 5410   5.796   2.983   1.403  0.9097  0.6516  0.9351
   66SAPC  H13B 5411   5.645   3.009   1.314  1.0865 -1.5805  0.2724
   66SAPC  H13C 5412   5.720   3.145   1.390 -0.1694 -0.2063  0.3066
   66SAPC   C14 5413   5.600   2.849   1.504  0.0385  0.3842 -0.3034
   66SAPC  H14A 5414   5.682   2.789   1.542 -1.3036 -0.7383  0.9683
   66SAPC  H14B 5415   5.515   2.817   1.563  0.1584 -3.0686 -1.7560
   66SAPC  H14C 5416   5.567   2.822   1.404 -1.4546  1.1797 -0.0518
   66SAPC   C15 5417   5.481   3.061   1.503  0.6676 -0.1240 -0.8831
   66SAPC  H15A 5418   5.429   3.050   1.597  1.7980  0.0603 -0.2244
   66SAPC  H15B 5419   5.480   3.165   1.474  0.8344 -0.8564 -3.8010
   66SAPC  H15C 5420   5.424   3.004   1.431 -2.1284  1.1003  0.2052
   66SAPC   C11 5421   5.596   2.998   1.784  1.3534 -0.3177 -0.1985
   66SAPC  H11A 5422   5.659   3.011   1.875  0.9780  0.6163 -0.0618
   66SAPC  H11B 5423   5.566   2.891   1.776  1.1186 -0.3905  1.4115
   66SAPC     P 5424   5.480   3.242   1.833  0.1113 -0.0451  0.2902
   66SAPC   O13 5425   5.534   3.319   1.711  0.2062  0.7659 -0.1138
   66SAPC   O14 5426   5.351   3.283   1.886 -0.1237 -0.1988  0.0089
   66SAPC   O12 5427   5.476   3.087   1.804 -0.2174 -0.3904  0.5191
   66SAPC   O11 5428   5.575   3.266   1.954 -0.6356 -0.5135  0.2409
   66SAPC    C1 5429   5.548   3.190   2.068 -0.2058 -0.4981  0.9251
   66SAPC    HA 5430   5.482   3.255   2.129 -0.2393  2.6568 -2.1623
   66SAPC    HB 5431   5.494   3.093   2.066  1.2112 -1.3135 -1.1030
   66SAPC    C2 5432   5.676   3.177   2.169  0.5551  0.3540  0.3138
   66SAPC    HS 5433   5.642   3.131   2.264 -2.8344  1.4075 -0.2580
   66SAPC   O21 5434   5.727   3.314   2.187 -0.1497 -0.7217  0.3021
   66SAPC   C21 5435   5.686   3.376   2.300 -0.0006 -0.4641  0.6914
   66SAPC   O22 5436   5.628   3.325   2.391  0.5528  0.0915  0.1650
   66SAPC   C22 5437   5.707   3.528   2.286  0.1260  0.5568  0.3757
   66SAPC   H2R 5438   5.792   3.540   2.216 -0.3258  1.7553  0.0105
   66SAPC   H2S 5439   5.616   3.556   2.229 -0.4767 -2.4514 -0.2876
   66SAPC    C3 5440   5.791   3.086   2.129  0.2507 -0.4546  0.8909
   66SAPC    HX 5441   5.871   3.143   2.078  1.0486 -1.5164  0.9216
   66SAPC    HY 5442   5.739   3.012   2.065  1.2235  1.9104 -2.9834
   66SAPC   O31 5443   5.846   3.027   2.240  0.0447  0.8495  0.2507
   66SAPC   C31 5444   5.798   2.912   2.286  0.0221 -0.2026 -0.1518
   66SAPC   O32 5445   5.722   2.836   2.223  0.3193 -0.0797  0.2061
   66SAPC   C32 5446   5.851   2.887   2.425  0.5693  0.6282  1.0759
   66SAPC   H2X 5447   5.953   2.852   2.399 -0.5463 -1.0582 -1.3487
   66SAPC   H2Y 5448   5.797   2.804   2.475 -0.3039  0.5704  0.0618
   66SAPC   C23 5449   5.726   3.604   2.412  0.4188 -0.0706 -0.7784
   66SAPC   H3R 5450   5.668   3.559   2.495 -0.1258  3.4696  0.9879
   66SAPC   H3S 5451   5.691   3.709   2.401  0.9908  0.1721 -0.3596
   66SAPC   C24 5452   5.873   3.615   2.452 -0.0486 -0.0203 -0.0842
   66SAPC   H4R 5453   5.882   3.683   2.541 -2.4584  0.2719 -0.0132
   66SAPC   H4S 5454   5.927   3.663   2.367  0.6468 -1.0388 -0.2396
   66SAPC   C25 5455   5.941   3.478   2.478  0.0504 -0.4255  0.2917
   66SAPC   H5R 5456   6.017   3.446   2.406  0.6865  1.8319 -0.1118
   66SAPC   C26 5457   5.930   3.400   2.590 -0.3120 -0.0432  0.0550
   66SAPC   H6R 5458   5.988   3.307   2.598  2.1762  1.4564  0.5847
   66SAPC   C27 5459   5.859   3.431   2.722 -0.2028 -0.1817 -0.0570
   66SAPC   H7R 5460   5.866   3.538   2.754 -0.1964 -0.8776  2.5117
   66SAPC   H7S 5461   5.925   3.392   2.802 -0.9341 -1.4358 -0.0466
   66SAPC   C28 5462   5.712   3.383   2.717  0.1732  0.1548 -0.7790
   66SAPC   H8R 5463   5.672   3.352   2.619 -1.4468  0.2065 -0.1634
   66SAPC   C29 5464   5.622   3.400   2.819 -0.4373 -0.0271  0.4529
   66SAPC   H9R 5465   5.518   3.380   2.789 -0.8398  1.6516  0.6232
   66SAPC  C210 5466   5.634   3.458   2.961 -0.1330  0.4086  0.1779
   66SAPC  H10R 5467   5.589   3.559   2.956  0.7602  0.8235  0.2050
   66SAPC  H10S 5468   5.742   3.470   2.986 -0.2916  1.0926  0.5488
   66SAPC  C211 5469   5.581   3.377   3.075  0.7656  0.0571 -0.9454
   66SAPC  H11R 5470   5.632   3.281   3.088 -2.7481 -2.1027 -1.9320
   66SAPC  C212 5471   5.501   3.419   3.178 -0.1509  0.2899  0.2430
   66SAPC  H12R 5472   5.481   3.341   3.253 -1.7700 -0.5799 -1.0397
   66SAPC  C213 5473   5.445   3.558   3.201  0.4823 -0.2900 -0.3199
   66SAPC  H13R 5474   5.387   3.595   3.114 -1.1727 -2.5271 -0.2694
   66SAPC  H13S 5475   5.529   3.626   3.223 -0.5261  0.4918  1.2972
   66SAPC  C214 5476   5.350   3.553   3.319 -0.0061 -0.2280  0.0973
   66SAPC  H14R 5477   5.246   3.532   3.292 -0.2133  1.8958 -0.9589
   66SAPC  C215 5478   5.379   3.571   3.449 -0.6883  0.9185 -1.0480
   66SAPC  H15R 5479   5.288   3.572   3.510 -0.7771 -0.6714 -1.1042
   66SAPC  C216 5480   5.510   3.604   3.507  0.6394 -1.1294 -0.6182
   66SAPC  H16R 5481   5.595   3.565   3.447 -0.2744 -1.3240 -1.8208
   66SAPC  H16S 5482   5.524   3.572   3.613  0.4080  0.4503 -0.0840
   66SAPC  C217 5483   5.523   3.759   3.527 -0.2083 -0.3545  0.7365
   66SAPC  H17R 5484   5.481   3.821   3.444  3.0072  1.1161  0.0626
   66SAPC  H17S 5485   5.631   3.780   3.540 -0.1280 -1.3537  1.7964
   66SAPC  C218 5486   5.458   3.809   3.661 -0.0484 -0.0037  0.0053
   66SAPC  H18R 5487   5.495   3.758   3.752 -1.3364 -1.5361 -0.2602
   66SAPC  H18S 5488   5.350   3.783   3.649 -0.5228  2.1314 -0.7271
   66SAPC  C219 5489   5.452   3.960   3.677  0.5173 -0.4799  0.0507
   66SAPC  H19R 5490   5.387   3.997   3.594  0.1258  0.6543  0.8412
   66SAPC  H19S 5491   5.557   3.994   3.666  0.7685 -1.5261 -1.0158
   66SAPC  C220 5492   5.370   3.999   3.812 -0.2137 -0.5118  0.3151
   66SAPC  H20R 5493   5.402   3.960   3.911 -0.2941  0.1932  0.6292
   66SAPC  H20S 5494   5.264   3.972   3.791 -0.0038 -1.1910  0.0987
   66SAPC  H20T 5495   5.377   4.109   3.825  3.3585 -0.2580 -2.0564
   66SAPC   C33 5496   5.849   3.010   2.520  0.2606  0.5445  0.1187
   66SAPC   H3X 5497   5.749   3.059   2.518 -0.5986 -1.1378  0.3625
   66SAPC   H3Y 5498   5.907   3.092   2.473  0.5974  0.8505  1.0441
   66SAPC   C34 5499   5.909   2.994   2.666  0.4531  0.0445  0.4755
   66SAPC   H4X 5500   5.841   2.918   2.710 -0.3350  0.1337 -0.5378
   66SAPC   H4Y 5501   5.906   3.085   2.729 -2.4297  0.2485  0.1908
   66SAPC   C35 5502   6.050   2.944   2.675 -0.1194  0.1099 -0.1265
   66SAPC   H5X 5503   6.123   3.026   2.660  2.5499 -2.1983 -0.4959
   66SAPC   H5Y 5504   6.054   2.870   2.593 -2.7220  0.2576 -0.4727
   66SAPC   C36 5505   6.070   2.879   2.815 -0.8347 -0.0232  0.3923
   66SAPC   H6X 5506   6.158   2.811   2.818  0.1516  1.2526  1.8868
   66SAPC   H6Y 5507   5.976   2.826   2.840 -2.2465  2.4943  0.7569
   66SAPC   C37 5508   6.108   3.003   2.904  0.4890  1.1412  0.0786
   66SAPC   H7X 5509   6.058   3.096   2.870 -1.1230  0.9772  1.8102
   66SAPC   H7Y 5510   6.215   3.015   2.877  0.1220  2.1598 -0.9948
   66SAPC   C38 5511   6.088   2.972   3.056 -0.0207  0.3999  0.4046
   66SAPC   H8X 5512   6.167   3.016   3.121  1.4726 -2.3833  0.6357
   66SAPC   H8Y 5513   6.100   2.862   3.068 -0.5456  0.0556 -1.8417
   66SAPC   C39 5514   5.951   3.008   3.109 -0.6203  0.4887 -0.1894
   66SAPC   H9X 5515   5.944   2.967   3.213 -0.2526  0.0036 -0.3525
   66SAPC   H9Y 5516   5.880   2.957   3.039  1.7297 -3.0641 -0.2708
   66SAPC  C310 5517   5.920   3.158   3.110  0.1864 -0.1571  0.4137
   66SAPC  H10X 5518   5.821   3.169   3.159 -0.5826  0.3584 -1.1831
   66SAPC  H10Y 5519   5.909   3.200   3.008  1.3538  0.1298  0.3914
   66SAPC  C311 5520   6.008   3.242   3.208  0.2811 -0.5141  0.1677
   66SAPC  H11X 5521   5.968   3.345   3.191  1.9901  0.2260  0.4164
   66SAPC  H11Y 5522   6.115   3.231   3.182  0.0450 -0.4836 -0.8533
   66SAPC  C312 5523   5.986   3.201   3.346  0.1897  0.4652  0.1263
   66SAPC  H12X 5524   6.058   3.118   3.365 -1.0028 -0.4808  0.6210
   66SAPC  H12Y 5525   5.884   3.157   3.352  0.0351  0.6390 -1.1024
   66SAPC  C313 5526   5.991   3.314   3.451 -0.3059  0.7868  0.2862
   66SAPC  H13X 5527   5.949   3.271   3.545 -1.1644  0.8427 -0.0564
   66SAPC  H13Y 5528   5.926   3.397   3.416 -1.2213 -0.4956 -1.1724
   66SAPC  C314 5529   6.126   3.373   3.461 -0.1996  0.9705 -0.7231
   66SAPC  H14X 5530   6.165   3.442   3.384  1.8455  1.7150  0.8836
   66SAPC  H14Y 5531   6.193   3.285   3.454 -0.8306  0.4996 -1.0208
   66SAPC  C315 5532   6.150   3.450   3.593 -0.4557 -0.0111  0.7913
   66SAPC  H15X 5533   6.133   3.391   3.685  0.2141  0.9750  1.5731
   66SAPC  H15Y 5534   6.090   3.544   3.599  1.0273  1.0215  0.1544
   66SAPC  C316 5535   6.285   3.527   3.586 -0.4303 -0.0766  0.2918
   66SAPC  H16X 5536   6.307   3.592   3.674 -1.2656 -0.2459  0.6388
   66SAPC  H16Y 5537   6.290   3.600   3.503  1.5912 -0.5118 -0.0249
   66SAPC  C317 5538   6.408   3.430   3.576  0.1567  0.1458  0.2033
   66SAPC  H17X 5539   6.415   3.361   3.489  0.9841  0.7330 -0.2075
   66SAPC  H17Y 5540   6.416   3.370   3.669 -3.4893 -0.1416  0.4580
   66SAPC  C318 5541   6.536   3.515   3.574 -0.6874  0.6403  0.0301
   66SAPC  H18X 5542   6.524   3.598   3.501 -0.5900  0.7784  0.1700
   66SAPC  H18Y 5543   6.627   3.454   3.553 -1.4040 -1.0033  1.5067
   66SAPC  H18Z 5544   6.549   3.568   3.670 -0.6231  1.2614 -0.3142
   67SAPC     N 5545   1.384   1.442   1.976  0.2789 -0.1747  0.1492
   67SAPC   C12 5546   1.428   1.515   2.100 -0.8135 -0.3164  0.3979
   67SAPC  H12A 5547   1.519   1.561   2.063 -0.9767  0.1039  0.5092
   67SAPC  H12B 5548   1.457   1.445   2.177 -2.0666 -1.0980  0.1892
   67SAPC   C13 5549   1.254   1.368   2.015 -0.2933  0.1475 -0.2947
   67SAPC  H13A 5550   1.216   1.299   1.941 -1.1801  0.5295 -0.2026
   67SAPC  H13B 5551   1.267   1.308   2.103 -0.7642  0.5014  0.0173
   67SAPC  H13C 5552   1.179   1.441   2.041  0.3603  0.7806 -0.1561
   67SAPC   C14 5553   1.357   1.533   1.863 -0.5756 -0.1846 -0.1264
   67SAPC  H14A 5554   1.278   1.596   1.901  1.7390  1.2756  2.6185
   67SAPC  H14B 5555   1.440   1.594   1.833 -1.7372  2.1017  1.0621
   67SAPC  H14C 5556   1.315   1.468   1.787 -0.4010 -2.7566  1.8067
   67SAPC   C15 5557   1.487   1.345   1.939 -0.7635 -0.2511  0.9304
   67SAPC  H15A 5558   1.469   1.320   1.836 -2.0097  0.8787  0.8485
   67SAPC  H15B 5559   1.588   1.383   1.948  0.2830 -2.3560 -0.8008
   67SAPC  H15C 5560   1.487   1.256   2.000 -1.0139 -0.0479  1.2257
   67SAPC   C11 5561   1.337   1.623   2.167 -0.0943  0.0032 -0.0845
   67SAPC  H11A 5562   1.398   1.668   2.249  0.1928 -0.1355 -0.2212
   67SAPC  H11B 5563   1.256   1.572   2.224 -0.5450 -2.2319 -2.5375
   67SAPC     P 5564   1.356   1.867   2.069 -0.3187 -0.4535 -0.0810
   67SAPC   O13 5565   1.497   1.862   2.022  0.4170  0.1850  0.1829
   67SAPC   O14 5566   1.262   1.961   1.999 -0.3289  0.3918 -0.3587
   67SAPC   O12 5567   1.300   1.722   2.069 -0.5882 -0.8877  0.3210
   67SAPC   O11 5568   1.365   1.907   2.224 -0.2623  0.0708 -0.1816
   67SAPC    C1 5569   1.257   1.927   2.310  0.3862  0.4563 -0.9424
   67SAPC    HA 5570   1.183   1.844   2.304  1.5050 -0.6795  0.2257
   67SAPC    HB 5571   1.307   1.929   2.410  2.5460  1.2227 -1.9858
   67SAPC    C2 5572   1.192   2.069   2.286 -0.1855 -0.5933 -0.3743
   67SAPC    HS 5573   1.168   2.078   2.178 -1.2727  2.1817 -0.0009
   67SAPC   O21 5574   1.284   2.176   2.317 -0.4537  0.3163  1.1143
   67SAPC   C21 5575   1.249   2.296   2.302  0.6285  0.4291 -0.8644
   67SAPC   O22 5576   1.143   2.337   2.248 -0.7027 -0.3660 -0.0833
   67SAPC   C22 5577   1.359   2.382   2.370  0.3130 -0.2383 -0.7390
   67SAPC   H2R 5578   1.405   2.326   2.454  1.0167 -0.3301 -1.1789
   67SAPC   H2S 5579   1.438   2.394   2.293  0.1557  0.1683 -0.8398
   67SAPC    C3 5580   1.059   2.075   2.359 -0.3729  0.2043 -0.2057
   67SAPC    HX 5581   0.987   1.994   2.334  1.1249 -0.5915 -2.2430
   67SAPC    HY 5582   1.017   2.172   2.327  1.5695  1.5487  1.0288
   67SAPC   O31 5583   1.081   2.098   2.498 -0.8332  0.0140 -0.4258
   67SAPC   C31 5584   1.046   1.993   2.581 -0.5184 -0.6392  0.4245
   67SAPC   O32 5585   1.020   1.881   2.540  0.1438  0.4656 -0.2318
   67SAPC   C32 5586   1.042   2.054   2.722 -0.2280  0.2380 -0.3623
   67SAPC   H2X 5587   0.933   2.066   2.744 -0.7328 -2.9700 -0.6056
   67SAPC   H2Y 5588   1.104   2.146   2.718  0.6838 -0.3605 -0.2341
   67SAPC   C23 5589   1.304   2.526   2.409  0.4167 -0.2528  0.2175
   67SAPC   H3R 5590   1.262   2.574   2.317 -0.2698  0.6399  0.9806
   67SAPC   H3S 5591   1.385   2.594   2.443  0.4840  0.6692 -1.6247
   67SAPC   C24 5592   1.210   2.519   2.530  0.0937  0.8420 -0.2848
   67SAPC   H4R 5593   1.261   2.484   2.622  0.2562  1.3488 -0.1754
   67SAPC   H4S 5594   1.129   2.444   2.517  1.0216 -0.0651 -0.9245
   67SAPC   C25 5595   1.149   2.655   2.544 -0.4413 -0.6264 -0.5747
   67SAPC   H5R 5596   1.079   2.691   2.467  0.2721  1.2908 -0.3748
   67SAPC   C26 5597   1.148   2.744   2.648  0.6209 -0.0393 -0.0816
   67SAPC   H6R 5598   1.094   2.839   2.643 -0.3204 -0.5877 -0.6050
   67SAPC   C27 5599   1.208   2.728   2.780 -0.4853  1.0504 -0.4432
   67SAPC   H7R 5600   1.196   2.817   2.844  0.1045  0.3190  0.7200
   67SAPC   H7S 5601   1.318   2.709   2.772 -0.6304 -0.3911  0.4984
   67SAPC   C28 5602   1.150   2.618   2.866  0.9141  0.5544  0.5157
   67SAPC   H8R 5603   1.086   2.547   2.813  0.0090  0.6222  1.4692
   67SAPC   C29 5604   1.157   2.611   3.001  0.2055  0.2301  0.0978
   67SAPC   H9R 5605   1.129   2.517   3.053  1.0843  1.0594  2.1630
   67SAPC  C210 5606   1.228   2.710   3.091  0.2401 -0.1451 -0.2822
   67SAPC  H10R 5607   1.302   2.774   3.039  0.5856 -0.0708  0.2908
   67SAPC  H10S 5608   1.279   2.651   3.170 -2.3156 -1.0191  0.8259
   67SAPC  C211 5609   1.132   2.799   3.154  0.1225 -0.5691 -0.2478
   67SAPC  H11R 5610   1.032   2.813   3.109 -0.6556  3.4301  2.1637
   67SAPC  C212 5611   1.150   2.851   3.273 -0.2274 -0.4790 -1.4297
   67SAPC  H12R 5612   1.080   2.927   3.311  2.2712  0.4677  1.7313
   67SAPC  C213 5613   1.277   2.848   3.350 -0.3198  0.3859 -0.2263
   67SAPC  H13R 5614   1.315   2.951   3.365 -0.9977  0.6881 -0.5126
   67SAPC  H13S 5615   1.359   2.807   3.287 -1.7338 -0.1741 -1.7943
   67SAPC  C214 5616   1.262   2.783   3.480  0.7955  0.6019  0.5175
   67SAPC  H14R 5617   1.198   2.693   3.476 -0.7470  1.6746 -2.4521
   67SAPC  C215 5618   1.333   2.803   3.588 -0.8904  0.0879 -0.0911
   67SAPC  H15R 5619   1.317   2.741   3.677  0.2684 -1.4407 -0.8983
   67SAPC  C216 5620   1.430   2.921   3.609  0.3902  0.4355 -0.0381
   67SAPC  H16R 5621   1.479   2.950   3.513  0.0080  1.1361 -0.0220
   67SAPC  H16S 5622   1.503   2.908   3.692  0.3973  1.5017  0.1325
   67SAPC  C217 5623   1.371   3.061   3.641  0.0893 -0.3133 -0.2616
   67SAPC  H17R 5624   1.304   3.055   3.729  2.2118 -1.5395  1.3679
   67SAPC  H17S 5625   1.314   3.090   3.550  0.9742 -1.2441 -1.1341
   67SAPC  C218 5626   1.481   3.163   3.682  1.0432  0.2418  0.1804
   67SAPC  H18R 5627   1.536   3.172   3.586 -1.8118 -3.8092 -2.1221
   67SAPC  H18S 5628   1.545   3.110   3.756 -1.3739 -2.8007  0.2925
   67SAPC  C219 5629   1.436   3.296   3.737  0.1407  0.2360  0.3763
   67SAPC  H19R 5630   1.370   3.271   3.823 -0.1121  0.5421  0.2745
   67SAPC  H19S 5631   1.377   3.361   3.668  1.3169  0.0894 -0.8091
   67SAPC  C220 5632   1.550   3.380   3.792 -0.7327 -0.2360  0.1106
   67SAPC  H20R 5633   1.592   3.325   3.879 -1.6830 -1.6225 -0.2773
   67SAPC  H20S 5634   1.517   3.480   3.828 -0.8891 -0.5001  0.7187
   67SAPC  H20T 5635   1.627   3.398   3.714 -2.1615 -1.2248 -1.6280
   67SAPC   C33 5636   1.102   1.949   2.827 -0.9768  0.1674 -0.5241
   67SAPC   H3X 5637   1.213   1.942   2.823 -0.9784 -2.1518  1.4486
   67SAPC   H3Y 5638   1.070   1.847   2.797  1.8177 -1.6035  1.9602
   67SAPC   C34 5639   1.055   1.972   2.973  0.1382 -0.4148 -0.1468
   67SAPC   H4X 5640   0.946   1.992   2.981  0.1440  0.5248 -1.9343
   67SAPC   H4Y 5641   1.102   2.065   3.011 -0.8574 -0.2571  0.7225
   67SAPC   C35 5642   1.094   1.864   3.079 -0.0988  0.4031  0.4199
   67SAPC   H5X 5643   1.198   1.828   3.063 -0.7716 -1.5535  0.2252
   67SAPC   H5Y 5644   1.027   1.777   3.067  0.3032  0.2709 -1.0447
   67SAPC   C36 5645   1.084   1.910   3.222  0.0834 -0.7682  0.0542
   67SAPC   H6X 5646   0.989   1.968   3.225  1.3026  1.5146 -2.3932
   67SAPC   H6Y 5647   1.168   1.979   3.245 -1.9658  1.3807  1.5370
   67SAPC   C37 5648   1.086   1.797   3.328 -0.5116  0.3921  0.4210
   67SAPC   H7X 5649   1.180   1.740   3.313 -0.6127  0.1724  0.6155
   67SAPC   H7Y 5650   1.006   1.727   3.293  0.7561 -0.6202 -0.5766
   67SAPC   C38 5651   1.077   1.850   3.467  0.5719  0.0345 -0.4934
   67SAPC   H8X 5652   1.151   1.931   3.485  0.4715  0.3072 -1.2606
   67SAPC   H8Y 5653   1.112   1.765   3.529  1.7211 -0.3762 -1.6704
   67SAPC   C39 5654   0.939   1.899   3.508  0.6604  0.2353  0.4606
   67SAPC   H9X 5655   0.858   1.836   3.467  0.5585 -0.7604  2.0819
   67SAPC   H9Y 5656   0.927   1.997   3.457 -0.0734 -0.1449 -0.0984
   67SAPC  C310 5657   0.917   1.915   3.655 -0.4378 -0.1776 -0.2488
   67SAPC  H10X 5658   0.983   1.997   3.688  1.2215 -1.1748 -0.9544
   67SAPC  H10Y 5659   0.965   1.827   3.703  0.0920  0.5422  0.5730
   67SAPC  C311 5660   0.767   1.935   3.686 -0.4394  0.4567 -0.4824
   67SAPC  H11X 5661   0.751   1.889   3.786  1.4724  0.0392 -0.3281
   67SAPC  H11Y 5662   0.701   1.891   3.608 -0.2250 -0.2148 -0.2917
   67SAPC  C312 5663   0.723   2.086   3.690  0.7110 -0.0468  0.0821
   67SAPC  H12X 5664   0.705   2.118   3.585  0.7952 -1.3294 -0.3397
   67SAPC  H12Y 5665   0.814   2.139   3.725  3.0719 -3.1529 -0.9718
   67SAPC  C313 5666   0.609   2.109   3.789 -0.3632  0.6961  0.8414
   67SAPC  H13X 5667   0.536   2.028   3.770  2.1231 -1.3508 -0.6941
   67SAPC  H13Y 5668   0.553   2.201   3.761 -1.8674  0.2229  2.1482
   67SAPC  C314 5669   0.653   2.119   3.939 -0.0100  0.0223  0.2565
   67SAPC  H14X 5670   0.726   2.202   3.949  1.5351 -1.0982 -0.9846
   67SAPC  H14Y 5671   0.713   2.027   3.958  0.9469  0.8041  1.2151
   67SAPC  C315 5672   0.524   2.127   4.018  0.3282  0.1601 -0.1512
   67SAPC  H15X 5673   0.461   2.042   3.986 -0.7444  0.5885  0.7408
   67SAPC  H15Y 5674   0.465   2.219   3.994 -0.7394 -0.0058  1.6512
   67SAPC  C316 5675   0.547   2.103   4.171 -0.2845  0.4931  0.3571
   67SAPC  H16X 5676   0.612   2.184   4.209  0.3372 -0.4710  1.3892
   67SAPC  H16Y 5677   0.596   2.003   4.173 -0.1908  0.5518  0.9321
   67SAPC  C317 5678   0.419   2.094   4.257 -0.4367  0.1252  1.1362
   67SAPC  H17X 5679   0.352   2.032   4.194 -1.4777  2.1257  0.1702
   67SAPC  H17Y 5680   0.374   2.195   4.272 -1.7559 -0.2653 -0.0162
   67SAPC  C318 5681   0.430   2.036   4.395  0.1962  0.2581 -0.2450
   67SAPC  H18X 5682   0.499   1.949   4.394  1.1710  0.9989  0.0990
   67SAPC  H18Y 5683   0.339   2.013   4.453  1.6868  0.1711  2.2174
   67SAPC  H18Z 5684   0.491   2.094   4.468  0.5395  1.3884 -1.4068
   68SAPC     N 5685   4.179   0.381   1.829 -0.5679 -0.3020  0.0876
   68SAPC   C12 5686   4.170   0.456   1.956 -0.6060  0.3243 -0.3413
   68SAPC  H12A 5687   4.166   0.563   1.943  1.4400  0.6550  1.3004
   68SAPC  H12B 5688   4.268   0.446   2.001 -0.0474  0.3273 -1.5192
   68SAPC   C13 5689   4.119   0.443   1.704  0.4862  0.4692 -0.1385
   68SAPC  H13A 5690   4.015   0.469   1.720  0.0460 -1.6488  0.7344
   68SAPC  H13B 5691   4.167   0.534   1.671 -0.8137  1.2744  0.1006
   68SAPC  H13C 5692   4.126   0.371   1.623 -0.8297 -0.2778  0.3802
   68SAPC   C14 5693   4.327   0.356   1.794  0.0993  0.6811 -0.2741
   68SAPC  H14A 5694   4.320   0.308   1.697  0.5659 -0.4101  0.2093
   68SAPC  H14B 5695   4.374   0.453   1.793 -0.5701  1.0415 -2.4877
   68SAPC  H14C 5696   4.381   0.293   1.863  1.9665  2.2765 -0.2026
   68SAPC   C15 5697   4.121   0.246   1.834  0.5972  0.3444 -1.1117
   68SAPC  H15A 5698   4.152   0.186   1.919 -2.8505 -1.0401 -0.6523
   68SAPC  H15B 5699   4.014   0.255   1.840  0.7353  2.4410 -1.0550
   68SAPC  H15C 5700   4.139   0.198   1.739  0.2491 -0.5672 -0.7283
   68SAPC   C11 5701   4.055   0.427   2.058 -0.2787 -0.1465 -0.1519
   68SAPC  H11A 5702   4.082   0.478   2.153  1.6202 -0.6440 -0.3970
   68SAPC  H11B 5703   4.054   0.319   2.086 -0.4958 -0.1700 -0.2451
   68SAPC     P 5704   3.885   0.622   1.995  0.0058  0.2593 -0.1430
   68SAPC   O13 5705   3.983   0.698   1.908  0.0083 -0.2749 -0.5085
   68SAPC   O14 5706   3.745   0.636   1.955  0.5948  0.1879 -0.2727
   68SAPC   O12 5707   3.927   0.474   2.009  0.5361  0.2554  0.3140
   68SAPC   O11 5708   3.900   0.663   2.149 -0.3167 -0.2530 -0.2430
   68SAPC    C1 5709   3.824   0.584   2.243  0.7606 -0.1484  0.1696
   68SAPC    HA 5710   3.805   0.482   2.205 -1.1568  0.3596 -0.3762
   68SAPC    HB 5711   3.875   0.581   2.341  0.8166  0.6480  0.1728
   68SAPC    C2 5712   3.683   0.655   2.266 -0.5984 -0.8489  0.1009
   68SAPC    HS 5713   3.635   0.654   2.166  1.0601  1.1600 -0.7918
   68SAPC   O21 5714   3.702   0.793   2.301 -0.1498  0.3636 -0.8775
   68SAPC   C21 5715   3.599   0.869   2.335 -0.0424  0.1166 -0.3293
   68SAPC   O22 5716   3.485   0.855   2.296  0.1974 -0.0981 -0.1273
   68SAPC   C22 5717   3.650   0.983   2.418  0.3312  0.1952 -0.1244
   68SAPC   H2R 5718   3.729   1.036   2.361  0.2965  1.8203  1.2608
   68SAPC   H2S 5719   3.567   1.055   2.432  2.3569  2.3904  1.4192
   68SAPC    C3 5720   3.608   0.572   2.371 -0.0210  0.3239  0.1057
   68SAPC    HX 5721   3.611   0.466   2.339  0.5493 -0.1792  1.7205
   68SAPC    HY 5722   3.498   0.588   2.370 -0.0541  0.1496 -1.5816
   68SAPC   O31 5723   3.674   0.574   2.500  0.0754  0.1915  0.3822
   68SAPC   C31 5724   3.587   0.538   2.592  0.2120  0.3132 -0.0204
   68SAPC   O32 5725   3.472   0.489   2.572  0.7133  0.2901 -0.3842
   68SAPC   C32 5726   3.652   0.542   2.723  0.8294  0.3760 -0.2831
   68SAPC   H2X 5727   3.718   0.630   2.734 -1.3289  1.9546  0.8809
   68SAPC   H2Y 5728   3.706   0.447   2.746 -0.6987 -0.9478 -1.8422
   68SAPC   C23 5729   3.704   0.931   2.551 -0.1987 -0.4300  0.5853
   68SAPC   H3R 5730   3.797   0.870   2.548 -0.7008 -1.2104  0.4986
   68SAPC   H3S 5731   3.630   0.871   2.609 -0.5425 -0.1046  0.4897
   68SAPC   C24 5732   3.741   1.050   2.635  0.0873  0.2864  0.8486
   68SAPC   H4R 5733   3.800   1.119   2.572 -0.6386  0.7322  0.6541
   68SAPC   H4S 5734   3.812   1.021   2.716  0.9949  1.5721  0.5420
   68SAPC   C25 5735   3.628   1.122   2.690  0.7921 -0.2166 -0.1288
   68SAPC   H5R 5736   3.587   1.198   2.622  1.7172  2.2678  1.9267
   68SAPC   C26 5737   3.590   1.118   2.822  0.2568 -0.4519  0.7131
   68SAPC   H6R 5738   3.515   1.186   2.865  0.4177 -1.1030  2.0932
   68SAPC   C27 5739   3.625   1.025   2.931 -0.6800  0.1600  0.0405
   68SAPC   H7R 5740   3.705   0.959   2.892  1.3066  1.6569  1.3860
   68SAPC   H7S 5741   3.534   0.967   2.955 -0.1492 -0.7499 -0.1039
   68SAPC   C28 5742   3.676   1.102   3.047 -0.6715  0.1098 -0.3319
   68SAPC   H8R 5743   3.767   1.155   3.016 -0.9736  0.2416 -1.0296
   68SAPC   C29 5744   3.628   1.111   3.172  0.0563  0.0371 -0.0340
   68SAPC   H9R 5745   3.673   1.180   3.246  1.6710 -1.9864  0.9662
   68SAPC  C210 5746   3.499   1.038   3.216 -0.2153  0.5702  0.1119
   68SAPC  H10R 5747   3.422   1.063   3.140 -1.3275 -2.7655 -0.0303
   68SAPC  H10S 5748   3.474   1.073   3.318  1.5179  0.7513  0.5090
   68SAPC  C211 5749   3.499   0.889   3.219  0.0636  0.2750  0.4760
   68SAPC  H11R 5750   3.443   0.847   3.133  2.0965  0.9613 -1.2649
   68SAPC  C212 5751   3.547   0.815   3.319  0.1486 -0.4487 -0.3452
   68SAPC  H12R 5752   3.536   0.706   3.314  3.6393 -0.8951 -0.8381
   68SAPC  C213 5753   3.614   0.865   3.446 -0.2258 -0.3661 -0.2829
   68SAPC  H13R 5754   3.570   0.812   3.533 -1.2104  0.3711 -0.3057
   68SAPC  H13S 5755   3.596   0.974   3.461 -0.1714 -0.5793  1.5345
   68SAPC  C214 5756   3.758   0.858   3.440 -1.2701  0.2527  0.1361
   68SAPC  H14R 5757   3.813   0.863   3.345  0.4176  0.0902  1.0637
   68SAPC  C215 5758   3.834   0.867   3.553 -1.2664  1.1496  0.0745
   68SAPC  H15R 5759   3.943   0.869   3.550 -1.0833 -2.4206 -0.2083
   68SAPC  C216 5760   3.791   0.874   3.692 -0.2668  0.5739 -0.4416
   68SAPC  H16R 5761   3.763   0.777   3.738 -2.2593  2.1898  2.0720
   68SAPC  H16S 5762   3.707   0.947   3.702 -0.1498  0.8333 -1.2930
   68SAPC  C217 5763   3.908   0.939   3.768 -0.8734  0.0400 -0.4473
   68SAPC  H17R 5764   3.943   1.035   3.724 -1.5231  0.3033 -0.4002
   68SAPC  H17S 5765   3.998   0.874   3.756  0.9768  2.0774  1.4305
   68SAPC  C218 5766   3.896   0.958   3.927  0.3916  0.4945 -0.2805
   68SAPC  H18R 5767   3.821   1.037   3.949  0.5963  0.4848  0.4870
   68SAPC  H18S 5768   3.999   0.982   3.960  1.0666  0.0587 -1.9838
   68SAPC  C219 5769   3.864   0.830   3.998 -0.2113  0.2739 -0.4463
   68SAPC  H19R 5770   3.942   0.752   3.984  1.1503  0.8736  2.9065
   68SAPC  H19S 5771   3.767   0.799   3.954 -0.0980  0.2081 -0.6526
   68SAPC  C220 5772   3.853   0.853   4.149 -0.4215  0.0658 -1.1068
   68SAPC  H20R 5773   3.953   0.878   4.189 -1.0395 -1.5033  1.6517
   68SAPC  H20S 5774   3.813   0.762   4.199 -1.1593  0.7046 -0.5225
   68SAPC  H20T 5775   3.792   0.940   4.180  1.4961  2.0423 -2.5532
   68SAPC   C33 5776   3.545   0.564   2.837  0.5316  0.0049 -0.2309
   68SAPC   H3X 5777   3.468   0.484   2.842  0.8603 -0.3139 -0.2962
   68SAPC   H3Y 5778   3.484   0.652   2.805 -2.1497 -0.9954  1.7303
   68SAPC   C34 5779   3.609   0.607   2.969  0.2752  0.4962  0.9359
   68SAPC   H4X 5780   3.533   0.615   3.049 -0.7140 -0.4521  0.1232
   68SAPC   H4Y 5781   3.647   0.710   2.950  1.6005  0.3104  2.3809
   68SAPC   C35 5782   3.710   0.503   3.024 -0.0208  0.0504  1.0665
   68SAPC   H5X 5783   3.798   0.511   2.957  0.7243  0.2618  2.0505
   68SAPC   H5Y 5784   3.671   0.400   3.004  1.5042 -0.6011  1.3253
   68SAPC   C36 5785   3.743   0.528   3.171  0.3201 -0.2875  0.6047
   68SAPC   H6X 5786   3.645   0.512   3.220  0.0321  2.6973  1.1415
   68SAPC   H6Y 5787   3.778   0.631   3.189 -0.8270  0.5772 -1.7192
   68SAPC   C37 5788   3.847   0.438   3.219 -0.0937 -0.3466  0.1936
   68SAPC   H7X 5789   3.933   0.439   3.148  0.6301  1.2351  1.0434
   68SAPC   H7Y 5790   3.821   0.330   3.221  0.3535 -0.5080 -1.3699
   68SAPC   C38 5791   3.896   0.473   3.363 -0.1503  0.7247 -0.0339
   68SAPC   H8X 5792   3.925   0.580   3.365 -0.4128  0.8142 -0.7462
   68SAPC   H8Y 5793   3.988   0.418   3.392 -1.3981 -1.2479  0.4187
   68SAPC   C39 5794   3.795   0.436   3.467  1.0199  0.5760 -0.4103
   68SAPC   H9X 5795   3.766   0.331   3.443  2.3293 -0.1578  0.9792
   68SAPC   H9Y 5796   3.697   0.486   3.457 -0.7456 -2.6871 -1.0689
   68SAPC  C310 5797   3.855   0.460   3.600  0.5416  0.1258 -0.9299
   68SAPC  H10X 5798   3.865   0.570   3.607 -1.1117  0.3716 -1.8308
   68SAPC  H10Y 5799   3.960   0.426   3.604  1.3698  2.5710 -0.2243
   68SAPC  C311 5800   3.784   0.401   3.716 -0.5665  0.5977 -0.7973
   68SAPC  H11X 5801   3.780   0.290   3.713 -0.4879  0.6140 -1.5866
   68SAPC  H11Y 5802   3.679   0.438   3.719 -0.5949  0.4653 -0.0271
   68SAPC  C312 5803   3.840   0.438   3.857 -0.8044 -0.1729  0.0932
   68SAPC  H12X 5804   3.868   0.544   3.873 -0.4184 -0.2058 -0.3241
   68SAPC  H12Y 5805   3.932   0.376   3.871  0.8921  2.1647 -0.1603
   68SAPC  C313 5806   3.737   0.408   3.969  0.2403  0.3630  0.6580
   68SAPC  H13X 5807   3.727   0.298   3.961  0.8085  0.3136  0.5715
   68SAPC  H13Y 5808   3.636   0.451   3.957 -1.9044 -4.2668  0.0205
   68SAPC  C314 5809   3.786   0.460   4.107  0.2091 -0.8219  0.6876
   68SAPC  H14X 5810   3.797   0.570   4.094  2.2652 -1.1165 -0.4312
   68SAPC  H14Y 5811   3.890   0.427   4.127  0.2511 -0.6869  0.6969
   68SAPC  C315 5812   3.698   0.437   4.222  0.0650  0.0468  0.6275
   68SAPC  H15X 5813   3.742   0.468   4.320  0.0777  1.8276  0.0863
   68SAPC  H15Y 5814   3.680   0.328   4.222 -0.6474  0.1122 -1.6620
   68SAPC  C316 5815   3.565   0.522   4.202  0.3781  0.3330 -0.5350
   68SAPC  H16X 5816   3.516   0.482   4.111 -1.7834 -1.2316  1.2163
   68SAPC  H16Y 5817   3.583   0.630   4.183 -0.7889  0.4391 -1.1865
   68SAPC  C317 5818   3.471   0.508   4.325  0.1679  0.3308 -0.6711
   68SAPC  H17X 5819   3.516   0.570   4.405  0.7982  1.2822 -1.7394
   68SAPC  H17Y 5820   3.465   0.406   4.370 -0.5657  0.0051 -1.4693
   68SAPC  C318 5821   3.330   0.561   4.303 -0.9480  0.6486 -0.1674
   68SAPC  H18X 5822   3.329   0.662   4.257 -0.3183  0.7074 -0.0702
   68SAPC  H18Y 5823   3.266   0.570   4.394 -1.4816 -1.0271 -0.3509
   68SAPC  H18Z 5824   3.286   0.498   4.224  2.0636  0.9805 -2.2723
   69SAPC     N 5825   3.594   6.463   1.725  0.1157 -0.1643  0.1984
   69SAPC   C12 5826   3.627   6.431   1.864  0.4394  0.2534 -0.2656
   69SAPC  H12A 5827   3.694   6.346   1.862 -0.6465 -0.6283 -0.3351
   69SAPC  H12B 5828   3.536   6.398   1.911 -0.4977 -0.0077 -2.1701
   69SAPC   C13 5829   3.495   6.364   1.675 -1.3845 -0.1532 -0.0398
   69SAPC  H13A 5830   3.397   6.366   1.721 -1.0224 -2.1967  0.9612
   69SAPC  H13B 5831   3.480   6.373   1.569  2.4647 -0.0760 -0.7331
   69SAPC  H13C 5832   3.534   6.264   1.688  1.0528  0.6803 -0.5055
   69SAPC   C14 5833   3.531   6.595   1.731  0.8443 -0.1560 -0.1482
   69SAPC  H14A 5834   3.503   6.656   1.647  1.4289  2.5366  1.4717
   69SAPC  H14B 5835   3.442   6.588   1.792 -0.6590  0.6650 -2.1565
   69SAPC  H14C 5836   3.595   6.658   1.792  1.0536 -1.2293  0.7769
   69SAPC   C15 5837   3.711   6.462   1.625  0.4885 -0.0613 -0.2409
   69SAPC  H15A 5838   3.791   6.523   1.663 -0.4842  1.3069 -0.3164
   69SAPC  H15B 5839   3.744   6.359   1.617 -1.0493 -0.7203  1.2546
   69SAPC  H15C 5840   3.677   6.499   1.529  1.0867  3.7551  0.8603
   69SAPC   C11 5841   3.692   6.544   1.953 -0.0568 -0.1307  0.0741
   69SAPC  H11A 5842   3.719   6.514   2.056  0.7051 -2.4634 -0.7230
   69SAPC  H11B 5843   3.606   6.613   1.964 -0.2761 -0.0604 -1.7614
   69SAPC     P 5844   3.944   6.561   1.878  0.1813 -0.1670 -0.3471
   69SAPC   O13 5845   3.944   6.413   1.883 -0.3542  0.0374  0.0099
   69SAPC   O14 5846   4.006   6.632   1.765 -0.1626  0.5600 -0.1508
   69SAPC   O12 5847   3.801   6.619   1.890  0.0055  0.2687  0.4601
   69SAPC   O11 5848   4.002   6.622   2.008  0.8439 -0.5955 -0.1408
   69SAPC    C1 5849   4.119   6.568   2.071 -0.3363  0.2654 -0.3125
   69SAPC    HA 5850   4.121   6.457   2.072 -0.5461  0.2488 -1.1755
   69SAPC    HB 5851   4.214   6.605   2.026  0.4321 -1.4064 -0.1683
   69SAPC    C2 5852   4.128   6.624   2.219  0.1922  0.3751 -0.4278
   69SAPC    HS 5853   4.206   6.563   2.268 -1.8188  0.6270  3.4790
   69SAPC   O21 5854   4.008   6.607   2.302  0.2698 -0.4706 -0.6324
   69SAPC   C21 5855   3.947   6.487   2.314  0.7975 -0.2930  0.2287
   69SAPC   O22 5856   4.002   6.383   2.271 -0.0491  0.4741  0.1888
   69SAPC   C22 5857   3.810   6.503   2.382 -0.3541 -0.0837  0.4177
   69SAPC   H2R 5858   3.821   6.490   2.491  1.6765 -0.6144  0.1940
   69SAPC   H2S 5859   3.770   6.601   2.347 -2.0247 -1.0788 -0.6342
   69SAPC    C3 5860   4.182   6.768   2.214 -0.5130  0.2939  0.6382
   69SAPC    HX 5861   4.102   6.818   2.156  0.0124  0.1118 -0.2580
   69SAPC    HY 5862   4.281   6.779   2.165 -0.3425  3.1410  1.4240
   69SAPC   O31 5863   4.200   6.813   2.353 -0.0526 -0.5392  0.0356
   69SAPC   C31 5864   4.093   6.869   2.408  0.5648  0.4115  0.2729
   69SAPC   O32 5865   3.984   6.886   2.353  0.4025  0.0707  0.0503
   69SAPC   C32 5866   4.119   6.909   2.548 -0.4211 -0.3017  0.0247
   69SAPC   H2X 5867   4.099   7.018   2.551 -1.3705 -0.4690  0.3827
   69SAPC   H2Y 5868   4.226   6.893   2.571 -0.0097 -0.0713 -1.6018
   69SAPC   C23 5869   3.687   6.421   2.328 -0.0981  0.4899  0.3622
   69SAPC   H3R 5870   3.694   6.395   2.220 -1.9154  0.7876  0.1358
   69SAPC   H3S 5871   3.597   6.486   2.338 -0.7207 -0.6095  2.5193
   69SAPC   C24 5872   3.644   6.297   2.412 -1.0652 -0.0394 -0.3667
   69SAPC   H4R 5873   3.596   6.335   2.505  2.6422  0.2545  1.6105
   69SAPC   H4S 5874   3.738   6.246   2.444 -0.5169  2.2613  2.0803
   69SAPC   C25 5875   3.554   6.215   2.334  0.7141  0.0747 -0.0216
   69SAPC   H5R 5876   3.585   6.206   2.229  3.8942  1.1252  0.7078
   69SAPC   C26 5877   3.448   6.150   2.387  0.1550 -0.5005  0.2725
   69SAPC   H6R 5878   3.390   6.082   2.324 -0.9391 -0.8948  1.6471
   69SAPC   C27 5879   3.416   6.147   2.536  0.2571 -0.5862 -0.2712
   69SAPC   H7R 5880   3.313   6.107   2.549  1.0238 -2.0003  2.1834
   69SAPC   H7S 5881   3.416   6.248   2.581  2.0627 -2.1973  3.8205
   69SAPC   C28 5882   3.518   6.066   2.611 -0.6240 -0.2523 -1.4075
   69SAPC   H8R 5883   3.581   5.999   2.550 -0.4999 -2.7150  1.2361
   69SAPC   C29 5884   3.536   6.076   2.750 -0.5225 -0.2248  0.7182
   69SAPC   H9R 5885   3.615   6.015   2.795  0.6831 -0.9514 -2.1817
   69SAPC  C210 5886   3.458   6.160   2.850 -0.1522  0.3996  0.0717
   69SAPC  H10R 5887   3.404   6.246   2.806 -1.8505 -1.4472 -1.6570
   69SAPC  H10S 5888   3.534   6.198   2.922  0.8302  0.2634 -0.8772
   69SAPC  C211 5889   3.355   6.070   2.917  0.3004  0.2083  0.1934
   69SAPC  H11R 5890   3.303   6.012   2.838  0.0607  1.1930 -0.3858
   69SAPC  C212 5891   3.322   6.065   3.047 -1.1402  0.3207  0.1309
   69SAPC  H12R 5892   3.244   5.998   3.086 -1.5899  0.8789  0.2064
   69SAPC  C213 5893   3.402   6.139   3.154  0.2882  0.0337  0.4422
   69SAPC  H13R 5894   3.442   6.230   3.106  0.2367 -1.3578 -2.4390
   69SAPC  H13S 5895   3.489   6.073   3.175  0.8918  0.1517 -1.5503
   69SAPC  C214 5896   3.319   6.153   3.284 -0.0885 -0.0246 -0.0478
   69SAPC  H14R 5897   3.324   6.057   3.337  0.5823 -0.8430 -1.5443
   69SAPC  C215 5898   3.266   6.263   3.331  0.6609 -0.2545  0.4756
   69SAPC  H15R 5899   3.206   6.254   3.423  2.8873 -0.5381  1.9685
   69SAPC  C216 5900   3.278   6.398   3.273 -0.4854 -0.1225  1.4139
   69SAPC  H16R 5901   3.341   6.412   3.183 -0.1380  1.9868  1.9404
   69SAPC  H16S 5902   3.330   6.464   3.346  1.0811  1.0962 -0.7236
   69SAPC  C217 5903   3.142   6.467   3.248  0.3244 -0.3821  0.7582
   69SAPC  H17R 5904   3.162   6.573   3.224 -0.1485  0.5586  4.1101
   69SAPC  H17S 5905   3.097   6.458   3.349  3.1174 -1.2056  2.0107
   69SAPC  C218 5906   3.059   6.397   3.142 -0.1031  0.0672  0.9910
   69SAPC  H18R 5907   2.963   6.450   3.123 -1.8749 -3.6343 -1.4314
   69SAPC  H18S 5908   3.048   6.289   3.165  1.4147 -0.6859 -1.5536
   69SAPC  C219 5909   3.135   6.396   3.012  0.3030 -0.0902 -0.6750
   69SAPC  H19R 5910   3.218   6.322   3.010 -0.0724 -0.5031 -1.3125
   69SAPC  H19S 5911   3.177   6.499   3.006 -2.3906  1.1851  0.5184
   69SAPC  C220 5912   3.052   6.372   2.884  0.0932  0.1084  0.0807
   69SAPC  H20R 5913   3.009   6.271   2.868 -0.2520  0.3118 -0.3109
   69SAPC  H20S 5914   3.108   6.399   2.791 -0.6102  1.2975 -0.0157
   69SAPC  H20T 5915   2.968   6.443   2.899  0.4876  0.2909  1.5255
   69SAPC   C33 5916   4.015   6.846   2.651  0.1475 -0.2309 -0.7162
   69SAPC   H3X 5917   3.914   6.854   2.604 -0.4270  1.5706  0.7329
   69SAPC   H3Y 5918   4.016   6.889   2.753  1.6314 -0.3585 -0.6528
   69SAPC   C34 5919   4.048   6.692   2.669  1.1402 -0.4270 -0.2059
   69SAPC   H4X 5920   4.150   6.678   2.711  0.3949 -2.4510  1.0844
   69SAPC   H4Y 5921   4.047   6.651   2.565  1.2508 -1.0097  0.0217
   69SAPC   C35 5922   3.948   6.621   2.755  0.3828  0.0248 -0.3758
   69SAPC   H5X 5923   3.845   6.654   2.731  0.2075 -1.5846 -2.0066
   69SAPC   H5Y 5924   3.966   6.636   2.864 -0.5296 -0.7484 -0.1099
   69SAPC   C36 5925   3.953   6.468   2.746 -0.3124 -0.1701  0.4842
   69SAPC   H6X 5926   4.060   6.445   2.768  0.4424  1.2266 -1.3946
   69SAPC   H6Y 5927   3.947   6.450   2.636  1.7624  0.3161  0.2486
   69SAPC   C37 5928   3.843   6.392   2.821 -0.6813  0.0964 -0.2601
   69SAPC   H7X 5929   3.840   6.299   2.761 -2.2668  0.7774 -1.3071
   69SAPC   H7Y 5930   3.741   6.435   2.812 -0.5915  0.0086 -2.2110
   69SAPC   C38 5931   3.881   6.369   2.969  0.2411  0.1098  0.4638
   69SAPC   H8X 5932   3.898   6.466   3.019 -0.8370 -0.0451  1.1683
   69SAPC   H8Y 5933   3.970   6.304   2.979 -0.8006 -1.5290 -0.3535
   69SAPC   C39 5934   3.783   6.303   3.067 -0.6012  0.1603  0.2898
   69SAPC   H9X 5935   3.739   6.208   3.030 -2.3459  1.3032 -0.7095
   69SAPC   H9Y 5936   3.696   6.368   3.089 -0.3203  1.1132 -1.2914
   69SAPC  C310 5937   3.851   6.264   3.203  0.4321 -0.3318 -0.1892
   69SAPC  H10X 5938   3.903   6.350   3.251  0.2986  1.0992 -2.5072
   69SAPC  H10Y 5939   3.935   6.192   3.189  1.2962  0.8201 -1.1214
   69SAPC  C311 5940   3.754   6.207   3.310  0.2175  0.7277  0.1345
   69SAPC  H11X 5941   3.702   6.124   3.258  0.5842  1.6638 -1.7921
   69SAPC  H11Y 5942   3.672   6.278   3.329 -0.3745 -0.0124  0.4222
   69SAPC  C312 5943   3.820   6.161   3.445  0.4645  0.2499  0.7903
   69SAPC  H12X 5944   3.899   6.084   3.436  0.7555  0.6920 -0.7702
   69SAPC  H12Y 5945   3.733   6.117   3.497  0.3139  1.2564  1.4280
   69SAPC  C313 5946   3.865   6.286   3.528  0.3125 -0.4157  0.1288
   69SAPC  H13X 5947   3.770   6.340   3.550  0.9349  1.2027 -0.9441
   69SAPC  H13Y 5948   3.938   6.347   3.471 -0.1832  1.9766  1.8922
   69SAPC  C314 5949   3.939   6.250   3.658 -0.4000 -0.2575  0.4764
   69SAPC  H14X 5950   4.008   6.164   3.648  0.0210 -0.4008  3.5396
   69SAPC  H14Y 5951   3.864   6.212   3.731 -1.6012 -1.8032 -1.4523
   69SAPC  C315 5952   4.014   6.365   3.722 -0.0836 -0.6002  0.6570
   69SAPC  H15X 5953   3.958   6.451   3.764  0.6285  0.7855 -1.1119
   69SAPC  H15Y 5954   4.086   6.404   3.648  0.6871 -1.0863  1.1411
   69SAPC  C316 5955   4.107   6.326   3.832  0.0769  0.4480 -0.3486
   69SAPC  H16X 5956   4.175   6.413   3.847  0.5344 -0.0186  0.3596
   69SAPC  H16Y 5957   4.184   6.251   3.803  1.6854  0.3116  3.5873
   69SAPC  C317 5958   4.048   6.276   3.966  0.0776 -0.8080  0.2822
   69SAPC  H17X 5959   4.132   6.245   4.032  0.5831 -0.6069 -0.2553
   69SAPC  H17Y 5960   3.986   6.187   3.944 -0.8638 -0.2542  0.6207
   69SAPC  C318 5961   3.971   6.373   4.056 -0.2618 -0.2483  0.2048
   69SAPC  H18X 5962   4.032   6.464   4.075 -0.7525  0.3595 -1.0115
   69SAPC  H18Y 5963   3.952   6.330   4.157 -1.8418 -2.4266 -0.9385
   69SAPC  H18Z 5964   3.875   6.405   4.011  0.9758  4.8869  0.6596
   70SAPC     N 5965   6.711   3.855   1.908 -0.3285 -0.8315  0.0211
   70SAPC   C12 5966   6.853   3.809   1.878 -1.0895 -0.6642 -0.4486
   70SAPC  H12A 5967   6.869   3.833   1.774 -1.5906  1.9430  0.0251
   70SAPC  H12B 5968   6.861   3.702   1.894  0.9093 -0.3182  1.3175
   70SAPC   C13 5969   6.660   3.781   2.031 -0.2629 -0.0481  0.5413
   70SAPC  H13A 5970   6.669   3.674   2.023 -1.0610 -0.0363 -0.7081
   70SAPC  H13B 5971   6.712   3.816   2.119  2.2937 -1.6713 -0.1899
   70SAPC  H13C 5972   6.556   3.801   2.051 -0.9714 -3.0529  0.3678
   70SAPC   C14 5973   6.705   4.004   1.943  0.0295 -0.6723 -0.3218
   70SAPC  H14A 5974   6.725   4.065   1.857 -1.7068  1.2815  0.5738
   70SAPC  H14B 5975   6.615   4.040   1.991  0.2124 -0.3482 -0.2221
   70SAPC  H14C 5976   6.783   4.028   2.014 -1.3299  2.0713  0.3633
   70SAPC   C15 5977   6.617   3.828   1.793 -0.0532  0.5163  0.6367
   70SAPC  H15A 5978   6.628   3.893   1.707  0.9608 -1.2574 -0.6457
   70SAPC  H15B 5979   6.629   3.726   1.759 -1.6279  0.2196  0.8891
   70SAPC  H15C 5980   6.515   3.841   1.827 -0.6280  1.0180 -1.1496
   70SAPC   C11 5981   6.969   3.876   1.959 -0.9934  0.0531 -0.4199
   70SAPC  H11A 5982   6.971   3.981   1.922  0.1475  0.0426 -0.4141
   70SAPC  H11B 5983   7.070   3.836   1.938 -1.0558  0.7383 -2.2099
   70SAPC     P 5984   7.031   3.964   2.192  0.1224  0.1194 -0.1949
   70SAPC   O13 5985   7.165   3.903   2.178  0.8195 -0.0862  0.2657
   70SAPC   O14 5986   7.017   4.109   2.163 -0.7968  0.0662  0.8053
   70SAPC   O12 5987   6.937   3.883   2.101 -0.9107 -0.4136  0.6050
   70SAPC   O11 5988   6.970   3.938   2.335  0.1487 -0.1453  0.0791
   70SAPC    C1 5989   6.999   3.820   2.408  0.0447  0.3381 -0.2843
   70SAPC    HA 5990   7.097   3.775   2.383 -0.1669 -0.4644  0.2847
   70SAPC    HB 5991   6.993   3.850   2.515  0.3039 -2.8902  0.7251
   70SAPC    C2 5992   6.889   3.703   2.400 -0.0975  0.0930 -0.9461
   70SAPC    HS 5993   6.878   3.679   2.292  1.0180  1.8460 -1.4988
   70SAPC   O21 5994   6.762   3.746   2.451  0.1082 -0.6491 -0.8961
   70SAPC   C21 5995   6.661   3.683   2.403 -0.2815  0.3444 -0.5579
   70SAPC   O22 5996   6.658   3.595   2.318 -0.6782  0.1144 -0.1716
   70SAPC   C22 5997   6.537   3.732   2.473 -0.2044  0.1855  0.6504
   70SAPC   H2R 5998   6.554   3.717   2.582 -1.0256 -1.1679  0.6082
   70SAPC   H2S 5999   6.532   3.835   2.432 -1.6322  0.2945  1.0610
   70SAPC    C3 6000   6.932   3.586   2.490 -0.2476 -0.0813 -0.3870
   70SAPC    HX 6001   7.016   3.540   2.433 -0.3636  0.3632 -0.9302
   70SAPC    HY 6002   6.848   3.514   2.489 -1.7843  1.5533 -3.1267
   70SAPC   O31 6003   6.973   3.620   2.621 -0.1593 -0.2136 -0.2807
   70SAPC   C31 6004   7.098   3.624   2.653 -0.1503 -0.2566 -0.3459
   70SAPC   O32 6005   7.196   3.586   2.587  0.9553  0.4252  0.1985
   70SAPC   C32 6006   7.105   3.692   2.796 -0.1143  0.0806  0.7938
   70SAPC   H2X 6007   7.028   3.636   2.852  0.9672 -1.1037  1.1367
   70SAPC   H2Y 6008   7.076   3.799   2.786 -0.0862  0.0310  0.1271
   70SAPC   C23 6009   6.406   3.657   2.445  0.2534  0.2911  0.4757
   70SAPC   H3R 6010   6.428   3.549   2.460 -0.9070  0.0861  0.8365
   70SAPC   H3S 6011   6.373   3.660   2.339  1.9337  0.6167 -0.0638
   70SAPC   C24 6012   6.284   3.722   2.518 -0.7044 -0.5278  0.3697
   70SAPC   H4R 6013   6.194   3.680   2.467 -1.0061 -0.3151  0.7234
   70SAPC   H4S 6014   6.281   3.832   2.505  1.3976 -0.2021  2.1121
   70SAPC   C25 6015   6.284   3.684   2.663 -0.2103 -0.2616  0.5672
   70SAPC   H5R 6016   6.303   3.577   2.675 -0.8965 -0.2658  1.7330
   70SAPC   C26 6017   6.279   3.761   2.771 -0.1574  0.7073 -0.7993
   70SAPC   H6R 6018   6.288   3.709   2.867 -0.0171  0.1241 -1.1255
   70SAPC   C27 6019   6.270   3.914   2.774  0.1152 -0.1430 -0.8690
   70SAPC   H7R 6020   6.237   3.959   2.678  2.2178  2.0646 -0.6390
   70SAPC   H7S 6021   6.374   3.953   2.785  0.4465 -0.5393 -2.2816
   70SAPC   C28 6022   6.172   3.949   2.887  0.1721 -0.4957  0.4406
   70SAPC   H8R 6023   6.068   3.945   2.851  0.4022 -2.9376 -0.1759
   70SAPC   C29 6024   6.201   3.985   3.013 -0.4698  0.7407 -0.4286
   70SAPC   H9R 6025   6.115   3.999   3.080 -0.4656 -0.1751 -0.2264
   70SAPC  C210 6026   6.341   4.004   3.066 -0.4679  0.1099 -0.0178
   70SAPC  H10R 6027   6.370   4.109   3.086  4.5089 -0.8547 -0.9635
   70SAPC  H10S 6028   6.414   3.980   2.985 -0.6962  1.0218 -0.5033
   70SAPC  C211 6029   6.378   3.908   3.172 -0.1692  0.0010 -0.0738
   70SAPC  H11R 6030   6.412   3.815   3.124 -0.8443  0.1774 -0.9273
   70SAPC  C212 6031   6.367   3.923   3.305  0.2461 -0.2007 -0.8307
   70SAPC  H12R 6032   6.422   3.866   3.381 -3.4255  0.4360  2.6986
   70SAPC  C213 6033   6.306   4.050   3.379  0.4484 -0.2484  0.3787
   70SAPC  H13R 6034   6.221   4.012   3.439  0.0184 -0.7592 -0.5420
   70SAPC  H13S 6035   6.259   4.128   3.316  1.3885 -1.9936 -2.6726
   70SAPC  C214 6036   6.409   4.125   3.457  0.1504  0.2805 -0.0546
   70SAPC  H14R 6037   6.470   4.195   3.398 -0.3416 -0.2650 -1.2259
   70SAPC  C215 6038   6.446   4.114   3.589 -0.3747 -0.4448  0.0777
   70SAPC  H15R 6039   6.516   4.188   3.629  0.5651 -0.2700 -1.7849
   70SAPC  C216 6040   6.400   4.016   3.695  0.4932 -0.3474  0.0473
   70SAPC  H16R 6041   6.365   3.922   3.647 -2.2034 -0.5719  2.2306
   70SAPC  H16S 6042   6.309   4.055   3.745 -0.8698 -2.1850 -0.8516
   70SAPC  C217 6043   6.511   3.972   3.789  1.3166  0.1208 -0.0884
   70SAPC  H17R 6044   6.485   3.881   3.847 -0.1217 -1.0036 -2.3379
   70SAPC  H17S 6045   6.536   4.050   3.863 -1.0603 -0.7446  1.7700
   70SAPC  C218 6046   6.647   3.948   3.722  0.6907  0.7562  0.2225
   70SAPC  H18R 6047   6.688   4.045   3.687 -1.1064  1.3469 -0.3605
   70SAPC  H18S 6048   6.636   3.877   3.637  0.1433  0.9135  0.1567
   70SAPC  C219 6049   6.748   3.874   3.820  0.5631 -0.2677 -0.4055
   70SAPC  H19R 6050   6.744   3.919   3.922 -1.6269 -1.9794  0.3369
   70SAPC  H19S 6051   6.852   3.885   3.780  1.6241 -1.8762  1.7117
   70SAPC  C220 6052   6.728   3.721   3.840 -0.0357 -0.2343 -0.2159
   70SAPC  H20R 6053   6.811   3.681   3.902  0.0451  3.0349  2.0396
   70SAPC  H20S 6054   6.720   3.668   3.743  0.0228 -1.0640  0.2217
   70SAPC  H20T 6055   6.629   3.709   3.889 -0.4087 -1.7705 -1.2835
   70SAPC   C33 6056   7.250   3.692   2.852 -0.9170  0.5061 -0.2753
   70SAPC   H3X 6057   7.318   3.753   2.788 -1.4412  1.5000  0.0899
   70SAPC   H3Y 6058   7.293   3.591   2.862  0.8516  1.2690  0.1594
   70SAPC   C34 6059   7.271   3.754   2.993 -0.2813 -0.2468  0.8449
   70SAPC   H4X 6060   7.378   3.764   3.021  0.0471  2.4196 -1.0567
   70SAPC   H4Y 6061   7.228   3.681   3.065  0.6558 -1.5997  0.0751
   70SAPC   C35 6062   7.193   3.890   3.005 -0.2682 -0.4217 -0.7867
   70SAPC   H5X 6063   7.185   3.909   3.114 -1.2680 -1.3117 -0.6896
   70SAPC   H5Y 6064   7.089   3.890   2.966 -0.4935  0.9025 -0.2335
   70SAPC   C36 6065   7.272   4.002   2.931 -0.3462  0.4180 -0.2570
   70SAPC   H6X 6066   7.289   3.968   2.826 -4.3631  0.9135 -1.2118
   70SAPC   H6Y 6067   7.367   4.002   2.988 -0.0807 -1.1543 -0.6409
   70SAPC   C37 6068   7.210   4.137   2.934 -0.1186 -0.0335  0.0056
   70SAPC   H7X 6069   7.238   4.195   2.843  0.9104  2.7083  1.9547
   70SAPC   H7Y 6070   7.101   4.119   2.932  0.0958 -1.7193 -2.5156
   70SAPC   C38 6071   7.233   4.218   3.061  0.0589 -0.2350 -0.6155
   70SAPC   H8X 6072   7.343   4.224   3.072  0.3602 -2.8325 -1.5592
   70SAPC   H8Y 6073   7.190   4.164   3.148  2.3843 -0.7258  0.2868
   70SAPC   C39 6074   7.183   4.365   3.051  0.3944 -0.3480 -0.8992
   70SAPC   H9X 6075   7.246   4.427   2.985  1.1725  0.0160  0.1647
   70SAPC   H9Y 6076   7.190   4.417   3.148  0.6193  0.8738 -1.5557
   70SAPC  C310 6077   7.037   4.381   2.997  0.5733  0.1654 -0.2557
   70SAPC  H10X 6078   7.006   4.317   2.912 -0.1593 -0.3401  0.3793
   70SAPC  H10Y 6079   7.042   4.483   2.954  1.3707  0.3475  0.2531
   70SAPC  C311 6080   6.930   4.371   3.109  0.0125  0.0954  0.1747
   70SAPC  H11X 6081   6.958   4.446   3.187 -3.1897  2.5441 -0.7832
   70SAPC  H11Y 6082   6.952   4.271   3.153 -0.6274 -0.4830 -0.7903
   70SAPC  C312 6083   6.785   4.385   3.070  0.5546 -0.4201 -0.1927
   70SAPC  H12X 6084   6.778   4.312   2.986  1.1314  1.0184 -1.5561
   70SAPC  H12Y 6085   6.748   4.480   3.026 -0.2831 -1.0665 -0.9341
   70SAPC  C313 6086   6.686   4.348   3.182 -0.0256  0.8981  0.0364
   70SAPC  H13X 6087   6.723   4.258   3.234 -1.9460  0.4804  0.7737
   70SAPC  H13Y 6088   6.587   4.317   3.141  1.0493 -1.6275 -0.8238
   70SAPC  C314 6089   6.654   4.461   3.283  0.1451  0.0976 -0.0279
   70SAPC  H14X 6090   6.741   4.500   3.340 -1.1289  0.8433  1.4672
   70SAPC  H14Y 6091   6.593   4.406   3.358  0.7220  0.1121  0.4621
   70SAPC  C315 6092   6.574   4.574   3.219  0.1726 -0.6364  0.7708
   70SAPC  H15X 6093   6.497   4.521   3.158 -0.9509  1.1346  0.5643
   70SAPC  H15Y 6094   6.639   4.638   3.155 -1.6261  1.0007  0.4690
   70SAPC  C316 6095   6.501   4.664   3.315  0.4548 -0.4328 -0.3440
   70SAPC  H16X 6096   6.571   4.685   3.399  0.6777 -1.0719 -0.3646
   70SAPC  H16Y 6097   6.423   4.597   3.356  0.0803 -1.2248 -2.2561
   70SAPC  C317 6098   6.428   4.787   3.261  0.1684 -0.1038 -0.4747
   70SAPC  H17X 6099   6.345   4.753   3.196 -1.5331  1.4755  0.7729
   70SAPC  H17Y 6100   6.493   4.857   3.205 -0.8919 -0.2810 -1.9824
   70SAPC  C318 6101   6.363   4.862   3.378 -0.4378 -0.0680 -0.1587
   70SAPC  H18X 6102   6.284   4.813   3.439 -0.0420  0.0436  0.4534
   70SAPC  H18Y 6103   6.329   4.957   3.333  0.8188  0.0221 -0.9893
   70SAPC  H18Z 6104   6.444   4.892   3.449 -1.1261 -0.4134  0.7875
   71SAPC     N 6105   5.041   0.392   2.181  0.4310  0.9608 -0.3456
   71SAPC   C12 6106   5.041   0.537   2.231 -0.1215 -1.0709  0.3854
   71SAPC  H12A 6107   5.137   0.565   2.272 -0.6580  0.0388  0.9471
   71SAPC  H12B 6108   4.972   0.541   2.314  0.2651 -1.5105  0.7315
   71SAPC   C13 6109   4.898   0.351   2.133 -0.1596 -0.5399 -0.1219
   71SAPC  H13A 6110   4.834   0.320   2.214 -0.4308 -2.8722 -1.1428
   71SAPC  H13B 6111   4.849   0.440   2.094 -1.9346 -1.5186 -0.2137
   71SAPC  H13C 6112   4.903   0.270   2.062 -2.9465 -1.6493  0.8113
   71SAPC   C14 6113   5.119   0.385   2.052 -0.2144 -0.3192  0.2752
   71SAPC  H14A 6114   5.096   0.300   1.989 -1.2417 -3.1541  4.1537
   71SAPC  H14B 6115   5.088   0.465   1.986 -3.8998 -3.0992 -1.8038
   71SAPC  H14C 6116   5.225   0.400   2.065 -0.2686  0.9429 -0.5229
   71SAPC   C15 6117   5.091   0.297   2.279 -0.0641 -0.1569 -0.3836
   71SAPC  H15A 6118   5.192   0.316   2.312 -0.4091  1.5305 -0.2305
   71SAPC  H15B 6119   5.031   0.286   2.368  1.7984 -0.5817  0.8975
   71SAPC  H15C 6120   5.093   0.196   2.241  1.5756 -0.6116  0.7951
   71SAPC   C11 6121   4.995   0.659   2.148 -0.5333 -0.0373  0.3101
   71SAPC  H11A 6122   5.019   0.758   2.192 -0.4897  0.8399 -1.6180
   71SAPC  H11B 6123   4.889   0.656   2.115 -0.0609 -2.1690 -1.2270
   71SAPC     P 6124   5.179   0.752   1.983  0.4353  0.4946 -0.1037
   71SAPC   O13 6125   5.311   0.683   1.999 -0.4367  0.3108 -0.1533
   71SAPC   O14 6126   5.146   0.815   1.855  0.1819 -1.0387 -0.5456
   71SAPC   O12 6127   5.063   0.658   2.019 -0.1754  0.1865 -0.1483
   71SAPC   O11 6128   5.173   0.862   2.093 -0.6205 -0.0294 -0.3905
   71SAPC    C1 6129   5.282   0.954   2.102 -0.5408  0.5138  0.1428
   71SAPC    HA 6130   5.343   0.959   2.010 -0.1432 -1.5182  0.2587
   71SAPC    HB 6131   5.244   1.059   2.105 -0.7034  0.6827 -3.8021
   71SAPC    C2 6132   5.369   0.927   2.225  0.1254  0.0947 -0.5096
   71SAPC    HS 6133   5.425   0.832   2.210 -0.0225 -0.0428 -0.1963
   71SAPC   O21 6134   5.290   0.924   2.348  0.3494  0.1248  0.8727
   71SAPC   C21 6135   5.259   0.802   2.390 -0.3128 -0.7344 -0.0363
   71SAPC   O22 6136   5.290   0.696   2.337  0.4045 -0.8129 -0.4070
   71SAPC   C22 6137   5.188   0.818   2.520  0.2724 -0.0201 -0.3592
   71SAPC   H2R 6138   5.263   0.823   2.602  0.6443  0.5268 -0.7267
   71SAPC   H2S 6139   5.138   0.917   2.520 -1.6139 -0.9276 -0.4262
   71SAPC    C3 6140   5.471   1.050   2.233 -0.1202  0.4409  0.0902
   71SAPC    HX 6141   5.411   1.142   2.246  0.1325  1.1363 -2.9056
   71SAPC    HY 6142   5.518   1.045   2.132 -0.4874  0.8364 -0.1056
   71SAPC   O31 6143   5.566   1.039   2.343 -0.0463 -0.6746 -0.2551
   71SAPC   C31 6144   5.695   1.044   2.313  0.8071 -0.4348 -0.0575
   71SAPC   O32 6145   5.739   1.060   2.202  0.3936  0.4130 -0.0059
   71SAPC   C32 6146   5.778   1.040   2.439  0.0551 -0.2225  0.0569
   71SAPC   H2X 6147   5.806   1.139   2.481  1.2619 -1.2489  1.7865
   71SAPC   H2Y 6148   5.874   0.997   2.402  0.1896  0.0453  0.0975
   71SAPC   C23 6149   5.083   0.707   2.540  0.3156 -0.5147 -0.9747
   71SAPC   H3R 6150   5.130   0.609   2.518 -0.2056 -1.1387  0.5640
   71SAPC   H3S 6151   5.009   0.731   2.460 -1.3939 -0.5990  0.5104
   71SAPC   C24 6152   5.014   0.705   2.671 -0.3658  0.3195 -0.5808
   71SAPC   H4R 6153   4.929   0.635   2.670  0.0768 -0.2196 -0.7252
   71SAPC   H4S 6154   4.964   0.804   2.681 -1.2655 -0.1307 -0.5807
   71SAPC   C25 6155   5.106   0.685   2.785 -0.3379  0.4787 -0.1081
   71SAPC   H5R 6156   5.144   0.587   2.817 -1.2822 -0.8895 -2.8800
   71SAPC   C26 6157   5.155   0.781   2.869  0.8141  0.4334 -0.1968
   71SAPC   H6R 6158   5.235   0.750   2.937  0.8096 -0.2152 -0.4764
   71SAPC   C27 6159   5.115   0.928   2.877 -0.2534  0.7942 -0.0697
   71SAPC   H7R 6160   5.047   0.944   2.964  1.1670 -3.0195  1.9649
   71SAPC   H7S 6161   5.063   0.959   2.784 -2.0665 -1.3087  0.1426
   71SAPC   C28 6162   5.243   1.003   2.875  0.5409 -0.1628  0.5635
   71SAPC   H8R 6163   5.280   1.013   2.771 -1.9113 -1.1384 -0.4730
   71SAPC   C29 6164   5.292   1.082   2.968  0.2313  0.1445 -0.7122
   71SAPC   H9R 6165   5.397   1.113   2.964  0.3036  0.1348  0.6624
   71SAPC  C210 6166   5.220   1.101   3.103  0.1897  0.0456  0.0043
   71SAPC  H10R 6167   5.296   1.128   3.179 -0.2263  1.1685  0.0461
   71SAPC  H10S 6168   5.170   1.006   3.132  1.1014 -0.1876  0.8689
   71SAPC  C211 6169   5.105   1.201   3.102  0.3723 -0.0941  0.6389
   71SAPC  H11R 6170   5.056   1.204   3.004 -1.0520  1.2071  1.3568
   71SAPC  C212 6171   5.069   1.268   3.214  0.4332  0.0924  0.6642
   71SAPC  H12R 6172   4.987   1.341   3.200 -0.5434 -1.2217 -0.8060
   71SAPC  C213 6173   5.120   1.264   3.353  0.3436 -0.8940 -0.2459
   71SAPC  H13R 6174   5.104   1.363   3.401 -0.4159 -1.1041 -0.0577
   71SAPC  H13S 6175   5.231   1.255   3.343  0.2642 -0.3355 -1.8762
   71SAPC  C214 6176   5.077   1.146   3.435 -0.3081 -0.4852  0.3175
   71SAPC  H14R 6177   5.025   1.067   3.380 -0.2343  0.2519 -0.8445
   71SAPC  C215 6178   5.064   1.138   3.569 -0.8582  0.9482  0.5478
   71SAPC  H15R 6179   5.030   1.043   3.613  2.4564  0.1846  1.7707
   71SAPC  C216 6180   5.131   1.230   3.672  0.3523 -0.4950  0.1070
   71SAPC  H16R 6181   5.172   1.324   3.628 -0.4049  0.4107  1.2736
   71SAPC  H16S 6182   5.228   1.185   3.703  0.7187 -2.2520 -3.1748
   71SAPC  C217 6183   5.042   1.261   3.795  0.2646  0.3456  0.2883
   71SAPC  H17R 6184   5.058   1.169   3.855  1.7672  0.5950  0.3216
   71SAPC  H17S 6185   4.932   1.268   3.784  0.4095  1.8861 -0.3767
   71SAPC  C218 6186   5.093   1.389   3.855  0.8234 -0.6657  0.3583
   71SAPC  H18R 6187   5.096   1.469   3.778  0.1047  0.1228  1.1323
   71SAPC  H18S 6188   5.201   1.376   3.879  0.4258 -1.8051  1.6661
   71SAPC  C219 6189   5.019   1.430   3.978 -0.5045  0.1803  0.0105
   71SAPC  H19R 6190   4.916   1.462   3.951 -0.0525  0.9361 -0.8859
   71SAPC  H19S 6191   5.070   1.517   4.025  1.1674  0.4103 -2.0917
   71SAPC  C220 6192   5.011   1.325   4.092 -0.6455  0.2006  0.7221
   71SAPC  H20R 6193   4.988   1.379   4.186 -0.3245  1.1816  0.2480
   71SAPC  H20S 6194   5.106   1.270   4.113  0.2913  1.0104 -1.1226
   71SAPC  H20T 6195   4.930   1.252   4.070 -0.3903  0.6737 -2.3283
   71SAPC   C33 6196   5.729   0.961   2.564  0.1913 -0.0313 -0.5190
   71SAPC   H3X 6197   5.647   1.018   2.613  0.1478  0.8577 -1.5783
   71SAPC   H3Y 6198   5.814   0.957   2.634  1.3591 -1.2985 -1.9392
   71SAPC   C34 6199   5.681   0.821   2.532 -0.5095  0.1674  0.6182
   71SAPC   H4X 6200   5.761   0.752   2.498 -1.5249 -1.4945  1.4999
   71SAPC   H4Y 6201   5.615   0.815   2.443 -3.1078 -0.0671  2.4710
   71SAPC   C35 6202   5.614   0.756   2.649  0.3515  0.2061 -0.7521
   71SAPC   H5X 6203   5.518   0.808   2.667  0.5392  0.8079 -1.4598
   71SAPC   H5Y 6204   5.675   0.757   2.742  0.0162  1.6359 -0.5243
   71SAPC   C36 6205   5.573   0.614   2.613 -0.3371  0.0227  0.5028
   71SAPC   H6X 6206   5.661   0.553   2.586 -1.4061 -1.2404 -0.2163
   71SAPC   H6Y 6207   5.506   0.624   2.525  3.2448  1.3275 -2.3142
   71SAPC   C37 6208   5.501   0.537   2.721  0.6111  0.1941  0.6041
   71SAPC   H7X 6209   5.490   0.430   2.696 -0.0298 -0.2374  2.6073
   71SAPC   H7Y 6210   5.397   0.573   2.736  0.2849 -0.8875  1.0284
   71SAPC   C38 6211   5.573   0.538   2.852 -0.1864  1.0692 -0.4012
   71SAPC   H8X 6212   5.571   0.641   2.893 -3.5505  0.8869  0.2485
   71SAPC   H8Y 6213   5.679   0.510   2.835 -0.1119  0.5618  0.7884
   71SAPC   C39 6214   5.507   0.439   2.951 -0.4265 -0.3799 -0.0135
   71SAPC   H9X 6215   5.510   0.335   2.913  0.1281 -0.4911  0.3103
   71SAPC   H9Y 6216   5.399   0.464   2.952 -0.3334  0.7875 -4.0165
   71SAPC  C310 6217   5.556   0.445   3.098 -0.3350 -0.3463  0.5293
   71SAPC  H10X 6218   5.666   0.432   3.103 -0.3927 -1.2883 -0.3744
   71SAPC  H10Y 6219   5.519   0.350   3.142  1.6107 -1.5743 -0.3386
   71SAPC  C311 6220   5.507   0.562   3.180 -0.6500  0.6644  0.5395
   71SAPC  H11X 6221   5.398   0.544   3.198  0.0178 -1.9420  2.7442
   71SAPC  H11Y 6222   5.513   0.656   3.121  1.5472  0.2009 -0.0466
   71SAPC  C312 6223   5.575   0.595   3.315 -0.3368  0.1133 -1.1283
   71SAPC  H12X 6224   5.520   0.675   3.369  0.0327 -0.2149 -0.2394
   71SAPC  H12Y 6225   5.675   0.640   3.292 -0.4812  0.1616 -1.6805
   71SAPC  C313 6226   5.597   0.465   3.403  0.3045 -0.4424  0.1673
   71SAPC  H13X 6227   5.648   0.399   3.329 -0.5285  0.0559 -0.8881
   71SAPC  H13Y 6228   5.501   0.418   3.434 -0.6350  0.5137 -1.1570
   71SAPC  C314 6229   5.695   0.484   3.518 -0.4310 -0.5554 -0.7639
   71SAPC  H14X 6230   5.798   0.482   3.477 -0.9691 -0.1741 -2.2026
   71SAPC  H14Y 6231   5.677   0.403   3.592 -0.2468  0.4547  0.4252
   71SAPC  C315 6232   5.663   0.610   3.596  0.1001  0.1069 -0.3722
   71SAPC  H15X 6233   5.556   0.625   3.622  0.4145 -1.7175  2.4019
   71SAPC  H15Y 6234   5.701   0.695   3.535  0.4172  0.7645  0.7131
   71SAPC  C316 6235   5.729   0.607   3.727 -0.3810  0.0517  0.3802
   71SAPC  H16X 6236   5.837   0.579   3.720 -0.1091  1.1822 -0.3078
   71SAPC  H16Y 6237   5.670   0.540   3.793  0.3133  1.4811  2.5568
   71SAPC  C317 6238   5.710   0.734   3.791  0.5812  0.1815  0.5536
   71SAPC  H17X 6239   5.606   0.767   3.811  0.1665 -2.4380  3.3810
   71SAPC  H17Y 6240   5.745   0.813   3.721  0.8003 -1.2959 -1.0760
   71SAPC  C318 6241   5.796   0.735   3.921  0.0519 -0.0297  0.1846
   71SAPC  H18X 6242   5.756   0.665   3.998  2.4074 -1.1123  0.5210
   71SAPC  H18Y 6243   5.805   0.840   3.956  1.1153  0.6782 -2.0123
   71SAPC  H18Z 6244   5.898   0.698   3.898  0.0221 -0.4365  0.6669
   72SAPC     N 6245   4.893   7.032   1.711 -0.3393 -0.4846  0.4988
   72SAPC   C12 6246   4.929   7.126   1.829 -0.1028  0.6984  0.1678
   72SAPC  H12A 6247   4.838   7.172   1.862  0.3587  2.2492 -0.6366
   72SAPC  H12B 6248   4.986   7.208   1.788  0.8153 -0.3071 -0.6461
   72SAPC   C13 6249   5.007   6.990   1.632 -0.4522  0.1523 -0.1979
   72SAPC  H13A 6250   5.021   7.049   1.542 -0.4977 -0.8657 -0.8897
   72SAPC  H13B 6251   5.093   6.992   1.697 -0.0089 -2.2387 -0.6003
   72SAPC  H13C 6252   5.001   6.888   1.596  0.9965  0.2815 -0.8522
   72SAPC   C14 6253   4.807   6.926   1.764 -0.0947  0.0549 -0.3224
   72SAPC  H14A 6254   4.716   6.962   1.810 -0.4005  1.9271 -2.2434
   72SAPC  H14B 6255   4.785   6.848   1.694 -1.2092  0.3113 -0.2717
   72SAPC  H14C 6256   4.867   6.877   1.839 -0.2882 -1.0121 -0.8501
   72SAPC   C15 6257   4.800   7.118   1.617  0.2790 -0.1580 -0.1001
   72SAPC  H15A 6258   4.860   7.198   1.576  0.0659 -0.7082 -1.5509
   72SAPC  H15B 6259   4.770   7.068   1.526  1.3966 -1.0496  0.0021
   72SAPC  H15C 6260   4.713   7.155   1.669 -2.0156 -4.7141 -0.2204
   72SAPC   C11 6261   4.991   7.071   1.963 -0.1885 -0.3426  0.2026
   72SAPC  H11A 6262   4.922   6.993   2.001 -1.3328  0.8604  0.6583
   72SAPC  H11B 6263   4.990   7.145   2.045 -0.5732  1.2369 -1.1733
   72SAPC     P 6264   5.256   7.104   1.951  0.0248  0.1850 -0.2134
   72SAPC   O13 6265   5.374   7.014   1.937 -0.2835  0.6885  0.2943
   72SAPC   O14 6266   5.253   7.239   1.889  0.5529 -0.4058  0.3113
   72SAPC   O12 6267   5.123   7.015   1.928  0.8432 -0.0493 -0.2492
   72SAPC   O11 6268   5.238   7.143   2.100 -0.0525  0.0933 -0.2709
   72SAPC    C1 6269   5.319   7.081   2.204 -0.0123  0.4126  0.0685
   72SAPC    HA 6270   5.262   7.101   2.298  0.0960  2.8109 -0.3173
   72SAPC    HB 6271   5.339   6.974   2.184 -0.2771  0.3899 -0.0832
   72SAPC    C2 6272   5.456   7.140   2.234 -0.6793 -0.4147 -0.3755
   72SAPC    HS 6273   5.515   7.129   2.141 -0.0814  0.2794 -0.0855
   72SAPC   O21 6274   5.520   7.047   2.329  0.2345 -0.2211  0.2621
   72SAPC   C21 6275   5.651   7.040   2.321  0.2122 -0.0154  0.1994
   72SAPC   O22 6276   5.718   7.110   2.251  0.1596  0.1909 -0.0728
   72SAPC   C22 6277   5.713   6.917   2.397  0.3958  0.1730 -0.5937
   72SAPC   H2R 6278   5.665   6.914   2.497  0.4137 -1.3831 -0.5965
   72SAPC   H2S 6279   5.696   6.833   2.326  0.6706 -0.4820  0.1028
   72SAPC    C3 6280   5.450   7.278   2.296 -0.4437 -0.0461 -1.2912
   72SAPC    HX 6281   5.399   7.345   2.224 -0.4301  1.3003 -0.0990
   72SAPC    HY 6282   5.553   7.318   2.309 -0.8274  0.3488  0.9910
   72SAPC   O31 6283   5.374   7.273   2.427  0.3864 -0.2037  0.3659
   72SAPC   C31 6284   5.457   7.263   2.530  0.9813 -0.0126 -0.2612
   72SAPC   O32 6285   5.570   7.289   2.532 -0.0652  0.1472 -0.0592
   72SAPC   C32 6286   5.388   7.216   2.655 -0.6138 -0.0404  0.3204
   72SAPC   H2X 6287   5.284   7.180   2.644 -0.2218 -0.9815 -0.4581
   72SAPC   H2Y 6288   5.387   7.305   2.722  0.1064  0.7941 -0.7364
   72SAPC   C23 6289   5.873   6.928   2.416 -0.8415 -0.3307 -0.0246
   72SAPC   H3R 6290   5.919   7.000   2.343  1.6089  0.6100  2.2741
   72SAPC   H3S 6291   5.921   6.828   2.411  1.4838  0.6753  0.7208
   72SAPC   C24 6292   5.907   6.997   2.552  0.4407 -0.0269  0.4839
   72SAPC   H4R 6293   6.018   7.003   2.555  0.4661 -0.0885 -0.1208
   72SAPC   H4S 6294   5.881   6.916   2.623 -0.5752 -0.1402  0.0033
   72SAPC   C25 6295   5.833   7.120   2.592  0.3312 -0.8240  0.3805
   72SAPC   H5R 6296   5.757   7.157   2.522 -2.1620 -0.7183  2.9692
   72SAPC   C26 6297   5.865   7.185   2.710  0.1472  0.8493 -0.1364
   72SAPC   H6R 6298   5.804   7.273   2.732  0.6518  1.1959 -0.1009
   72SAPC   C27 6299   5.968   7.133   2.808 -0.5368 -1.0197 -0.3311
   72SAPC   H7R 6300   6.016   7.038   2.778 -1.0576 -1.6187  0.6836
   72SAPC   H7S 6301   5.916   7.096   2.899  0.1124 -1.4385 -0.1292
   72SAPC   C28 6302   6.062   7.243   2.844  0.0261  0.5364 -0.7912
   72SAPC   H8R 6303   6.151   7.253   2.780  0.6731 -1.9109 -0.3743
   72SAPC   C29 6304   6.053   7.326   2.949 -0.4515  0.4648  0.2409
   72SAPC   H9R 6305   6.120   7.411   2.967  0.2378 -0.4420  2.2113
   72SAPC  C210 6306   5.927   7.323   3.032  0.8626 -0.1846 -1.0507
   72SAPC  H10R 6307   5.843   7.275   2.976 -1.6549  1.2165  1.2671
   72SAPC  H10S 6308   5.885   7.425   3.042  1.4327 -0.0563  0.1101
   72SAPC  C211 6309   5.960   7.255   3.161 -0.0853  0.1840 -0.4086
   72SAPC  H11R 6310   6.043   7.303   3.216 -0.7640 -1.1945  1.9593
   72SAPC  C212 6311   5.893   7.149   3.213  0.2332 -0.7451 -0.5895
   72SAPC  H12R 6312   5.956   7.091   3.283 -0.0395  2.1415  2.3102
   72SAPC  C213 6313   5.775   7.089   3.147  0.2341 -0.1056  0.3467
   72SAPC  H13R 6314   5.820   7.027   3.066  2.1107  1.2762  0.2726
   72SAPC  H13S 6315   5.717   7.170   3.098 -0.3326  0.3765  1.7787
   72SAPC  C214 6316   5.677   6.999   3.212  0.7800 -0.2133 -0.6487
   72SAPC  H14R 6317   5.664   6.903   3.160 -0.2772 -1.1761  1.2826
   72SAPC  C215 6318   5.605   7.017   3.324 -0.7873 -0.2231  0.2086
   72SAPC  H15R 6319   5.544   6.930   3.353 -0.3013 -0.1489  1.4883
   72SAPC  C216 6320   5.596   7.140   3.413  0.0543 -0.0859 -0.4651
   72SAPC  H16R 6321   5.491   7.160   3.443  0.3273 -1.9337  2.0077
   72SAPC  H16S 6322   5.633   7.228   3.356  1.7370 -0.9782 -0.8110
   72SAPC  C217 6323   5.671   7.144   3.552 -0.0501 -0.5979  0.3811
   72SAPC  H17R 6324   5.676   7.247   3.595 -2.3438  0.3376 -1.3479
   72SAPC  H17S 6325   5.773   7.111   3.522  0.1445 -0.1523  0.5419
   72SAPC  C218 6326   5.608   7.059   3.663  0.5423  0.5242  0.3212
   72SAPC  H18R 6327   5.686   7.064   3.741  2.4011 -1.9530 -1.2348
   72SAPC  H18S 6328   5.597   6.954   3.627  1.1376  0.1157  1.3171
   72SAPC  C219 6329   5.463   7.095   3.695 -0.5564 -0.2395 -0.0814
   72SAPC  H19R 6330   5.443   7.036   3.787 -1.4319 -1.3492 -0.9570
   72SAPC  H19S 6331   5.382   7.061   3.626 -2.0824  2.6133  0.1916
   72SAPC  C220 6332   5.432   7.245   3.721 -0.1513  0.3770  0.4791
   72SAPC  H20R 6333   5.323   7.250   3.737 -0.5635  0.6404 -2.0259
   72SAPC  H20S 6334   5.460   7.303   3.630  0.1609  0.0001  0.3293
   72SAPC  H20T 6335   5.495   7.281   3.806  1.5750  0.4320 -0.7513
   72SAPC   C33 6336   5.478   7.111   2.726 -0.1075 -0.7039 -0.5852
   72SAPC   H3X 6337   5.583   7.142   2.739 -0.2751 -0.8712  1.5341
   72SAPC   H3Y 6338   5.487   7.024   2.657  0.5225 -1.4857  0.4699
   72SAPC   C34 6339   5.423   7.058   2.861 -0.1746 -0.4085  0.2241
   72SAPC   H4X 6340   5.502   6.993   2.903  1.8858  1.3881 -0.7005
   72SAPC   H4Y 6341   5.329   7.003   2.839  0.5561 -1.1589 -1.1017
   72SAPC   C35 6342   5.388   7.165   2.975 -0.2914  0.2457 -0.0871
   72SAPC   H5X 6343   5.310   7.236   2.939 -1.0639  0.2066  1.4235
   72SAPC   H5Y 6344   5.477   7.226   2.999 -0.1647  0.1452 -0.2951
   72SAPC   C36 6345   5.323   7.113   3.102  0.6621  0.3576  0.1941
   72SAPC   H6X 6346   5.376   7.024   3.144  0.0073  0.4417  1.2299
   72SAPC   H6Y 6347   5.220   7.078   3.078  0.9281 -0.1355 -0.2433
   72SAPC   C37 6348   5.300   7.223   3.200  0.2414  0.0289 -0.6168
   72SAPC   H7X 6349   5.248   7.306   3.147 -1.4628 -1.6844 -1.7815
   72SAPC   H7Y 6350   5.391   7.260   3.251  0.5081 -1.5850  0.1517
   72SAPC   C38 6351   5.209   7.181   3.318 -0.6988 -0.1221 -0.3527
   72SAPC   H8X 6352   5.258   7.107   3.385 -0.8408  1.2424  1.2994
   72SAPC   H8Y 6353   5.122   7.137   3.264  0.7675  0.9265 -3.8340
   72SAPC   C39 6354   5.178   7.297   3.414 -0.3441 -0.1991 -0.1194
   72SAPC   H9X 6355   5.156   7.387   3.354 -0.0186  0.3732  0.5997
   72SAPC   H9Y 6356   5.269   7.316   3.475 -2.2233  0.5097  2.6725
   72SAPC  C310 6357   5.075   7.284   3.519 -0.4568 -0.0974 -0.2103
   72SAPC  H10X 6358   5.102   7.216   3.603  0.2774 -0.5114 -0.7668
   72SAPC  H10Y 6359   4.985   7.245   3.467  0.3127  1.3343 -2.7896
   72SAPC  C311 6360   5.035   7.417   3.585 -0.2829 -0.1458 -0.4576
   72SAPC  H11X 6361   5.007   7.490   3.506 -2.4878  0.3162  0.6667
   72SAPC  H11Y 6362   5.118   7.447   3.652 -0.2288 -0.7348 -0.2604
   72SAPC  C312 6363   4.918   7.398   3.682  0.2424 -0.3410 -0.4589
   72SAPC  H12X 6364   4.953   7.325   3.758 -0.3235  1.1407  1.3080
   72SAPC  H12Y 6365   4.828   7.372   3.623  1.0037 -2.0961 -0.8798
   72SAPC  C313 6366   4.884   7.520   3.769 -0.3276 -0.0563 -0.8050
   72SAPC  H13X 6367   4.969   7.579   3.810 -1.1084 -1.0984  2.6245
   72SAPC  H13Y 6368   4.821   7.475   3.848  0.8180  1.3346  0.9909
   72SAPC  C314 6369   4.791   7.610   3.692  0.4661  0.1428 -0.3397
   72SAPC  H14X 6370   4.690   7.566   3.683  0.7033 -1.2070  2.4668
   72SAPC  H14Y 6371   4.839   7.629   3.594  3.1168  0.2555  0.8647
   72SAPC  C315 6372   4.772   7.752   3.754  0.1051 -0.1296 -0.6151
   72SAPC  H15X 6373   4.707   7.806   3.682  0.1501  0.6986 -0.0468
   72SAPC  H15Y 6374   4.871   7.802   3.746 -0.1749  0.8077  1.2847
   72SAPC  C316 6375   4.712   7.761   3.889 -0.2512 -0.9903 -0.4206
   72SAPC  H16X 6376   4.764   7.713   3.974 -0.4561 -0.4266  0.0311
   72SAPC  H16Y 6377   4.611   7.715   3.890 -0.0497 -1.4382  0.7630
   72SAPC  C317 6378   4.688   7.906   3.938  0.5922  0.3490 -0.0966
   72SAPC  H17X 6379   4.642   7.909   4.039 -0.9820  0.2009 -0.7924
   72SAPC  H17Y 6380   4.617   7.953   3.867  0.0649  1.3683  1.0763
   72SAPC  C318 6381   4.816   8.001   3.937  0.4278  0.0945 -0.2119
   72SAPC  H18X 6382   4.788   8.108   3.940 -0.8262 -0.2308  0.9668
   72SAPC  H18Y 6383   4.884   7.980   3.852 -0.0930 -0.1314 -0.5786
   72SAPC  H18Z 6384   4.876   7.981   4.029  1.4953 -0.3661 -0.9862
   73SLPC     N 6385   4.148   3.782   5.862  0.0655  0.3058 -0.0875
   73SLPC   C13 6386   4.244   3.789   5.977 -0.0585  0.1431 -0.5216
   73SLPC  H13A 6387   4.196   3.825   6.066 -2.4149 -0.3800 -1.5132
   73SLPC  H13B 6388   4.301   3.699   6.000  0.7376  1.2105  2.1088
   73SLPC  H13C 6389   4.324   3.857   5.952 -0.8181  0.9989 -0.6689
   73SLPC   C14 6390   4.080   3.916   5.837 -0.7397  0.3708 -0.4568
   73SLPC  H14A 6391   4.029   3.947   5.927 -1.5137 -0.0475 -0.7484
   73SLPC  H14B 6392   4.162   3.977   5.800  0.6788 -1.4465 -0.4339
   73SLPC  H14C 6393   4.018   3.890   5.753  1.3297  1.4476 -2.4245
   73SLPC   C15 6394   4.041   3.684   5.902 -0.2623  0.1270 -0.3449
   73SLPC  H15A 6395   3.980   3.740   5.971  1.6478  3.6147 -1.2475
   73SLPC  H15B 6396   3.982   3.646   5.821  1.6615 -0.5408 -1.4970
   73SLPC  H15C 6397   4.078   3.593   5.948 -0.0929 -0.0520 -0.8366
   73SLPC   C12 6398   4.217   3.731   5.740  0.0772 -0.1875 -0.7894
   73SLPC  H12A 6399   4.140   3.708   5.669 -0.1308 -0.0239 -0.6197
   73SLPC  H12B 6400   4.260   3.636   5.767 -1.9066 -0.9150 -0.0667
   73SLPC   C11 6401   4.312   3.825   5.657 -0.3973  0.5595  0.6980
   73SLPC  H11A 6402   4.358   3.774   5.570 -3.7437 -0.6727 -0.5011
   73SLPC  H11B 6403   4.393   3.851   5.728  0.5178  0.1678 -0.1835
   73SLPC     P 6404   4.319   4.086   5.588  0.0461  0.4455 -0.3383
   73SLPC   O13 6405   4.222   4.191   5.621  0.7638  0.0273  0.0787
   73SLPC   O14 6406   4.438   4.088   5.676 -0.2920 -0.0977 -0.3299
   73SLPC   O12 6407   4.249   3.943   5.602 -0.4971 -0.0212  0.0142
   73SLPC   O11 6408   4.351   4.091   5.437 -0.0417 -0.4825  0.6247
   73SLPC    C1 6409   4.433   3.997   5.357 -0.1912 -0.0123 -1.7693
   73SLPC    HA 6410   4.418   3.894   5.397  2.2309  0.4868  0.7205
   73SLPC    HB 6411   4.407   4.001   5.249  0.8116  1.7512 -1.9819
   73SLPC    C2 6412   4.590   3.996   5.375  0.1873  0.2937  0.2922
   73SLPC    HS 6413   4.604   4.002   5.485 -2.0767 -0.9300  0.7016
   73SLPC   O21 6414   4.641   4.102   5.308 -0.5849 -0.4311 -0.7519
   73SLPC   C21 6415   4.768   4.138   5.334  0.3499 -0.1729 -0.0410
   73SLPC   O22 6416   4.843   4.080   5.409 -0.8330 -0.5855 -0.4387
   73SLPC   C22 6417   4.803   4.267   5.259  0.2350  0.8769  0.0752
   73SLPC   H2R 6418   4.739   4.340   5.314  0.7291 -0.4108  2.5276
   73SLPC   H2S 6419   4.913   4.278   5.272  0.8350 -0.2582 -3.2367
   73SLPC    C3 6420   4.660   3.861   5.330  0.0352 -0.4934  0.0366
   73SLPC    HX 6421   4.636   3.794   5.416 -1.7441  0.6760  0.5256
   73SLPC    HY 6422   4.770   3.876   5.326  0.1882 -1.6654 -0.9683
   73SLPC   O31 6423   4.608   3.817   5.209  0.1374  0.0738 -0.4311
   73SLPC   C31 6424   4.673   3.862   5.097 -0.7502  0.0815  0.5044
   73SLPC   O32 6425   4.779   3.922   5.093  0.3418  0.1701  0.1373
   73SLPC   C32 6426   4.599   3.816   4.971 -1.1818 -0.0618 -0.4654
   73SLPC   H2X 6427   4.511   3.753   4.996 -0.9460 -0.0582  0.4065
   73SLPC   H2Y 6428   4.667   3.745   4.918 -0.8242  0.9017 -1.3362
   73SLPC   C23 6429   4.760   4.262   5.111 -0.2511 -0.1763 -0.3308
   73SLPC   H3R 6430   4.665   4.203   5.104 -0.8424  0.6508  0.5331
   73SLPC   H3S 6431   4.837   4.223   5.041 -1.9174  1.3758 -3.2439
   73SLPC   C24 6432   4.722   4.403   5.047 -0.1207 -0.1579 -0.0723
   73SLPC   H4R 6433   4.801   4.476   5.076  0.8076 -1.5608  1.0478
   73SLPC   H4S 6434   4.629   4.434   5.098 -0.0987 -0.5666  0.2186
   73SLPC   C25 6435   4.694   4.396   4.896 -0.8089 -0.4756 -0.3312
   73SLPC   H5R 6436   4.613   4.467   4.871 -0.9423 -0.6249 -0.3254
   73SLPC   H5S 6437   4.658   4.291   4.883 -1.2295 -0.3309 -0.3308
   73SLPC   C26 6438   4.815   4.440   4.808 -0.3035 -0.2002 -0.2669
   73SLPC   H6R 6439   4.896   4.365   4.818  1.6748  1.4923 -2.4702
   73SLPC   H6S 6440   4.849   4.538   4.849  0.6458 -1.7249  2.9010
   73SLPC   C27 6441   4.784   4.443   4.655 -0.0725 -0.5972 -0.3190
   73SLPC   H7R 6442   4.883   4.473   4.613  0.6780 -0.9345  1.1529
   73SLPC   H7S 6443   4.718   4.530   4.635  1.3662  0.6744  0.2092
   73SLPC   C28 6444   4.724   4.313   4.594 -0.7774  0.2738  0.0402
   73SLPC   H8R 6445   4.717   4.332   4.485 -0.1349  0.3213  0.0050
   73SLPC   H8S 6446   4.626   4.281   4.637  0.0215 -2.3802  0.0799
   73SLPC   C29 6447   4.819   4.194   4.616 -0.1920  0.1361 -0.5458
   73SLPC   H9R 6448   4.868   4.186   4.714 -4.4109  0.7520  1.8696
   73SLPC  C210 6449   4.861   4.116   4.512 -0.2744 -0.2039 -0.3032
   73SLPC  H10R 6450   4.940   4.046   4.544  1.4715  1.2629 -1.1822
   73SLPC  C211 6451   4.831   4.114   4.366  0.0446  0.4548  0.2489
   73SLPC  H11R 6452   4.730   4.160   4.364 -0.2594 -0.2131 -0.0605
   73SLPC  H11S 6453   4.815   4.011   4.326  1.0043  0.7429 -0.9307
   73SLPC  C212 6454   4.941   4.185   4.290 -0.4241  0.0892 -0.6728
   73SLPC  H12R 6455   4.942   4.294   4.305 -0.3689 -0.0873  0.7308
   73SLPC  C213 6456   5.009   4.135   4.184  0.5756 -0.5300  0.5864
   73SLPC  H13R 6457   5.083   4.199   4.134  1.6988 -2.3118 -0.1398
   73SLPC  C214 6458   5.004   3.994   4.135  0.2329  0.3139 -0.4827
   73SLPC  H14R 6459   4.949   3.926   4.204  0.3920  2.0212  1.4171
   73SLPC  H14S 6460   5.108   3.957   4.131 -0.1344 -0.7981 -0.3051
   73SLPC  C215 6461   4.943   3.965   3.995 -0.0870  0.1241 -0.5909
   73SLPC  H15R 6462   4.975   4.043   3.923 -0.9476  2.5111  1.4696
   73SLPC  H15S 6463   4.833   3.979   4.009 -0.2508 -1.6090  0.1189
   73SLPC  C216 6464   4.967   3.820   3.945 -0.3979 -0.6771  0.7726
   73SLPC  H16R 6465   4.961   3.762   4.039 -2.1449  1.0395  1.7918
   73SLPC  H16S 6466   5.067   3.810   3.896  0.2662 -3.5391  2.5011
   73SLPC  C217 6467   4.862   3.773   3.839 -0.3832 -0.4109 -0.1142
   73SLPC  H17R 6468   4.849   3.844   3.755  2.0274 -0.0110 -0.2303
   73SLPC  H17S 6469   4.767   3.760   3.895  0.2648 -1.0046  0.8940
   73SLPC  C218 6470   4.886   3.638   3.770  0.3863 -0.2595 -0.4187
   73SLPC  H18R 6471   4.982   3.630   3.715  0.1163 -1.0266 -0.7936
   73SLPC  H18S 6472   4.804   3.618   3.697  0.5808 -1.3279 -0.3679
   73SLPC  H18T 6473   4.888   3.555   3.843  1.4603  0.9791  1.0216
   73SLPC   C33 6474   4.562   3.920   4.860  0.2790 -0.2353  0.4533
   73SLPC   H3X 6475   4.544   3.867   4.765  1.3973  2.0254 -1.1113
   73SLPC   H3Y 6476   4.656   3.976   4.840  0.6386 -0.3275  1.7763
   73SLPC   C34 6477   4.455   4.026   4.905 -0.3805  0.6559  0.3390
   73SLPC   H4X 6478   4.499   4.084   4.989 -1.7749  1.1850  0.7287
   73SLPC   H4Y 6479   4.367   3.984   4.957  1.5098 -2.7282  1.0739
   73SLPC   C35 6480   4.418   4.115   4.784 -0.2725  0.0346  0.4193
   73SLPC   H5X 6481   4.507   4.137   4.721 -1.0562 -0.6242 -0.9575
   73SLPC   H5Y 6482   4.390   4.210   4.835 -2.2525 -1.1334  1.6136
   73SLPC   C36 6483   4.304   4.070   4.683  0.0713 -0.0965  0.2120
   73SLPC   H6X 6484   4.235   4.152   4.655 -1.9421 -1.5918  0.5527
   73SLPC   H6Y 6485   4.238   4.004   4.744  1.4095 -1.1984  0.5345
   73SLPC   C37 6486   4.357   4.017   4.548  0.1424  0.5008 -0.7965
   73SLPC   H7X 6487   4.423   3.934   4.581  1.0978  1.6025  0.1868
   73SLPC   H7Y 6488   4.423   4.094   4.503  0.4660 -1.6228 -4.3230
   73SLPC   C38 6489   4.239   3.971   4.468 -0.0665 -0.1707  0.0323
   73SLPC   H8X 6490   4.146   3.983   4.529  0.3531  0.0835  0.6381
   73SLPC   H8Y 6491   4.249   3.861   4.459 -1.0434 -0.3135  0.5101
   73SLPC   C39 6492   4.220   4.052   4.340  0.7085  0.7313  0.0915
   73SLPC   H9X 6493   4.155   3.992   4.272 -0.9909 -0.0388  2.2994
   73SLPC   H9Y 6494   4.321   4.068   4.296  1.8125  0.3118  2.3377
   73SLPC  C310 6495   4.141   4.179   4.374  0.2873 -0.5187  0.2756
   73SLPC  H10X 6496   4.198   4.260   4.425 -1.4811  2.1080 -1.6396
   73SLPC  H10Y 6497   4.055   4.159   4.441  0.5578  1.2267  1.1962
   73SLPC  C311 6498   4.089   4.233   4.236 -0.0574  0.7012 -0.7045
   73SLPC  H11X 6499   4.054   4.149   4.172  2.2919  0.9543 -2.4327
   73SLPC  H11Y 6500   4.180   4.262   4.179  0.7645 -0.5056 -0.0737
   73SLPC  C312 6501   4.000   4.354   4.242  0.5288  0.2453  0.3307
   73SLPC  H12X 6502   3.999   4.394   4.138  3.9164 -1.9672 -0.7599
   73SLPC  H12Y 6503   4.035   4.438   4.305  2.7336 -0.7221  0.5267
   73SLPC  C313 6504   3.851   4.319   4.270 -0.1557  0.3388  0.3394
   73SLPC  H13X 6505   3.854   4.274   4.372  1.5459 -1.2797 -0.3644
   73SLPC  H13Y 6506   3.821   4.241   4.197  0.3540  1.5633 -1.2246
   73SLPC  C314 6507   3.741   4.434   4.264  0.0673 -0.3785  0.6625
   73SLPC  H14X 6508   3.643   4.392   4.296  0.9450 -1.1395  2.4672
   73SLPC  H14Y 6509   3.734   4.457   4.155 -1.4378 -0.5956  0.6925
   73SLPC  C315 6510   3.786   4.555   4.346  0.0914 -1.0580 -0.3739
   73SLPC  H15X 6511   3.893   4.581   4.331  0.2825 -0.4045  1.7898
   73SLPC  H15Y 6512   3.763   4.518   4.448 -3.2118 -0.5099 -0.7924
   73SLPC  C316 6513   3.698   4.676   4.319 -1.0814  0.5312  0.4230
   73SLPC  H16X 6514   3.593   4.641   4.326 -0.4034 -1.2210  3.9308
   73SLPC  H16Y 6515   3.720   4.709   4.215 -0.0675  0.1872  0.5257
   73SLPC  C317 6516   3.725   4.799   4.403 -0.4174 -0.3450 -0.4548
   73SLPC  H17X 6517   3.825   4.837   4.374  0.3605 -1.1283  1.0666
   73SLPC  H17Y 6518   3.714   4.781   4.512 -1.1756  0.0597 -0.4586
   73SLPC  C318 6519   3.627   4.912   4.369 -0.8995  0.0753  0.5034
   73SLPC  H18X 6520   3.642   4.996   4.440 -1.1566  1.5961 -1.1670
   73SLPC  H18Y 6521   3.536   4.859   4.404  0.1721 -1.5500  0.9338
   73SLPC  H18Z 6522   3.629   4.953   4.266  0.3061 -1.5663 -0.1733
   74SLPC     N 6523   3.079   3.719   6.285 -0.3663 -0.1233 -0.5951
   74SLPC   C13 6524   3.179   3.810   6.211 -0.4676 -0.3407  0.4979
   74SLPC  H13A 6525   3.200   3.903   6.261  2.4557 -0.5969 -0.0538
   74SLPC  H13B 6526   3.274   3.758   6.207 -0.4221 -0.1868 -1.0020
   74SLPC  H13C 6527   3.144   3.849   6.116  1.3157  0.5654  0.1635
   74SLPC   C14 6528   2.962   3.807   6.327 -0.3338  0.7229  0.2007
   74SLPC  H14A 6529   2.991   3.877   6.405  1.8093  0.1576 -0.0101
   74SLPC  H14B 6530   2.930   3.853   6.235  0.1315  1.4117  0.3695
   74SLPC  H14C 6531   2.887   3.743   6.370 -0.7064  0.7538 -0.4041
   74SLPC   C15 6532   3.149   3.657   6.406 -0.5452 -0.2625 -0.1763
   74SLPC  H15A 6533   3.239   3.604   6.377  0.3379  1.5714 -0.9765
   74SLPC  H15B 6534   3.186   3.731   6.475 -1.0752 -1.2256  1.1800
   74SLPC  H15C 6535   3.081   3.593   6.461 -0.5481 -1.0507 -1.0603
   74SLPC   C12 6536   3.042   3.606   6.198  0.7840 -0.5709 -0.9897
   74SLPC  H12A 6537   2.982   3.538   6.257  0.1755 -1.2533 -2.3329
   74SLPC  H12B 6538   3.128   3.547   6.169  2.9054  0.8454  1.8690
   74SLPC   C11 6539   2.964   3.647   6.069 -0.1159  0.7505 -0.2742
   74SLPC  H11A 6540   2.933   3.552   6.020 -0.0918  0.0694  0.9982
   74SLPC  H11B 6541   3.019   3.708   5.994 -0.1437  1.8269  0.5693
   74SLPC     P 6542   2.709   3.638   6.115 -0.2309  0.3170 -0.2254
   74SLPC   O13 6543   2.733   3.514   6.192 -0.1732  0.1987  0.0797
   74SLPC   O14 6544   2.617   3.737   6.175  0.1456  0.2162  0.1596
   74SLPC   O12 6545   2.841   3.717   6.086  0.7806 -0.2465 -0.4917
   74SLPC   O11 6546   2.661   3.607   5.966  0.4125  0.2515 -0.1083
   74SLPC    C1 6547   2.727   3.667   5.853 -0.0433  0.9710 -0.1567
   74SLPC    HA 6548   2.838   3.657   5.851 -0.2558 -3.1576 -0.5120
   74SLPC    HB 6549   2.696   3.609   5.764 -0.6046  0.9101  0.0726
   74SLPC    C2 6550   2.684   3.813   5.836  0.8684  0.1095  0.6786
   74SLPC    HS 6551   2.734   3.873   5.915  0.2833  3.0818 -1.0785
   74SLPC   O21 6552   2.547   3.832   5.849  0.0798 -0.0696 -0.3178
   74SLPC   C21 6553   2.496   3.952   5.890  0.1849  0.3309  0.1437
   74SLPC   O22 6554   2.557   4.044   5.936 -0.5255 -0.0137  0.1711
   74SLPC   C22 6555   2.350   3.962   5.850 -0.5173  0.4863  0.2440
   74SLPC   H2R 6556   2.338   3.927   5.746 -0.9301  1.2885  0.0132
   74SLPC   H2S 6557   2.296   3.894   5.920  0.0803  0.2911  0.5145
   74SLPC    C3 6558   2.750   3.879   5.705  0.3149  0.4350 -0.1984
   74SLPC    HX 6559   2.858   3.871   5.728  0.9876  1.5639 -2.6389
   74SLPC    HY 6560   2.724   3.987   5.704  0.4412  0.4654 -1.5426
   74SLPC   O31 6561   2.725   3.807   5.583  0.2376 -0.1844  0.2090
   74SLPC   C31 6562   2.607   3.828   5.528  0.5920  0.1508 -0.1128
   74SLPC   O32 6563   2.521   3.903   5.569  0.1714 -0.3629  0.1276
   74SLPC   C32 6564   2.582   3.741   5.406 -0.1790  0.6441  0.9519
   74SLPC   H2X 6565   2.510   3.664   5.441  0.0368 -0.2030 -0.3703
   74SLPC   H2Y 6566   2.678   3.692   5.379  0.4166  1.5382  1.4013
   74SLPC   C23 6567   2.279   4.091   5.875 -0.2426 -0.2137 -0.3051
   74SLPC   H3R 6568   2.302   4.118   5.981  2.4274 -0.1684 -0.8313
   74SLPC   H3S 6569   2.171   4.073   5.855 -0.0198 -0.0498 -1.7392
   74SLPC   C24 6570   2.316   4.197   5.775 -0.3949 -0.3570  0.2151
   74SLPC   H4R 6571   2.301   4.174   5.667  1.7831  1.9121 -0.6704
   74SLPC   H4S 6572   2.426   4.213   5.788 -0.5091 -1.2362  2.8061
   74SLPC   C25 6573   2.256   4.336   5.805 -0.2412 -0.6654 -0.2773
   74SLPC   H5R 6574   2.272   4.355   5.913 -0.2610 -1.6641 -0.0927
   74SLPC   H5S 6575   2.146   4.328   5.791 -0.4967  0.5301  0.8579
   74SLPC   C26 6576   2.320   4.457   5.727  0.0758  0.8339 -0.8471
   74SLPC   H6R 6577   2.333   4.436   5.619 -1.4006  0.0304 -0.8966
   74SLPC   H6S 6578   2.418   4.485   5.770 -0.0917  0.6258 -0.3197
   74SLPC   C27 6579   2.222   4.576   5.733 -0.0523 -0.6794 -0.3370
   74SLPC   H7R 6580   2.215   4.604   5.840  0.8011  0.4769 -0.5726
   74SLPC   H7S 6581   2.126   4.545   5.685  1.1356 -0.4440 -3.0577
   74SLPC   C28 6582   2.268   4.708   5.658  0.5254  0.1136  0.7419
   74SLPC   H8R 6583   2.300   4.683   5.554 -1.0530 -1.0992  0.5099
   74SLPC   H8S 6584   2.354   4.755   5.710  2.8035 -3.4287  0.5634
   74SLPC   C29 6585   2.146   4.799   5.656  0.1459  0.4636  0.3730
   74SLPC   H9R 6586   2.105   4.809   5.758  0.9471 -1.0051  0.8633
   74SLPC  C210 6587   2.073   4.839   5.548 -0.0317 -0.2897 -0.3958
   74SLPC  H10R 6588   1.985   4.898   5.574  0.0877  0.3859 -1.5019
   74SLPC  C211 6589   2.109   4.797   5.410 -0.7728 -0.2826 -0.1199
   74SLPC  H11R 6590   2.220   4.802   5.401 -0.5461 -2.5660  0.9258
   74SLPC  H11S 6591   2.087   4.866   5.325 -1.8064 -0.5447 -0.0767
   74SLPC  C212 6592   2.058   4.662   5.371  0.0716 -0.2911  0.2411
   74SLPC  H12R 6593   2.055   4.592   5.456  2.7592 -0.4858  0.2716
   74SLPC  C213 6594   2.020   4.613   5.247  0.0017  0.0068  0.3392
   74SLPC  H13R 6595   1.978   4.511   5.244 -0.7656  0.3468 -1.5789
   74SLPC  C214 6596   2.028   4.679   5.106 -0.6760 -0.4515  0.5024
   74SLPC  H14R 6597   2.084   4.774   5.113 -1.2393 -0.2031  1.9142
   74SLPC  H14S 6598   1.938   4.713   5.050  1.1643  3.4253 -0.4062
   74SLPC  C215 6599   2.104   4.579   5.019 -0.3727 -0.0930  0.2643
   74SLPC  H15R 6600   2.031   4.503   4.985  0.4058  0.4105 -2.8350
   74SLPC  H15S 6601   2.199   4.540   5.062  0.2646  2.5953  1.5829
   74SLPC  C216 6602   2.143   4.646   4.881 -0.5310 -0.1134  0.5350
   74SLPC  H16R 6603   2.237   4.702   4.896 -0.7971  1.3703 -2.5212
   74SLPC  H16S 6604   2.082   4.725   4.833  1.7551  0.4294 -1.6931
   74SLPC  C217 6605   2.183   4.530   4.784 -0.7520 -0.5397  0.6127
   74SLPC  H17R 6606   2.093   4.472   4.753  1.9679 -3.2947 -3.0248
   74SLPC  H17S 6607   2.244   4.459   4.844  2.0266  1.1743 -0.0417
   74SLPC  C218 6608   2.270   4.557   4.654  0.8634 -0.2951 -0.0342
   74SLPC  H18R 6609   2.370   4.593   4.688  1.6671 -0.8022 -1.7564
   74SLPC  H18S 6610   2.227   4.645   4.601 -2.9684  0.4835  3.7878
   74SLPC  H18T 6611   2.296   4.462   4.604  0.9835  0.1553 -0.8426
   74SLPC   C33 6612   2.523   3.821   5.284  0.9433  0.9457 -0.0285
   74SLPC   H3X 6613   2.568   3.923   5.281  0.1044  1.3885  1.4949
   74SLPC   H3Y 6614   2.414   3.839   5.296  1.4462  3.1466  2.0389
   74SLPC   C34 6615   2.563   3.761   5.148 -0.3586 -0.1362  0.1415
   74SLPC   H4X 6616   2.493   3.675   5.140  1.0978 -1.5665  1.8662
   74SLPC   H4Y 6617   2.661   3.711   5.161  0.6186  2.0221  1.6029
   74SLPC   C35 6618   2.559   3.854   5.023 -0.0632 -0.0983  0.2074
   74SLPC   H5X 6619   2.648   3.920   5.017  0.5563 -0.9846 -0.5297
   74SLPC   H5Y 6620   2.466   3.915   5.032  0.1279  1.5314 -5.2456
   74SLPC   C36 6621   2.529   3.784   4.894  0.3871  0.0794 -0.0774
   74SLPC   H6X 6622   2.419   3.764   4.891  0.7583 -2.3666  0.8141
   74SLPC   H6Y 6623   2.573   3.682   4.893 -1.6531 -0.8831  0.9736
   74SLPC   C37 6624   2.569   3.862   4.772 -0.3886  0.1092  0.1521
   74SLPC   H7X 6625   2.674   3.835   4.752 -0.6433 -1.2728  0.5755
   74SLPC   H7Y 6626   2.565   3.971   4.792  0.5966 -0.1770  2.1227
   74SLPC   C38 6627   2.488   3.841   4.643  0.1338  0.3142  1.0447
   74SLPC   H8X 6628   2.537   3.884   4.553  2.0090 -1.0391  1.3591
   74SLPC   H8Y 6629   2.396   3.901   4.657  1.3146  2.7046 -0.7337
   74SLPC   C39 6630   2.483   3.694   4.604  0.2869  0.5672  0.4401
   74SLPC   H9X 6631   2.398   3.647   4.659  1.6051 -3.3380 -0.5172
   74SLPC   H9Y 6632   2.573   3.634   4.631  0.5184  0.4581 -0.5503
   74SLPC  C310 6633   2.450   3.664   4.460 -0.3588 -0.1440  0.0023
   74SLPC  H10X 6634   2.473   3.557   4.442 -1.0198 -0.4460  0.9165
   74SLPC  H10Y 6635   2.528   3.714   4.397 -0.7800  1.6234  0.8131
   74SLPC  C311 6636   2.307   3.707   4.418 -0.6107  1.2058  0.9766
   74SLPC  H11X 6637   2.294   3.811   4.454  0.4827  1.3101  1.1238
   74SLPC  H11Y 6638   2.236   3.652   4.482 -0.8132  0.4001  0.0823
   74SLPC  C312 6639   2.265   3.679   4.276 -0.3526  0.1449 -0.0664
   74SLPC  H12X 6640   2.154   3.676   4.267 -0.3824 -1.5093  0.6098
   74SLPC  H12Y 6641   2.293   3.575   4.250 -1.4801 -0.2633  0.2754
   74SLPC  C313 6642   2.332   3.776   4.182 -0.2037 -0.2396 -0.2122
   74SLPC  H13X 6643   2.439   3.783   4.209 -0.3190 -1.1597  0.5444
   74SLPC  H13Y 6644   2.291   3.875   4.213 -0.9590 -1.1027  1.6982
   74SLPC  C314 6645   2.300   3.746   4.032  0.8478  0.4440 -0.8209
   74SLPC  H14X 6646   2.292   3.845   3.984 -0.1780  1.8024  1.9467
   74SLPC  H14Y 6647   2.202   3.695   4.022  0.9109  0.4697 -1.5944
   74SLPC  C315 6648   2.411   3.664   3.958  1.4136  0.0063 -0.4192
   74SLPC  H15X 6649   2.415   3.563   4.004 -1.9377  0.8668  2.2209
   74SLPC  H15Y 6650   2.503   3.715   3.993  1.1089  0.8518 -0.8253
   74SLPC  C316 6651   2.404   3.671   3.808 -0.1599 -0.7611 -0.1502
   74SLPC  H16X 6652   2.432   3.776   3.785  0.2833 -0.9940 -0.6953
   74SLPC  H16Y 6653   2.306   3.651   3.759 -0.0302 -3.0497  0.3967
   74SLPC  C317 6654   2.506   3.570   3.736 -0.0173 -0.6819 -0.3485
   74SLPC  H17X 6655   2.457   3.474   3.762 -0.2683 -0.1056  1.4846
   74SLPC  H17Y 6656   2.605   3.580   3.787 -0.1372  1.1187 -0.4173
   74SLPC  C318 6657   2.523   3.597   3.590  0.9453 -1.0414  0.7219
   74SLPC  H18X 6658   2.432   3.562   3.537  0.7895  0.7864 -0.2809
   74SLPC  H18Y 6659   2.605   3.539   3.542 -0.7606 -1.9546 -1.2343
   74SLPC  H18Z 6660   2.544   3.705   3.576  1.9290 -1.1089  1.5152
   75SLPC     N 6661   5.366   4.131   6.218  0.5142 -0.1930  0.2370
   75SLPC   C13 6662   5.250   4.215   6.264  0.3011 -0.2137  0.1161
   75SLPC  H13A 6663   5.273   4.319   6.244  0.9212 -0.6345 -1.4282
   75SLPC  H13B 6664   5.161   4.183   6.212 -0.0877  0.9249  0.0410
   75SLPC  H13C 6665   5.229   4.198   6.369 -3.3607  1.6866 -0.1308
   75SLPC   C14 6666   5.342   3.988   6.261  0.2835 -0.2887  0.1507
   75SLPC  H14A 6667   5.309   3.977   6.363 -1.3998 -2.0124 -0.5079
   75SLPC  H14B 6668   5.266   3.940   6.200  2.2051 -2.1951 -0.9164
   75SLPC  H14C 6669   5.429   3.926   6.246 -1.4317 -2.5856 -0.9824
   75SLPC   C15 6670   5.488   4.185   6.284  0.1517  0.1853 -0.5971
   75SLPC  H15A 6671   5.494   4.289   6.257  0.8492  0.0311 -1.0834
   75SLPC  H15B 6672   5.491   4.167   6.391  1.8341 -0.4886 -0.7234
   75SLPC  H15C 6673   5.582   4.142   6.250 -0.6317 -0.6508 -1.8038
   75SLPC   C12 6674   5.394   4.135   6.061  0.3546  0.2973 -0.5739
   75SLPC  H12A 6675   5.409   4.238   6.031  1.9810  0.2024 -0.1799
   75SLPC  H12B 6676   5.299   4.108   6.016  0.9764 -1.3778 -0.9368
   75SLPC   C11 6677   5.503   4.044   6.000 -0.0403 -0.1642  0.5189
   75SLPC  H11A 6678   5.493   4.042   5.889 -0.7369 -3.0906  0.5766
   75SLPC  H11B 6679   5.473   3.942   6.032  1.9840 -0.8140  0.4844
   75SLPC     P 6680   5.709   4.188   5.948 -0.4206 -0.2157 -0.2162
   75SLPC   O13 6681   5.627   4.312   5.935  0.4623  0.1021 -0.1381
   75SLPC   O14 6682   5.843   4.207   6.001 -0.7490 -0.6660  0.1916
   75SLPC   O12 6683   5.640   4.076   6.035 -0.4345  0.1944  0.0010
   75SLPC   O11 6684   5.722   4.122   5.808  0.8006  0.1736  1.1671
   75SLPC    C1 6685   5.711   4.204   5.683 -0.4973  0.6893  0.2108
   75SLPC    HA 6686   5.768   4.299   5.695  3.7638 -1.5723 -0.0183
   75SLPC    HB 6687   5.751   4.149   5.595 -1.3563  1.3615 -0.6121
   75SLPC    C2 6688   5.564   4.224   5.635 -0.4053 -0.0283  0.7812
   75SLPC    HS 6689   5.514   4.276   5.720  0.5944  1.5844  0.4423
   75SLPC   O21 6690   5.507   4.104   5.590  0.0543  0.7379 -0.1785
   75SLPC   C21 6691   5.376   4.084   5.618 -0.0187 -0.4419 -0.8976
   75SLPC   O22 6692   5.300   4.155   5.684  0.4237 -0.2839  0.4862
   75SLPC   C22 6693   5.338   3.941   5.568  0.2135 -0.0809 -0.4272
   75SLPC   H2R 6694   5.429   3.898   5.522  0.1650 -0.5542 -0.0887
   75SLPC   H2S 6695   5.322   3.875   5.657 -0.2872  0.7075  0.0789
   75SLPC    C3 6696   5.557   4.324   5.516 -0.6331  0.0480  0.4480
   75SLPC    HX 6697   5.602   4.421   5.548  1.5639 -0.4119 -1.0131
   75SLPC    HY 6698   5.449   4.325   5.489 -0.2565 -0.7775 -1.2304
   75SLPC   O31 6699   5.621   4.273   5.396  0.2058  0.4164 -0.0743
   75SLPC   C31 6700   5.638   4.368   5.301  0.5178  0.0625 -0.4580
   75SLPC   O32 6701   5.591   4.482   5.310  0.3485  0.0680 -0.7187
   75SLPC   C32 6702   5.721   4.303   5.197  0.4000  0.0915 -0.1438
   75SLPC   H2X 6703   5.672   4.209   5.163  0.4333 -0.2362  0.6784
   75SLPC   H2Y 6704   5.820   4.285   5.245 -0.0314  0.4304  0.8952
   75SLPC   C23 6705   5.213   3.946   5.482  0.0649 -0.6264  0.0261
   75SLPC   H3R 6706   5.137   4.025   5.503 -0.5288 -0.8439 -1.2162
   75SLPC   H3S 6707   5.153   3.853   5.486 -1.2191  0.1955  0.4760
   75SLPC   C24 6708   5.237   3.961   5.332  0.0105  0.2539 -0.0817
   75SLPC   H4R 6709   5.159   3.904   5.276 -0.7151  0.3416  0.8276
   75SLPC   H4S 6710   5.328   3.901   5.308  0.9061  0.5781  2.2707
   75SLPC   C25 6711   5.242   4.099   5.283 -0.8547 -0.4004 -0.5932
   75SLPC   H5R 6712   5.327   4.156   5.328 -1.3649  0.2851 -0.4910
   75SLPC   H5S 6713   5.154   4.158   5.317  1.4769  2.0370  1.7650
   75SLPC   C26 6714   5.257   4.112   5.133 -0.1385  0.1531 -0.2618
   75SLPC   H6R 6715   5.324   4.029   5.102 -1.5974 -1.6995  1.2675
   75SLPC   H6S 6716   5.306   4.210   5.115  3.1081 -1.0896  1.0415
   75SLPC   C27 6717   5.126   4.090   5.054  0.2783 -0.4897  0.6444
   75SLPC   H7R 6718   5.051   4.166   5.085  0.6443 -0.7595  2.2822
   75SLPC   H7S 6719   5.081   3.997   5.096  0.0615  0.0280  1.5871
   75SLPC   C28 6720   5.153   4.074   4.901  0.7228 -0.3525  0.1908
   75SLPC   H8R 6721   5.057   4.050   4.851  0.5971  1.1893 -0.3501
   75SLPC   H8S 6722   5.234   3.999   4.892  3.0171  1.8931  0.8233
   75SLPC   C29 6723   5.187   4.208   4.843  0.0308  0.1481  0.8068
   75SLPC   H9R 6724   5.140   4.295   4.891 -1.5580 -1.3772  2.1276
   75SLPC  C210 6725   5.277   4.211   4.743  0.3131  0.1294 -0.0443
   75SLPC  H10R 6726   5.304   4.312   4.709  0.9880  0.7764  2.1836
   75SLPC  C211 6727   5.356   4.099   4.683  0.1169 -0.8939  0.8718
   75SLPC  H11R 6728   5.375   4.020   4.759 -0.6540 -0.0542  1.9703
   75SLPC  H11S 6729   5.456   4.132   4.648 -0.5289 -0.6561 -0.8960
   75SLPC  C212 6730   5.269   4.038   4.577 -0.2268  0.3729 -0.8798
   75SLPC  H12R 6731   5.192   3.976   4.625 -1.5832  1.3318 -1.7554
   75SLPC  C213 6732   5.291   4.055   4.448 -0.3421  0.1699  0.6796
   75SLPC  H13R 6733   5.228   3.998   4.377  0.1752  0.4283 -0.0052
   75SLPC  C214 6734   5.388   4.142   4.380  0.1710  0.4823 -0.2576
   75SLPC  H14R 6735   5.464   4.186   4.449 -0.5975 -1.1961  1.7844
   75SLPC  H14S 6736   5.328   4.227   4.342 -1.7259 -0.5100  0.3992
   75SLPC  C215 6737   5.463   4.070   4.269  0.2149 -0.1087  0.4903
   75SLPC  H15R 6738   5.549   4.134   4.243 -2.0022  2.9622  0.2200
   75SLPC  H15S 6739   5.399   4.056   4.179  0.4382  3.5675 -0.3951
   75SLPC  C216 6740   5.544   3.943   4.315  0.6270 -0.4371 -0.2212
   75SLPC  H16R 6741   5.470   3.861   4.319  0.0861 -0.0376 -1.5288
   75SLPC  H16S 6742   5.582   3.960   4.418  1.3234 -5.8001  0.6925
   75SLPC  C217 6743   5.665   3.898   4.231 -0.1805  0.5990 -0.3571
   75SLPC  H17R 6744   5.725   3.988   4.207 -0.8656  1.0267 -0.5053
   75SLPC  H17S 6745   5.617   3.858   4.139 -2.2629 -2.2000  1.7735
   75SLPC  C218 6746   5.752   3.786   4.289 -0.3536  0.3417  0.1139
   75SLPC  H18R 6747   5.689   3.697   4.307 -1.6635  0.8889 -1.5552
   75SLPC  H18S 6748   5.790   3.817   4.389  0.0597 -0.3913  0.1940
   75SLPC  H18T 6749   5.839   3.764   4.223 -0.7394  0.2757 -0.3782
   75SLPC   C33 6750   5.748   4.394   5.072 -0.2406  0.1502 -0.0399
   75SLPC   H3X 6751   5.820   4.343   5.004 -0.9977  0.4986 -1.1261
   75SLPC   H3Y 6752   5.787   4.495   5.097 -0.2836  0.1906 -0.1351
   75SLPC   C34 6753   5.626   4.413   4.977  0.0122  0.2595 -0.1385
   75SLPC   H4X 6754   5.538   4.467   5.018  0.0481 -1.1128  1.9437
   75SLPC   H4Y 6755   5.584   4.312   4.959  1.5581 -0.4011 -0.1824
   75SLPC   C35 6756   5.677   4.473   4.843 -0.5147 -0.1932 -0.0901
   75SLPC   H5X 6757   5.784   4.447   4.828  0.5155  2.8291  1.3863
   75SLPC   H5Y 6758   5.670   4.582   4.858 -3.4004 -0.2606 -0.4850
   75SLPC   C36 6759   5.575   4.462   4.729 -0.5494  0.4418 -0.1222
   75SLPC   H6X 6760   5.475   4.475   4.775  0.5548 -1.1020  2.9843
   75SLPC   H6Y 6761   5.581   4.366   4.673  2.3978 -0.2865  1.2697
   75SLPC   C37 6762   5.601   4.567   4.617  0.9645 -0.1952 -0.0173
   75SLPC   H7X 6763   5.708   4.553   4.590  0.4454 -2.7999 -0.9903
   75SLPC   H7Y 6764   5.593   4.668   4.663 -2.8407 -0.3075 -0.0957
   75SLPC   C38 6765   5.508   4.538   4.506  0.1703  0.4670  0.4618
   75SLPC   H8X 6766   5.477   4.432   4.492  0.0481  0.6826 -0.9591
   75SLPC   H8Y 6767   5.553   4.567   4.409 -2.8280 -0.0274 -1.1604
   75SLPC   C39 6768   5.375   4.622   4.528  0.4736  0.7018  0.7228
   75SLPC   H9X 6769   5.384   4.733   4.527 -0.9089  0.9438 -3.5524
   75SLPC   H9Y 6770   5.341   4.580   4.625  1.5155 -1.3314  0.2552
   75SLPC  C310 6771   5.273   4.584   4.419 -0.0960 -0.2993  0.8234
   75SLPC  H10X 6772   5.255   4.475   4.406 -0.8988  0.1268 -2.8595
   75SLPC  H10Y 6773   5.316   4.617   4.322 -1.1438  0.6327  0.6444
   75SLPC  C311 6774   5.141   4.652   4.442  0.1539  0.3212  0.2469
   75SLPC  H11X 6775   5.162   4.761   4.445  1.1820  0.1449 -0.1405
   75SLPC  H11Y 6776   5.101   4.629   4.543  0.7192  1.6276  0.7934
   75SLPC  C312 6777   5.027   4.616   4.341  0.4128  0.0208 -0.2791
   75SLPC  H12X 6778   4.964   4.532   4.378 -0.2524  0.7453  0.2640
   75SLPC  H12Y 6779   5.077   4.588   4.246  0.4227  1.4290 -0.7140
   75SLPC  C313 6780   4.941   4.734   4.300 -0.2658 -0.3448  0.0798
   75SLPC  H13X 6781   5.026   4.803   4.280 -0.8670 -0.1207 -1.9313
   75SLPC  H13Y 6782   4.883   4.776   4.385 -1.2224 -1.0984 -0.1818
   75SLPC  C314 6783   4.849   4.711   4.178 -0.3646  0.4297  0.4056
   75SLPC  H14X 6784   4.906   4.680   4.087  1.1198  2.2642  0.6421
   75SLPC  H14Y 6785   4.795   4.804   4.149 -5.6554 -1.5900  2.5322
   75SLPC  C315 6786   4.752   4.598   4.213  0.5711  0.0605  0.3799
   75SLPC  H15X 6787   4.686   4.642   4.290  2.5229 -0.3783  2.3809
   75SLPC  H15Y 6788   4.789   4.504   4.259 -2.3224 -2.6863 -2.3393
   75SLPC  C316 6789   4.660   4.549   4.096 -0.3906 -1.0603  0.2580
   75SLPC  H16X 6790   4.717   4.480   4.030 -0.0226  1.0712 -1.7544
   75SLPC  H16Y 6791   4.642   4.637   4.031  0.3924 -1.4552 -0.5223
   75SLPC  C317 6792   4.521   4.494   4.130 -0.0952 -0.1501  0.5857
   75SLPC  H17X 6793   4.480   4.469   4.030 -1.3515 -2.0827  1.5157
   75SLPC  H17Y 6794   4.467   4.574   4.186 -1.7041 -0.2767 -0.7087
   75SLPC  C318 6795   4.518   4.367   4.214 -0.0223  0.5402 -0.0401
   75SLPC  H18X 6796   4.560   4.282   4.155 -0.3334  1.3985 -1.5674
   75SLPC  H18Y 6797   4.413   4.334   4.231  0.0214 -0.0942 -0.9039
   75SLPC  H18Z 6798   4.571   4.374   4.311  1.3877  0.5124 -0.7817
   76SLPC     N 6799   6.339   3.148   5.764  0.2883 -0.0779 -0.3142
   76SLPC   C13 6800   6.232   3.145   5.656 -0.5276 -1.0089 -0.1516
   76SLPC  H13A 6801   6.235   3.045   5.617  0.7065 -1.9958  2.2436
   76SLPC  H13B 6802   6.137   3.163   5.705 -0.1506  0.8618 -0.0129
   76SLPC  H13C 6803   6.238   3.221   5.579 -0.3540 -1.1887 -0.3131
   76SLPC   C14 6804   6.470   3.123   5.707 -0.3348 -0.5331 -0.2285
   76SLPC  H14A 6805   6.549   3.148   5.777 -0.4463 -0.4063 -0.1460
   76SLPC  H14B 6806   6.476   3.022   5.669 -0.1244 -0.2065 -1.0849
   76SLPC  H14C 6807   6.490   3.185   5.621  0.6877  0.5073  0.7225
   76SLPC   C15 6808   6.306   3.042   5.862  0.8552  0.5868  0.1171
   76SLPC  H15A 6809   6.379   3.051   5.941  1.8810 -2.0877 -0.4077
   76SLPC  H15B 6810   6.208   3.048   5.907  1.3458 -5.0681  2.8369
   76SLPC  H15C 6811   6.303   2.942   5.822 -0.1932  1.2060 -1.4634
   76SLPC   C12 6812   6.342   3.278   5.833  0.0193  0.5239 -0.1913
   76SLPC  H12A 6813   6.249   3.296   5.885  0.3895  0.2166  0.5910
   76SLPC  H12B 6814   6.350   3.348   5.752 -1.6176  0.5355 -0.3780
   76SLPC   C11 6815   6.452   3.322   5.927 -0.2852 -0.1783  0.3230
   76SLPC  H11A 6816   6.454   3.255   6.016 -0.9133  0.1314  0.5775
   76SLPC  H11B 6817   6.420   3.424   5.958 -0.1269  0.5428 -1.7435
   76SLPC     P 6818   6.670   3.465   5.850  0.3525  0.0195  0.1979
   76SLPC   O13 6819   6.674   3.527   5.987  0.4073 -0.0641  0.0289
   76SLPC   O14 6820   6.799   3.418   5.797  1.1220 -0.3256 -0.0325
   76SLPC   O12 6821   6.578   3.335   5.862 -0.3193  0.3912  0.4067
   76SLPC   O11 6822   6.612   3.570   5.744 -0.2815  0.2646  0.3040
   76SLPC    C1 6823   6.493   3.534   5.674  0.2014 -0.1059 -0.0038
   76SLPC    HA 6824   6.480   3.424   5.663  0.2710  0.1114 -2.8066
   76SLPC    HB 6825   6.401   3.568   5.727 -0.0748 -0.8374 -0.0026
   76SLPC    C2 6826   6.494   3.573   5.524 -0.0265 -0.8152 -0.3637
   76SLPC    HS 6827   6.414   3.517   5.470  1.0779 -2.2058 -0.6178
   76SLPC   O21 6828   6.623   3.541   5.461  0.6077  0.4723 -0.7377
   76SLPC   C21 6829   6.638   3.410   5.441 -0.8185 -0.6767  0.3093
   76SLPC   O22 6830   6.566   3.312   5.468 -0.1791  0.0823  0.4227
   76SLPC   C22 6831   6.772   3.403   5.365  0.0671  0.2559  0.0592
   76SLPC   H2R 6832   6.832   3.497   5.355  1.6790 -0.7500 -0.1340
   76SLPC   H2S 6833   6.825   3.326   5.425  0.4564 -0.7307 -1.5230
   76SLPC    C3 6834   6.468   3.720   5.499  0.0030  0.5917 -0.2095
   76SLPC    HX 6835   6.552   3.772   5.550  0.2384 -1.6147  1.8360
   76SLPC    HY 6836   6.381   3.761   5.555  1.2600  1.8826  0.8631
   76SLPC   O31 6837   6.454   3.733   5.359 -0.2744 -0.6071 -0.2843
   76SLPC   C31 6838   6.537   3.810   5.289 -0.0697 -0.3209  0.3654
   76SLPC   O32 6839   6.625   3.877   5.344  0.6493 -0.0516  0.4241
   76SLPC   C32 6840   6.500   3.801   5.142 -0.4657 -0.4436 -0.5768
   76SLPC   H2X 6841   6.404   3.855   5.143  0.2104  0.7919 -0.0981
   76SLPC   H2Y 6842   6.491   3.697   5.104 -2.5272 -1.1533  1.6071
   76SLPC   C23 6843   6.763   3.332   5.226  0.3299 -0.5049 -0.5823
   76SLPC   H3R 6844   6.707   3.239   5.248  0.7154 -1.2323 -2.4952
   76SLPC   H3S 6845   6.859   3.291   5.188  0.4619 -0.7020 -0.0340
   76SLPC   C24 6846   6.715   3.435   5.121  0.1140  0.3668  0.8614
   76SLPC   H4R 6847   6.774   3.529   5.127  0.9866 -0.1329  0.3924
   76SLPC   H4S 6848   6.608   3.449   5.147 -0.2710  0.7704 -0.7978
   76SLPC   C25 6849   6.705   3.378   4.978  0.0411  0.5675 -0.6047
   76SLPC   H5R 6850   6.624   3.432   4.924 -2.2651 -2.5675 -0.6338
   76SLPC   H5S 6851   6.689   3.268   4.974 -1.8954  0.8201 -1.2682
   76SLPC   C26 6852   6.836   3.388   4.898 -0.0678 -0.2844 -0.1257
   76SLPC   H6R 6853   6.912   3.335   4.960  1.6998  3.7414  1.5201
   76SLPC   H6S 6854   6.863   3.496   4.895  2.2566 -0.7825  0.4291
   76SLPC   C27 6855   6.840   3.316   4.766 -0.5688 -0.1018  0.1990
   76SLPC   H7R 6856   6.773   3.367   4.693 -0.5722  0.7216  0.7611
   76SLPC   H7S 6857   6.798   3.214   4.779  1.0776 -0.7537  0.6213
   76SLPC   C28 6858   6.981   3.320   4.698 -0.6239  1.0383  0.0290
   76SLPC   H8R 6859   7.025   3.421   4.713  0.9380  0.1284  2.0243
   76SLPC   H8S 6860   6.971   3.289   4.592 -2.3448 -0.9599  0.7233
   76SLPC   C29 6861   7.076   3.221   4.756  1.1519  0.4794 -0.3606
   76SLPC   H9R 6862   7.053   3.199   4.862 -1.9352  2.2411 -0.5156
   76SLPC  C210 6863   7.201   3.185   4.717 -0.2888 -0.3296  0.2356
   76SLPC  H10R 6864   7.263   3.129   4.788 -0.1928 -4.2170 -2.5757
   76SLPC  C211 6865   7.262   3.211   4.579  0.0049 -0.2430 -0.2660
   76SLPC  H11R 6866   7.354   3.151   4.595  0.9141  0.7405 -1.5917
   76SLPC  H11S 6867   7.294   3.318   4.572  1.0271 -0.4495  0.9441
   76SLPC  C212 6868   7.190   3.150   4.461  0.2599 -0.1628 -0.3569
   76SLPC  H12R 6869   7.106   3.083   4.485  0.1891  0.1245  0.2432
   76SLPC  C213 6870   7.221   3.164   4.333 -0.0642 -0.2050 -0.4098
   76SLPC  H13R 6871   7.144   3.136   4.259 -0.2906 -1.8366  0.4096
   76SLPC  C214 6872   7.339   3.242   4.276  0.0946 -0.2302  0.2784
   76SLPC  H14R 6873   7.404   3.264   4.363  0.6875  1.5475 -0.5446
   76SLPC  H14S 6874   7.308   3.342   4.237 -0.6260 -0.0497  1.2874
   76SLPC  C215 6875   7.426   3.178   4.162 -0.5936 -0.3034 -0.4932
   76SLPC  H15R 6876   7.443   3.071   4.187 -0.1632  0.2562  1.7911
   76SLPC  H15S 6877   7.527   3.224   4.152 -0.9070  0.8153  1.0850
   76SLPC  C216 6878   7.356   3.176   4.029 -0.3216 -0.2321 -0.0914
   76SLPC  H16R 6879   7.297   3.268   4.006  0.9994  0.6680  0.0301
   76SLPC  H16S 6880   7.280   3.095   4.030 -0.8507  0.2128 -1.4746
   76SLPC  C217 6881   7.462   3.163   3.919 -0.2746 -0.5234  0.1532
   76SLPC  H17R 6882   7.521   3.069   3.928  0.0694 -0.3400 -0.1452
   76SLPC  H17S 6883   7.520   3.257   3.921 -2.7589  1.2068 -2.3297
   76SLPC  C218 6884   7.386   3.163   3.787  0.8275  0.1895 -0.1790
   76SLPC  H18R 6885   7.440   3.091   3.722  3.4711 -0.0994  2.0919
   76SLPC  H18S 6886   7.392   3.269   3.755  0.9410 -0.1732 -1.3929
   76SLPC  H18T 6887   7.282   3.125   3.794  1.1380 -0.4819  1.2600
   76SLPC   C33 6888   6.605   3.872   5.060  0.2051  0.1490  1.0066
   76SLPC   H3X 6889   6.707   3.833   5.083  0.2871  0.3844  1.0458
   76SLPC   H3Y 6890   6.619   3.981   5.079 -0.7637 -0.0448  3.1070
   76SLPC   C34 6891   6.577   3.852   4.915 -0.4524 -1.0374 -0.2593
   76SLPC   H4X 6892   6.477   3.897   4.899 -0.1958  1.0883  3.0479
   76SLPC   H4Y 6893   6.579   3.744   4.889 -0.8325 -0.9847 -0.5067
   76SLPC   C35 6894   6.674   3.928   4.825  0.4510  0.3045 -0.4356
   76SLPC   H5X 6895   6.654   3.897   4.720 -0.5635  0.1337 -0.1991
   76SLPC   H5Y 6896   6.777   3.908   4.862  0.9875  2.3392 -0.7307
   76SLPC   C36 6897   6.637   4.073   4.811  0.2100 -0.8128  0.3161
   76SLPC   H6X 6898   6.654   4.123   4.909  2.2434  2.3230 -1.4403
   76SLPC   H6Y 6899   6.527   4.082   4.796  0.1160 -1.3816  0.6410
   76SLPC   C37 6900   6.719   4.163   4.706  0.1478  0.4337 -0.4795
   76SLPC   H7X 6901   6.824   4.172   4.741 -0.2458  1.0508  0.6118
   76SLPC   H7Y 6902   6.683   4.267   4.698 -2.0793 -0.3114 -0.8022
   76SLPC   C38 6903   6.719   4.107   4.567 -0.4528  0.2042  0.3471
   76SLPC   H8X 6904   6.616   4.078   4.537 -0.9527  2.0486  0.1276
   76SLPC   H8Y 6905   6.776   4.012   4.566 -2.4022 -1.0243 -0.8081
   76SLPC   C39 6906   6.796   4.198   4.471  0.1955 -0.2621 -0.3266
   76SLPC   H9X 6907   6.884   4.235   4.528 -1.8373  0.4758  2.5599
   76SLPC   H9Y 6908   6.732   4.284   4.444 -1.4113 -1.6236 -1.0256
   76SLPC  C310 6909   6.841   4.120   4.349 -0.0935  0.5316  0.0734
   76SLPC  H10X 6910   6.746   4.080   4.307 -0.0614  1.2047 -0.6673
   76SLPC  H10Y 6911   6.915   4.042   4.378  2.9360  2.7991 -1.0445
   76SLPC  C311 6912   6.907   4.203   4.237  0.2981 -0.7976  0.9829
   76SLPC  H11X 6913   6.995   4.148   4.197  0.4022  0.4952 -0.6414
   76SLPC  H11Y 6914   6.941   4.296   4.289 -1.5420  0.8282 -0.5774
   76SLPC  C312 6915   6.808   4.227   4.117 -0.3583 -0.4587  0.0043
   76SLPC  H12X 6916   6.718   4.274   4.163 -1.5084 -0.3161 -2.2795
   76SLPC  H12Y 6917   6.778   4.132   4.069  0.1290 -0.4249 -0.3709
   76SLPC  C313 6918   6.868   4.332   4.015 -1.1566  0.0705  0.0862
   76SLPC  H13X 6919   6.963   4.287   3.980 -0.1214  1.9837  0.2934
   76SLPC  H13Y 6920   6.893   4.420   4.078  0.5812 -1.5032  1.7265
   76SLPC  C314 6921   6.776   4.350   3.894  0.1455 -0.0060  0.2297
   76SLPC  H14X 6922   6.670   4.357   3.926  0.1151  0.2988  0.0709
   76SLPC  H14Y 6923   6.798   4.274   3.816  1.7509  0.0782  0.5777
   76SLPC  C315 6924   6.808   4.486   3.813  0.6676  0.1206 -0.8959
   76SLPC  H15X 6925   6.916   4.485   3.786  1.3426  0.0606  1.5849
   76SLPC  H15Y 6926   6.781   4.570   3.880 -0.1478 -2.1164  1.7941
   76SLPC  C316 6927   6.731   4.498   3.685  0.1708 -1.0531 -0.6487
   76SLPC  H16X 6928   6.756   4.403   3.633  1.9038 -1.4162  0.7398
   76SLPC  H16Y 6929   6.768   4.583   3.624  0.1797  0.6417  1.5894
   76SLPC  C317 6930   6.576   4.513   3.701 -0.1317  0.8150  0.7907
   76SLPC  H17X 6931   6.528   4.429   3.756 -1.7361  0.8087 -0.5337
   76SLPC  H17Y 6932   6.542   4.498   3.597  0.6799  0.1685  0.6116
   76SLPC  C318 6933   6.536   4.649   3.754 -0.0145 -0.5812 -0.0109
   76SLPC  H18X 6934   6.598   4.735   3.721 -0.1954 -0.7918 -0.9582
   76SLPC  H18Y 6935   6.537   4.665   3.864  1.9389 -1.7195  0.1893
   76SLPC  H18Z 6936   6.429   4.665   3.729  0.7098  1.5662 -2.0596
   77SLPC     N 6937   1.055   3.709   5.841 -0.1164 -0.2284  0.6209
   77SLPC   C13 6938   0.971   3.598   5.810  0.6266 -0.0137 -0.3815
   77SLPC  H13A 6939   0.998   3.510   5.866  0.2714 -0.0500 -0.2647
   77SLPC  H13B 6940   0.872   3.625   5.842  1.2650 -0.2149  1.9613
   77SLPC  H13C 6941   0.989   3.572   5.707 -1.2208 -0.2485 -0.6826
   77SLPC   C14 6942   1.185   3.690   5.764 -0.2562  0.8689 -0.0047
   77SLPC  H14A 6943   1.227   3.596   5.794 -0.2270  0.0224 -2.5440
   77SLPC  H14B 6944   1.172   3.690   5.657  1.6312  0.4633 -0.2624
   77SLPC  H14C 6945   1.256   3.770   5.781  1.5970 -0.6218 -0.4343
   77SLPC   C15 6946   1.078   3.703   5.995 -0.0117  0.6711  0.4215
   77SLPC  H15A 6947   1.128   3.611   6.022  1.7312  2.2428  2.9540
   77SLPC  H15B 6948   1.144   3.786   6.019  1.3121  0.5137 -2.2941
   77SLPC  H15C 6949   0.977   3.704   6.033 -1.1117 -1.1009 -2.1737
   77SLPC   C12 6950   0.991   3.836   5.789 -0.1228 -0.4148 -0.2290
   77SLPC  H12A 6951   0.960   3.825   5.686 -2.2268 -3.2924  0.5836
   77SLPC  H12B 6952   1.067   3.912   5.803  0.9482 -1.6257  0.8400
   77SLPC   C11 6953   0.870   3.889   5.861 -0.0499 -0.0455  0.0775
   77SLPC  H11A 6954   0.842   3.981   5.805  0.2548  0.8243  1.3255
   77SLPC  H11B 6955   0.908   3.926   5.958  1.6062 -1.4304 -0.0005
   77SLPC     P 6956   0.641   3.858   5.968 -0.0743  0.3007  0.3664
   77SLPC   O13 6957   0.631   3.768   6.077  0.3424 -0.1264 -0.1705
   77SLPC   O14 6958   0.666   3.996   6.012 -0.2485 -0.5887 -0.1386
   77SLPC   O12 6959   0.753   3.806   5.867 -0.0022 -0.3700  0.2924
   77SLPC   O11 6960   0.506   3.853   5.882 -0.2389  0.0238  0.3048
   77SLPC    C1 6961   0.477   3.954   5.780 -0.5395  0.1243  0.0965
   77SLPC    HA 6962   0.469   4.054   5.828  2.8809  0.3763  0.4320
   77SLPC    HB 6963   0.559   3.975   5.708 -1.1820  0.6720 -0.4870
   77SLPC    C2 6964   0.338   3.918   5.706 -0.7572 -1.1653  0.2391
   77SLPC    HS 6965   0.265   3.923   5.789  0.1858  2.0303  1.0015
   77SLPC   O21 6966   0.342   3.788   5.650 -0.4248  0.0661 -0.3803
   77SLPC   C21 6967   0.227   3.731   5.605 -0.3442  0.2084  0.0320
   77SLPC   O22 6968   0.118   3.786   5.602  0.0591 -0.2050 -0.3168
   77SLPC   C22 6969   0.261   3.592   5.558  0.5158 -0.2788  0.2155
   77SLPC   H2R 6970   0.326   3.601   5.468  0.8260  0.0521  0.4687
   77SLPC   H2S 6971   0.315   3.544   5.643 -0.4297 -0.6918  0.5952
   77SLPC    C3 6972   0.288   4.019   5.604  0.3457 -0.6946 -0.0266
   77SLPC    HX 6973   0.279   4.119   5.652  1.2565 -0.5122 -0.2076
   77SLPC    HY 6974   0.189   3.996   5.559 -1.2217  4.0258  0.4402
   77SLPC   O31 6975   0.392   4.048   5.507 -0.0698 -0.7392 -0.5896
   77SLPC   C31 6976   0.377   3.981   5.391  1.2077  0.1730  0.2656
   77SLPC   O32 6977   0.281   3.911   5.360  0.0286  0.3436 -0.3663
   77SLPC   C32 6978   0.506   3.995   5.310 -0.3506 -0.0731 -0.6609
   77SLPC   H2X 6979   0.591   4.010   5.381  0.5106  2.2992 -2.0823
   77SLPC   H2Y 6980   0.500   4.083   5.244 -1.2264  1.0547  0.8480
   77SLPC   C23 6981   0.139   3.505   5.526  0.5237  0.0886 -0.1277
   77SLPC   H3R 6982   0.051   3.517   5.593  0.4928  1.3087 -0.3634
   77SLPC   H3S 6983   0.176   3.400   5.528  0.2518 -0.0700 -1.6770
   77SLPC   C24 6984   0.093   3.519   5.375  0.2837  0.3306 -0.6269
   77SLPC   H4R 6985   0.088   3.624   5.341  1.2757  0.0066 -1.8252
   77SLPC   H4S 6986  -0.009   3.475   5.363  1.1833 -2.0543 -0.1058
   77SLPC   C25 6987   0.180   3.445   5.269 -0.5736  0.5888  0.2091
   77SLPC   H5R 6988   0.200   3.343   5.306 -2.9749  0.2739  0.7978
   77SLPC   H5S 6989   0.278   3.497   5.264  0.5832 -0.8292  4.3416
   77SLPC   C26 6990   0.116   3.445   5.128  0.5805 -0.2672 -0.0730
   77SLPC   H6R 6991   0.103   3.555   5.118  0.9664 -0.1332  0.8766
   77SLPC   H6S 6992   0.020   3.388   5.128  0.1619  0.4221  0.5294
   77SLPC   C27 6993   0.204   3.390   5.016 -0.0853  0.3312  0.7253
   77SLPC   H7R 6994   0.151   3.418   4.923  0.8543  0.6368  0.2693
   77SLPC   H7S 6995   0.193   3.279   5.021  1.5131  0.0641 -0.8274
   77SLPC   C28 6996   0.355   3.430   5.007 -0.4280 -0.6844 -0.0095
   77SLPC   H8R 6997   0.402   3.395   5.102 -0.3113 -0.0391  0.1761
   77SLPC   H8S 6998   0.357   3.541   5.005  4.1539 -0.4451  2.9561
   77SLPC   C29 6999   0.423   3.366   4.885 -0.0929  0.1305 -0.0408
   77SLPC   H9R 7000   0.437   3.257   4.882  1.6906  0.3449 -0.7920
   77SLPC  C210 7001   0.454   3.423   4.767  0.1579 -0.2482 -0.1916
   77SLPC  H10R 7002   0.500   3.362   4.688  1.4508  2.1174 -1.3615
   77SLPC  C211 7003   0.412   3.558   4.729 -0.0356  0.1554  0.6650
   77SLPC  H11R 7004   0.340   3.608   4.797 -1.3815 -1.4252  0.4858
   77SLPC  H11S 7005   0.352   3.553   4.635 -2.4668  0.6546  2.1012
   77SLPC  C212 7006   0.527   3.654   4.698  0.1778  0.2611  0.0883
   77SLPC  H12R 7007   0.624   3.634   4.746  0.2251 -1.2896 -0.6004
   77SLPC  C213 7008   0.530   3.758   4.615 -0.1906  0.0116 -0.1800
   77SLPC  H13R 7009   0.621   3.818   4.596 -1.3379  1.4899 -1.2665
   77SLPC  C214 7010   0.417   3.810   4.531  0.6380  0.6555  0.0711
   77SLPC  H14R 7011   0.390   3.913   4.560  0.1245  0.5894 -0.1545
   77SLPC  H14S 7012   0.326   3.747   4.545 -0.0984  2.0128  1.6534
   77SLPC  C215 7013   0.458   3.816   4.386 -0.3515  0.5841  0.5116
   77SLPC  H15R 7014   0.566   3.837   4.369 -0.0439 -2.1471 -1.5172
   77SLPC  H15S 7015   0.394   3.896   4.342  0.3373  1.8041  1.6331
   77SLPC  C216 7016   0.410   3.699   4.296  0.0990  0.2387 -0.1592
   77SLPC  H16R 7017   0.300   3.708   4.302  0.2016  3.3425 -1.3999
   77SLPC  H16S 7018   0.444   3.602   4.339  0.8777  0.4205 -0.3467
   77SLPC  C217 7019   0.438   3.704   4.146  0.3031 -0.8956  0.1458
   77SLPC  H17R 7020   0.547   3.725   4.139  0.8415 -3.8363 -2.1510
   77SLPC  H17S 7021   0.377   3.780   4.093  0.0759 -0.9578  0.3208
   77SLPC  C218 7022   0.409   3.571   4.073 -0.2539  0.5515  0.7106
   77SLPC  H18R 7023   0.308   3.531   4.096 -0.0338  0.4926  1.5886
   77SLPC  H18S 7024   0.482   3.495   4.106 -0.1638  0.4742  0.3423
   77SLPC  H18T 7025   0.401   3.572   3.962 -1.0758 -0.2481  0.7493
   77SLPC   C33 7026   0.544   3.867   5.223  0.2859 -0.1409  0.5004
   77SLPC   H3X 7027   0.627   3.884   5.150 -0.7948 -0.0683 -0.7562
   77SLPC   H3Y 7028   0.448   3.844   5.172  0.7648  2.2827 -1.6841
   77SLPC   C34 7029   0.581   3.741   5.301  0.1603 -0.9480  0.1934
   77SLPC   H4X 7030   0.514   3.706   5.381  1.7678  0.1223  2.1054
   77SLPC   H4Y 7031   0.675   3.756   5.359  0.3122 -1.2722  0.0374
   77SLPC   C35 7032   0.605   3.627   5.197  0.0503 -0.1427  0.5631
   77SLPC   H5X 7033   0.671   3.668   5.118 -1.8544 -2.1077 -2.2454
   77SLPC   H5Y 7034   0.508   3.591   5.156  1.0859 -1.2287 -1.0072
   77SLPC   C36 7035   0.689   3.521   5.262 -0.8618  0.3014 -0.1064
   77SLPC   H6X 7036   0.645   3.492   5.360 -0.4319  0.3474  0.1027
   77SLPC   H6Y 7037   0.795   3.555   5.264 -1.2491  1.5606  0.3661
   77SLPC   C37 7038   0.705   3.396   5.176  0.2756  0.6356  0.1221
   77SLPC   H7X 7039   0.610   3.362   5.128  0.4986  1.2960 -0.8219
   77SLPC   H7Y 7040   0.744   3.311   5.235  0.5600 -0.1868 -1.1942
   77SLPC   C38 7041   0.789   3.410   5.055 -0.7956  0.4322  0.3199
   77SLPC   H8X 7042   0.887   3.454   5.084  0.5035 -1.2560 -1.2709
   77SLPC   H8Y 7043   0.739   3.480   4.985  0.0926 -0.1769 -0.9818
   77SLPC   C39 7044   0.811   3.270   4.988  0.0102 -0.3521  0.5715
   77SLPC   H9X 7045   0.732   3.194   5.000  1.1358 -1.5610  0.5423
   77SLPC   H9Y 7046   0.896   3.224   5.043 -0.0803 -0.4633  0.6180
   77SLPC  C310 7047   0.831   3.280   4.834  0.0619  0.0119  0.3907
   77SLPC  H10X 7048   0.747   3.345   4.800  0.7995  1.1448  0.6842
   77SLPC  H10Y 7049   0.822   3.174   4.800 -3.1467  0.4990 -0.6523
   77SLPC  C311 7050   0.976   3.327   4.795  1.0403 -0.0002  0.0222
   77SLPC  H11X 7051   1.048   3.245   4.818 -0.1280 -0.9517  0.3769
   77SLPC  H11Y 7052   1.001   3.422   4.847  0.3349  0.2953 -0.1698
   77SLPC  C312 7053   0.986   3.365   4.642 -0.4195  0.5802 -0.1388
   77SLPC  H12X 7054   0.979   3.271   4.583  1.1937  0.6762 -0.5403
   77SLPC  H12Y 7055   1.091   3.398   4.625 -0.0311 -1.1514 -1.4687
   77SLPC  C313 7056   0.885   3.474   4.602  0.1046  0.2478  0.2671
   77SLPC  H13X 7057   0.875   3.562   4.669  1.0256  0.4597  0.1400
   77SLPC  H13Y 7058   0.780   3.437   4.613 -0.5281  2.5262  3.1580
   77SLPC  C314 7059   0.913   3.516   4.458  1.0977 -0.3015 -0.1238
   77SLPC  H14X 7060   0.951   3.430   4.399 -1.2364 -1.6010  0.1432
   77SLPC  H14Y 7061   0.992   3.594   4.461  1.9014 -1.1077 -0.0783
   77SLPC  C315 7062   0.790   3.564   4.378  0.0206  0.9432  0.1088
   77SLPC  H15X 7063   0.737   3.649   4.426 -1.7314 -0.0630  0.0438
   77SLPC  H15Y 7064   0.717   3.479   4.381  1.6620 -0.5741 -1.1652
   77SLPC  C316 7065   0.818   3.561   4.232  0.3317  0.2140  0.2045
   77SLPC  H16X 7066   0.725   3.594   4.181 -0.5692 -0.7577  1.1846
   77SLPC  H16Y 7067   0.844   3.457   4.203  1.1638 -0.0506  1.8376
   77SLPC  C317 7068   0.923   3.650   4.179 -0.1543  0.2225 -0.3643
   77SLPC  H17X 7069   1.028   3.635   4.214 -0.0891  1.3366 -0.0386
   77SLPC  H17Y 7070   0.899   3.752   4.216 -1.5183  0.3817 -1.6263
   77SLPC  C318 7071   0.918   3.678   4.028 -0.4932 -0.1473  0.3875
   77SLPC  H18X 7072   0.819   3.725   4.014  0.2522  1.0904 -0.9743
   77SLPC  H18Y 7073   0.935   3.581   3.976  1.6064  0.5689 -0.3723
   77SLPC  H18Z 7074   0.993   3.756   4.003 -2.5107  1.7458 -0.0805
   78SLPC     N 7075   3.456   0.962   6.204  0.7112 -0.2433  0.0525
   78SLPC   C13 7076   3.461   0.997   6.348 -0.3758  0.2957 -0.1611
   78SLPC  H13A 7077   3.389   1.075   6.369  0.4277  2.2031 -3.6758
   78SLPC  H13B 7078   3.440   0.917   6.417  1.9699 -0.1973  0.0653
   78SLPC  H13C 7079   3.559   1.038   6.368 -0.7176  2.1805 -1.9284
   78SLPC   C14 7080   3.555   0.849   6.172  0.2672 -0.1519  0.1359
   78SLPC  H14A 7081   3.538   0.796   6.079  2.0925 -4.1999  1.8718
   78SLPC  H14B 7082   3.660   0.870   6.177 -0.3218  3.1129  0.8797
   78SLPC  H14C 7083   3.540   0.772   6.246 -1.9241  1.4444  1.4694
   78SLPC   C15 7084   3.498   1.080   6.126 -0.3207 -0.4202  0.1930
   78SLPC  H15A 7085   3.492   1.067   6.019  3.1388 -3.7178  0.1943
   78SLPC  H15B 7086   3.434   1.164   6.149 -1.4538 -1.2337  0.0912
   78SLPC  H15C 7087   3.596   1.114   6.157 -1.2142  0.4878  2.2194
   78SLPC   C12 7088   3.316   0.917   6.166 -0.3916  0.0052 -0.6687
   78SLPC  H12A 7089   3.258   1.008   6.160  4.0645  3.2247  0.0765
   78SLPC  H12B 7090   3.271   0.858   6.244  0.9569 -0.1254  0.0446
   78SLPC   C11 7091   3.296   0.825   6.037 -0.5238  0.1268 -0.8187
   78SLPC  H11A 7092   3.383   0.854   5.974 -0.1601  0.8702 -0.0013
   78SLPC  H11B 7093   3.197   0.847   5.990 -0.7292 -0.8523 -0.8676
   78SLPC     P 7094   3.214   0.611   6.158 -0.1934 -0.1089  0.1010
   78SLPC   O13 7095   3.284   0.500   6.221 -0.2970 -0.0125  0.1009
   78SLPC   O14 7096   3.143   0.700   6.254  0.0570 -0.6677  0.4338
   78SLPC   O12 7097   3.312   0.685   6.063 -0.1703  0.2690  0.5734
   78SLPC   O11 7098   3.096   0.565   6.063  0.0127  0.2636  0.5172
   78SLPC    C1 7099   3.126   0.465   5.964 -0.4865 -0.4416  0.4629
   78SLPC    HA 7100   3.225   0.487   5.919 -1.5099  1.3303 -1.0565
   78SLPC    HB 7101   3.131   0.364   6.011  0.6327 -0.1950  0.9108
   78SLPC    C2 7102   3.018   0.471   5.861 -0.0148  0.3596 -0.7471
   78SLPC    HS 7103   2.924   0.453   5.917 -0.5543  1.6885 -1.1613
   78SLPC   O21 7104   3.045   0.372   5.757 -0.2184  0.2231  0.2231
   78SLPC   C21 7105   2.935   0.313   5.706 -0.5514  0.1677  0.9209
   78SLPC   O22 7106   2.822   0.346   5.733 -0.2635 -0.2496  0.5775
   78SLPC   C22 7107   2.984   0.196   5.621 -0.3479  0.7529  1.0571
   78SLPC   H2R 7108   3.085   0.220   5.583 -0.3773  0.4012  0.7413
   78SLPC   H2S 7109   2.992   0.105   5.685  2.5248 -0.4006 -0.7517
   78SLPC    C3 7110   3.007   0.614   5.790  0.6240  0.4063  0.2056
   78SLPC    HX 7111   3.111   0.645   5.768  1.5643 -1.2096  2.0642
   78SLPC    HY 7112   2.974   0.680   5.874  0.1847 -0.9063  1.0961
   78SLPC   O31 7113   2.916   0.627   5.678 -0.5195  0.0530 -0.7461
   78SLPC   C31 7114   2.787   0.659   5.702 -0.7067  0.3565 -0.1191
   78SLPC   O32 7115   2.753   0.697   5.811  0.1160  0.3478 -0.0269
   78SLPC   C32 7116   2.700   0.635   5.583 -0.1736 -0.4732  0.4299
   78SLPC   H2X 7117   2.599   0.675   5.605 -0.2663 -0.7830  0.5736
   78SLPC   H2Y 7118   2.694   0.526   5.565 -0.6643 -0.2482 -0.8887
   78SLPC   C23 7119   2.895   0.179   5.496  0.2331  0.0117  0.5722
   78SLPC   H3R 7120   2.786   0.191   5.518  0.1607 -0.2524  0.3552
   78SLPC   H3S 7121   2.912   0.075   5.461  2.0268  0.5205 -0.1396
   78SLPC   C24 7122   2.923   0.285   5.392  0.5039  0.0695 -0.0535
   78SLPC   H4R 7123   3.032   0.302   5.375  0.4696  0.9627  0.5568
   78SLPC   H4S 7124   2.888   0.380   5.437  0.3663 -0.0014 -0.0122
   78SLPC   C25 7125   2.855   0.239   5.263  0.0816  0.1584  0.1526
   78SLPC   H5R 7126   2.744   0.228   5.262  0.1743 -1.2726  1.2311
   78SLPC   H5S 7127   2.896   0.136   5.256 -0.1377  0.0567  0.3194
   78SLPC   C26 7128   2.904   0.326   5.149 -0.3631 -0.7961 -0.0218
   78SLPC   H6R 7129   3.014   0.327   5.164 -0.4147  1.1587  0.4030
   78SLPC   H6S 7130   2.864   0.429   5.158 -1.0711 -0.9760 -1.0204
   78SLPC   C27 7131   2.863   0.269   5.019  0.4587  0.0818  0.1213
   78SLPC   H7R 7132   2.753   0.273   5.010  0.4629 -2.0280 -2.1955
   78SLPC   H7S 7133   2.894   0.162   5.015  1.2453  0.2094  1.7949
   78SLPC   C28 7134   2.908   0.353   4.895  0.3310  0.2209 -0.7453
   78SLPC   H8R 7135   2.880   0.459   4.915  1.7441  0.5308 -0.3115
   78SLPC   H8S 7136   2.851   0.321   4.804 -2.6559  2.6072  0.1031
   78SLPC   C29 7137   3.053   0.335   4.866 -0.1297  0.5292  0.1130
   78SLPC   H9R 7138   3.081   0.241   4.816  1.2490  2.2873 -2.6516
   78SLPC  C210 7139   3.149   0.416   4.902 -0.0916  0.2670  0.4745
   78SLPC  H10R 7140   3.254   0.383   4.894 -0.4931 -0.8369 -0.5449
   78SLPC  C211 7141   3.128   0.548   4.957  0.0904 -0.4815 -0.0978
   78SLPC  H11R 7142   3.048   0.551   5.035  0.1361  0.5490 -0.0752
   78SLPC  H11S 7143   3.090   0.618   4.879  1.6592 -2.1927 -2.5298
   78SLPC  C212 7144   3.251   0.616   5.003 -0.5411  0.3977  0.1694
   78SLPC  H12R 7145   3.321   0.640   4.921 -2.8624 -0.7969 -2.3185
   78SLPC  C213 7146   3.286   0.624   5.130 -0.1460  0.2056 -0.2195
   78SLPC  H13R 7147   3.381   0.664   5.167 -0.0098 -1.2281  1.1331
   78SLPC  C214 7148   3.208   0.557   5.242  0.7881 -0.0948  0.3928
   78SLPC  H14R 7149   3.191   0.452   5.212 -0.0509  0.5448 -1.5605
   78SLPC  H14S 7150   3.106   0.601   5.233  0.2869 -1.1750  0.6831
   78SLPC  C215 7151   3.292   0.561   5.375  1.0728 -0.2000 -0.5340
   78SLPC  H15R 7152   3.301   0.667   5.405 -1.8215 -0.1746  0.6217
   78SLPC  H15S 7153   3.394   0.526   5.348  0.6648 -0.1803 -2.2182
   78SLPC  C216 7154   3.231   0.482   5.490  0.3832 -0.2192  0.1615
   78SLPC  H16R 7155   3.243   0.372   5.477 -1.4575 -0.5350  0.8440
   78SLPC  H16S 7156   3.124   0.510   5.495  0.2580 -0.6759  0.0750
   78SLPC  C217 7157   3.303   0.512   5.620  0.1134  0.2736  0.3152
   78SLPC  H17R 7158   3.247   0.452   5.695 -1.5187 -1.0366 -1.8310
   78SLPC  H17S 7159   3.293   0.616   5.658  1.7639  0.0866  1.4022
   78SLPC  C218 7160   3.455   0.479   5.624  0.4949 -0.8316  0.0063
   78SLPC  H18R 7161   3.480   0.502   5.730  1.3673 -1.0785 -0.1385
   78SLPC  H18S 7162   3.503   0.542   5.546 -1.8028  1.2907  0.1901
   78SLPC  H18T 7163   3.489   0.375   5.604  1.5172 -1.0220  2.3729
   78SLPC   C33 7164   2.762   0.695   5.446  0.5130 -0.4613 -0.2442
   78SLPC   H3X 7165   2.867   0.661   5.438  1.0291 -0.4977  4.3977
   78SLPC   H3Y 7166   2.760   0.804   5.467  1.8089 -0.1573 -1.5218
   78SLPC   C34 7167   2.683   0.651   5.324  0.8199  0.4290  0.5155
   78SLPC   H4X 7168   2.574   0.660   5.342  0.9797 -0.1415  1.9083
   78SLPC   H4Y 7169   2.705   0.546   5.297  0.4741  0.5376 -0.2158
   78SLPC   C35 7170   2.728   0.735   5.206 -0.7138  0.2603  1.0994
   78SLPC   H5X 7171   2.834   0.711   5.183 -0.5547  0.8670  1.1738
   78SLPC   H5Y 7172   2.725   0.846   5.212  0.2318  0.3858 -0.2743
   78SLPC   C36 7173   2.640   0.696   5.088  0.4428  0.4226 -0.6748
   78SLPC   H6X 7174   2.539   0.741   5.075  0.5211  0.2113 -2.0892
   78SLPC   H6Y 7175   2.632   0.586   5.084  2.0186  0.2895 -1.0217
   78SLPC   C37 7176   2.720   0.736   4.959 -0.2396  0.7914 -0.0494
   78SLPC   H7X 7177   2.828   0.708   4.959 -0.5500 -0.6039  1.9485
   78SLPC   H7Y 7178   2.706   0.846   4.955  0.9908  0.9386 -0.6394
   78SLPC   C38 7179   2.657   0.656   4.840  0.2905 -0.2458 -0.4445
   78SLPC   H8X 7180   2.555   0.632   4.880  0.4741  1.8150  1.5146
   78SLPC   H8Y 7181   2.713   0.563   4.818  0.0576 -0.3425 -0.6383
   78SLPC   C39 7182   2.649   0.739   4.710 -0.5152 -0.5332  0.3796
   78SLPC   H9X 7183   2.746   0.723   4.657 -0.7217 -2.5930  0.5201
   78SLPC   H9Y 7184   2.630   0.846   4.732  0.2714 -0.3880  0.3881
   78SLPC  C310 7185   2.545   0.685   4.611 -0.0934 -0.2037  0.1888
   78SLPC  H10X 7186   2.543   0.732   4.510 -0.9855 -1.0616 -0.2153
   78SLPC  H10Y 7187   2.443   0.708   4.648  0.2227 -1.1740  1.7680
   78SLPC  C311 7188   2.540   0.530   4.607  0.4601 -0.6163  0.6590
   78SLPC  H11X 7189   2.487   0.500   4.700 -0.8139 -0.5797 -0.0194
   78SLPC  H11Y 7190   2.644   0.498   4.588  0.0122 -1.2754 -0.9044
   78SLPC  C312 7191   2.454   0.497   4.483 -0.8776 -0.6206  0.2815
   78SLPC  H12X 7192   2.357   0.551   4.488 -0.0446  0.8999  0.5447
   78SLPC  H12Y 7193   2.428   0.389   4.484  1.5996 -1.2869  2.6600
   78SLPC  C313 7194   2.525   0.531   4.347  0.8506  0.2864 -0.5293
   78SLPC  H13X 7195   2.633   0.508   4.355  0.3053 -2.1373  0.6310
   78SLPC  H13Y 7196   2.515   0.636   4.312 -0.2089 -0.6713 -3.3865
   78SLPC  C314 7197   2.465   0.466   4.222  0.0360  0.5087 -0.1968
   78SLPC  H14X 7198   2.356   0.479   4.210 -0.2130 -1.5663 -0.4822
   78SLPC  H14Y 7199   2.469   0.355   4.226 -0.0003  0.5339  0.7702
   78SLPC  C315 7200   2.543   0.513   4.097  0.3158 -0.3142 -0.5350
   78SLPC  H15X 7201   2.637   0.458   4.076  0.0892 -0.3023 -1.6492
   78SLPC  H15Y 7202   2.576   0.618   4.110 -1.4792  0.3152 -0.8398
   78SLPC  C316 7203   2.451   0.517   3.979  0.3796  0.0430  0.6251
   78SLPC  H16X 7204   2.378   0.600   3.991 -0.9000 -1.2339  1.9940
   78SLPC  H16Y 7205   2.397   0.421   3.987 -0.6654  0.3892 -1.6257
   78SLPC  C317 7206   2.517   0.518   3.843 -0.3674  0.1335 -0.4759
   78SLPC  H17X 7207   2.567   0.421   3.822 -0.3853  0.3618 -1.6369
   78SLPC  H17Y 7208   2.594   0.597   3.834  0.3760 -0.4215  0.7586
   78SLPC  C318 7209   2.412   0.533   3.732  0.2442 -0.6002  0.3201
   78SLPC  H18X 7210   2.349   0.624   3.738  0.9527  0.0098 -1.0078
   78SLPC  H18Y 7211   2.355   0.439   3.715 -0.5047 -0.1718  0.4280
   78SLPC  H18Z 7212   2.462   0.544   3.633  0.0711 -2.7718 -0.0688
   79SLPC     N 7213   6.855   3.863   5.746  0.1238 -0.0304  0.2543
   79SLPC   C13 7214   6.938   3.749   5.782  0.5782 -0.2369  0.0117
   79SLPC  H13A 7215   7.025   3.740   5.719  2.0265  0.6401  1.8151
   79SLPC  H13B 7216   6.975   3.768   5.881  2.0403  2.0098 -0.8824
   79SLPC  H13C 7217   6.875   3.661   5.782  0.9715 -0.5390 -1.2290
   79SLPC   C14 7218   6.795   3.825   5.614 -0.1759  0.0449  0.1189
   79SLPC  H14A 7219   6.732   3.739   5.635  0.4484  0.1811  3.0431
   79SLPC  H14B 7220   6.730   3.903   5.576 -1.7244 -0.2286  2.0282
   79SLPC  H14C 7221   6.862   3.800   5.533 -0.6981 -1.5998  0.1462
   79SLPC   C15 7222   6.946   3.982   5.753  0.1739  0.5889  0.4802
   79SLPC  H15A 7223   6.885   4.065   5.720  0.1956 -0.4060 -2.2561
   79SLPC  H15B 7224   6.977   4.010   5.853  2.2943 -1.1025  0.3728
   79SLPC  H15C 7225   7.025   3.973   5.680 -1.4825 -0.8843 -1.2359
   79SLPC   C12 7226   6.738   3.884   5.852 -0.4190  1.0921  0.0201
   79SLPC  H12A 7227   6.787   3.908   5.945 -1.1235  0.7051  0.4919
   79SLPC  H12B 7228   6.689   3.790   5.870  1.0517  0.3366  0.2247
   79SLPC   C11 7229   6.631   3.992   5.818  0.6680  0.5836 -0.0269
   79SLPC  H11A 7230   6.537   3.990   5.878  0.4520  0.9952 -0.3382
   79SLPC  H11B 7231   6.605   3.964   5.713 -1.4237  0.3764  0.4933
   79SLPC     P 7232   6.715   4.193   5.956 -0.0383  0.5533 -0.0506
   79SLPC   O13 7233   6.585   4.219   6.023 -0.3230 -0.8156  0.2547
   79SLPC   O14 7234   6.813   4.113   6.035  0.2915  0.3139  0.1136
   79SLPC   O12 7235   6.688   4.121   5.818  0.1833  0.3394  0.2978
   79SLPC   O11 7236   6.775   4.330   5.924  0.0721  0.7177 -0.2976
   79SLPC    C1 7237   6.708   4.425   5.839  0.1411 -0.3277  0.2327
   79SLPC    HA 7238   6.598   4.413   5.826  0.4610 -1.8487 -1.5179
   79SLPC    HB 7239   6.720   4.524   5.889  0.1402 -0.6188  0.8190
   79SLPC    C2 7240   6.768   4.443   5.700  0.4210 -0.2705  0.3396
   79SLPC    HS 7241   6.709   4.527   5.658 -0.9808 -1.8615 -0.9963
   79SLPC   O21 7242   6.751   4.327   5.614  0.0830 -0.3765 -0.6763
   79SLPC   C21 7243   6.630   4.302   5.577 -0.3642  0.7422 -0.2197
   79SLPC   O22 7244   6.530   4.365   5.612  0.2827  0.0478 -0.1531
   79SLPC   C22 7245   6.620   4.173   5.494  0.3008 -0.2596 -0.5013
   79SLPC   H2R 7246   6.725   4.142   5.471  1.7826  3.3471  0.7343
   79SLPC   H2S 7247   6.571   4.090   5.550 -1.9526  1.8965  0.9097
   79SLPC    C3 7248   6.916   4.487   5.706  0.2568 -0.1482 -0.0379
   79SLPC    HX 7249   6.975   4.423   5.774 -1.2119 -0.5101  0.9267
   79SLPC    HY 7250   6.914   4.586   5.756  2.7791 -0.1910  0.3201
   79SLPC   O31 7251   6.976   4.489   5.572 -0.2679  0.6863 -0.1756
   79SLPC   C31 7252   7.036   4.367   5.532 -1.0653 -0.0991 -0.4243
   79SLPC   O32 7253   7.066   4.277   5.609  0.3727 -0.6598 -0.5427
   79SLPC   C32 7254   7.063   4.374   5.381  0.5770  0.2214 -0.4115
   79SLPC   H2X 7255   7.126   4.460   5.350 -2.0730  2.5746  0.3841
   79SLPC   H2Y 7256   6.961   4.396   5.345  1.5814  1.4098 -2.7775
   79SLPC   C23 7257   6.532   4.205   5.373 -0.5061  0.3647 -0.9183
   79SLPC   H3R 7258   6.442   4.258   5.410  1.9843  3.4362  1.3274
   79SLPC   H3S 7259   6.500   4.104   5.341  0.7782 -1.0575  1.9597
   79SLPC   C24 7260   6.607   4.266   5.256 -0.3149  0.3207  0.7432
   79SLPC   H4R 7261   6.545   4.249   5.165 -1.1430  0.4368  1.2747
   79SLPC   H4S 7262   6.709   4.222   5.249 -0.1490  0.7537  0.3921
   79SLPC   C25 7263   6.618   4.421   5.264  0.2697  0.2626  0.6510
   79SLPC   H5R 7264   6.689   4.460   5.341 -0.4441  3.5276 -0.1596
   79SLPC   H5S 7265   6.515   4.459   5.280 -0.2970 -0.6742 -0.6066
   79SLPC   C26 7266   6.660   4.484   5.130 -0.2524  0.7520  0.9229
   79SLPC   H6R 7267   6.614   4.444   5.037  1.4659  2.9513 -0.9992
   79SLPC   H6S 7268   6.766   4.455   5.110 -0.7178 -0.1863 -0.3419
   79SLPC   C27 7269   6.654   4.640   5.116  0.4133  0.0893  0.0089
   79SLPC   H7R 7270   6.720   4.679   5.197  0.5567  1.7397 -0.8724
   79SLPC   H7S 7271   6.548   4.656   5.144  1.0176  0.0787  2.5120
   79SLPC   C28 7272   6.689   4.691   4.974  0.1508 -0.0487  0.0405
   79SLPC   H8R 7273   6.649   4.617   4.902  0.1661 -0.1166  0.1016
   79SLPC   H8S 7274   6.799   4.680   4.982 -0.0801 -1.1068  2.6040
   79SLPC   C29 7275   6.640   4.832   4.956  0.7582 -0.6495  0.6783
   79SLPC   H9R 7276   6.676   4.902   5.034  0.7516 -0.9603  0.9605
   79SLPC  C210 7277   6.550   4.873   4.867 -0.7343  0.4699 -0.6173
   79SLPC  H10R 7278   6.514   4.975   4.887  1.5538  1.5808 -1.7496
   79SLPC  C211 7279   6.468   4.791   4.770 -0.2077  0.0343  0.5848
   79SLPC  H11R 7280   6.369   4.839   4.759 -1.6490 -2.5854  1.3070
   79SLPC  H11S 7281   6.428   4.696   4.811 -1.1515  0.5896  0.9887
   79SLPC  C212 7282   6.521   4.775   4.629  0.1901 -0.3668 -0.2985
   79SLPC  H12R 7283   6.623   4.735   4.623  0.7701  1.2125 -1.3782
   79SLPC  C213 7284   6.465   4.804   4.508  0.8233  0.3553 -0.5662
   79SLPC  H13R 7285   6.528   4.784   4.420  0.4452 -0.6093 -0.6252
   79SLPC  C214 7286   6.333   4.867   4.489 -0.0897 -0.2889 -0.2645
   79SLPC  H14R 7287   6.321   4.961   4.547  1.2677  1.2412 -2.3522
   79SLPC  H14S 7288   6.254   4.795   4.520  0.7299 -2.7087 -3.2993
   79SLPC  C215 7289   6.283   4.907   4.354 -0.3948  0.3383 -0.2472
   79SLPC  H15R 7290   6.360   4.982   4.325 -0.6360  0.7672  0.1968
   79SLPC  H15S 7291   6.183   4.955   4.358 -1.4260 -1.6190 -1.2219
   79SLPC  C216 7292   6.282   4.788   4.261  0.5571 -0.1096  0.3384
   79SLPC  H16R 7293   6.197   4.721   4.285  0.7715 -0.6874 -0.4397
   79SLPC  H16S 7294   6.375   4.729   4.272  1.2267  0.9405  0.3982
   79SLPC  C217 7295   6.261   4.831   4.108  0.2307 -0.1641 -0.6397
   79SLPC  H17R 7296   6.338   4.901   4.072  0.6950 -0.6878 -0.6814
   79SLPC  H17S 7297   6.169   4.893   4.106  1.8724  2.5180  1.0215
   79SLPC  C218 7298   6.244   4.710   4.023 -0.6375  0.6811  0.6051
   79SLPC  H18R 7299   6.195   4.737   3.928  1.0510  1.6940 -0.0322
   79SLPC  H18S 7300   6.186   4.635   4.081 -1.6220 -1.1578 -2.5199
   79SLPC  H18T 7301   6.346   4.675   3.995 -0.6775  2.9691 -3.0359
   79SLPC   C33 7302   7.110   4.234   5.324  0.1654 -0.5506 -0.5355
   79SLPC   H3X 7303   7.204   4.208   5.379 -0.9158  0.3493  1.9000
   79SLPC   H3Y 7304   7.148   4.246   5.220 -0.6140  0.0643 -0.7520
   79SLPC   C34 7305   6.997   4.136   5.323  0.1712  0.2819  0.6974
   79SLPC   H4X 7306   6.912   4.179   5.266 -0.9917 -0.7873  1.5632
   79SLPC   H4Y 7307   6.946   4.134   5.422  0.8563  2.6333  1.1718
   79SLPC   C35 7308   7.043   3.992   5.283  0.8281 -0.2472 -0.1140
   79SLPC   H5X 7309   6.954   3.927   5.295 -0.5462  1.5238 -0.1603
   79SLPC   H5Y 7310   7.117   3.960   5.359 -1.2497  1.1643  2.6795
   79SLPC   C36 7311   7.090   3.982   5.140 -0.1317  0.1034 -0.0586
   79SLPC   H6X 7312   7.176   4.043   5.107 -0.9295  1.2127 -0.1315
   79SLPC   H6Y 7313   7.001   4.018   5.084  1.0590 -0.1446 -2.2262
   79SLPC   C37 7314   7.103   3.826   5.106 -0.2481  0.4035 -0.0991
   79SLPC   H7X 7315   7.039   3.757   5.164 -0.4125 -0.8801 -1.7662
   79SLPC   H7Y 7316   7.201   3.784   5.136  0.4635  2.2100  0.2671
   79SLPC   C38 7317   7.072   3.798   4.960 -0.0483  0.7945  0.4577
   79SLPC   H8X 7318   6.976   3.850   4.938 -0.2075 -0.0155 -0.8808
   79SLPC   H8Y 7319   7.058   3.689   4.945  2.5235 -0.0219  3.0068
   79SLPC   C39 7320   7.191   3.864   4.874 -0.1556  0.6777  0.0314
   79SLPC   H9X 7321   7.287   3.831   4.919 -0.8300 -0.2557  0.8217
   79SLPC   H9Y 7322   7.185   3.974   4.884  1.3770  0.6762  1.5131
   79SLPC  C310 7323   7.197   3.826   4.725  0.3990 -0.1637  0.1431
   79SLPC  H10X 7324   7.223   3.718   4.726 -3.1484 -1.1416  1.8341
   79SLPC  H10Y 7325   7.290   3.878   4.693  1.5736 -2.0585  0.3083
   79SLPC  C311 7326   7.066   3.857   4.656  0.7058  0.5659 -0.4086
   79SLPC  H11X 7327   7.095   3.902   4.558  3.0871  1.8627  0.8266
   79SLPC  H11Y 7328   7.017   3.942   4.708  3.2822  1.0358  1.4355
   79SLPC  C312 7329   6.960   3.748   4.635  0.5485  0.0608 -1.3742
   79SLPC  H12X 7330   6.868   3.802   4.605  1.1981  1.3526 -1.0945
   79SLPC  H12Y 7331   6.931   3.699   4.731  0.3336  1.1725 -0.8546
   79SLPC  C313 7332   7.010   3.656   4.527 -1.0166  0.0809 -0.2252
   79SLPC  H13X 7333   7.089   3.585   4.561  0.7860  1.7908 -0.6973
   79SLPC  H13Y 7334   7.060   3.714   4.447  0.4117 -0.7058  0.0594
   79SLPC  C314 7335   6.890   3.582   4.464  0.2359 -0.6347  0.5474
   79SLPC  H14X 7336   6.811   3.653   4.434  0.7116  0.5807  2.0007
   79SLPC  H14Y 7337   6.844   3.518   4.542  1.0137 -1.4370  0.3641
   79SLPC  C315 7338   6.935   3.484   4.353  0.3538  0.6367 -0.4431
   79SLPC  H15X 7339   7.004   3.412   4.400  0.3167  0.0842 -1.2043
   79SLPC  H15Y 7340   6.989   3.537   4.272  3.4649 -1.7338 -0.0937
   79SLPC  C316 7341   6.815   3.423   4.282  0.4032 -0.2944 -0.1955
   79SLPC  H16X 7342   6.755   3.381   4.366  3.7696  0.0747  2.6269
   79SLPC  H16Y 7343   6.854   3.341   4.217 -0.3600 -1.8221  1.1804
   79SLPC  C317 7344   6.732   3.518   4.200 -0.6181 -0.3778 -0.2928
   79SLPC  H17X 7345   6.797   3.555   4.118 -1.1987  1.2008 -0.0860
   79SLPC  H17Y 7346   6.699   3.604   4.263 -0.0759 -0.4627  0.1106
   79SLPC  C318 7347   6.624   3.440   4.131  0.0292 -0.1359 -0.3416
   79SLPC  H18X 7348   6.661   3.369   4.054  3.0826  2.1281 -1.1472
   79SLPC  H18Y 7349   6.565   3.513   4.072  1.3490  1.0709 -0.1990
   79SLPC  H18Z 7350   6.560   3.382   4.201  0.7216  0.1365  0.5293
   80SLPC     N 7351   6.028   7.066   6.539 -0.0522  0.5804 -0.4769
   80SLPC   C13 7352   5.991   7.103   6.680  0.3425 -0.8661  0.7386
   80SLPC  H13A 7353   5.944   7.019   6.729 -0.5597  0.8688  3.0106
   80SLPC  H13B 7354   6.078   7.141   6.731  0.0873 -1.1006  1.3548
   80SLPC  H13C 7355   5.917   7.181   6.678  0.9070 -0.3327  0.3962
   80SLPC   C14 7356   5.908   7.003   6.472  0.6253 -0.1650 -0.0486
   80SLPC  H14A 7357   5.817   7.061   6.478  1.5421  1.2274  1.1702
   80SLPC  H14B 7358   5.930   6.988   6.367  0.2833  1.1741 -0.3362
   80SLPC  H14C 7359   5.892   6.903   6.508  0.4242  0.4078  1.5037
   80SLPC   C15 7360   6.134   6.959   6.539  1.0151 -0.1137 -0.1394
   80SLPC  H15A 7361   6.221   6.992   6.595  0.2088  2.0829 -0.0859
   80SLPC  H15B 7362   6.096   6.870   6.586  0.4286  0.2448  0.0687
   80SLPC  H15C 7363   6.158   6.929   6.439  2.7672 -0.5734  0.3793
   80SLPC   C12 7364   6.080   7.183   6.457 -0.4411  0.8521  0.3167
   80SLPC  H12A 7365   6.102   7.148   6.357 -0.9599 -2.3172  1.1882
   80SLPC  H12B 7366   6.176   7.212   6.498 -0.7729 -0.9094  2.5661
   80SLPC   C11 7367   5.976   7.302   6.450 -0.2512 -0.3195  0.2834
   80SLPC  H11A 7368   5.889   7.273   6.388 -1.1192  0.2328  1.2088
   80SLPC  H11B 7369   6.037   7.381   6.401 -1.5246  0.5832  0.1100
   80SLPC     P 7370   5.880   7.489   6.599 -0.1746 -0.0669  0.0592
   80SLPC   O13 7371   5.757   7.475   6.678 -0.1081  0.3171  0.2121
   80SLPC   O14 7372   5.989   7.572   6.649 -0.7745  0.0639  0.1637
   80SLPC   O12 7373   5.936   7.342   6.575  0.6227  0.1722  0.5869
   80SLPC   O11 7374   5.842   7.537   6.457 -0.6450  0.4625 -0.1381
   80SLPC    C1 7375   5.707   7.541   6.408  0.3658  0.2436 -0.2361
   80SLPC    HA 7376   5.659   7.441   6.411  3.4601 -1.3664 -0.0787
   80SLPC    HB 7377   5.651   7.613   6.471  0.7946  1.3350 -1.0755
   80SLPC    C2 7378   5.694   7.586   6.258 -0.6821  0.5193 -0.2372
   80SLPC    HS 7379   5.587   7.567   6.234 -1.1391 -0.7894  2.4718
   80SLPC   O21 7380   5.787   7.516   6.173 -0.1964  0.5953 -0.4456
   80SLPC   C21 7381   5.754   7.392   6.149 -0.2379 -0.7997  0.0264
   80SLPC   O22 7382   5.658   7.330   6.183  0.1702 -0.2355  0.2130
   80SLPC   C22 7383   5.863   7.327   6.062 -0.0146  0.5776  0.1248
   80SLPC   H2R 7384   5.927   7.409   6.022 -1.2983  2.0023  0.9073
   80SLPC   H2S 7385   5.921   7.266   6.134  0.5092  1.7922  0.7588
   80SLPC    C3 7386   5.721   7.734   6.242 -0.8247  0.8974 -0.3977
   80SLPC    HX 7387   5.808   7.765   6.304 -2.0428 -2.0826  3.1192
   80SLPC    HY 7388   5.630   7.790   6.276 -1.2959  0.6711 -1.2601
   80SLPC   O31 7389   5.732   7.764   6.104 -1.1453  0.1740  0.1583
   80SLPC   C31 7390   5.619   7.777   6.034  0.0740  0.2776  0.1191
   80SLPC   O32 7391   5.508   7.767   6.080 -0.2818  0.4702 -0.2767
   80SLPC   C32 7392   5.664   7.800   5.881  0.4046  0.2266 -0.3482
   80SLPC   H2X 7393   5.702   7.903   5.870  0.4727  0.3780  1.0979
   80SLPC   H2Y 7394   5.569   7.781   5.826  0.9305 -4.3806 -0.0587
   80SLPC   C23 7395   5.828   7.234   5.946 -0.1836  0.2576  0.4851
   80SLPC   H3R 7396   5.747   7.165   5.979 -2.5776  3.6884  2.3724
   80SLPC   H3S 7397   5.915   7.171   5.918 -0.7334 -0.6137  0.6743
   80SLPC   C24 7398   5.782   7.306   5.816  0.3092 -0.1416 -0.1522
   80SLPC   H4R 7399   5.841   7.255   5.736  0.7380  0.4055 -0.1886
   80SLPC   H4S 7400   5.800   7.415   5.818  0.7623 -0.2064 -0.5122
   80SLPC   C25 7401   5.629   7.280   5.775 -0.7294 -0.6778  0.3989
   80SLPC   H5R 7402   5.609   7.172   5.791 -0.5118 -0.5228  1.7626
   80SLPC   H5S 7403   5.607   7.290   5.666 -3.5790  1.5903  1.0444
   80SLPC   C26 7404   5.514   7.349   5.859  0.8021  0.0433  0.4026
   80SLPC   H6R 7405   5.512   7.458   5.841 -0.9124 -0.3349 -2.2395
   80SLPC   H6S 7406   5.532   7.325   5.966  0.5222  0.4058  0.5335
   80SLPC   C27 7407   5.375   7.304   5.818 -0.0979 -0.2092 -0.4189
   80SLPC   H7R 7408   5.295   7.317   5.894 -0.7152 -1.0362 -0.9059
   80SLPC   H7S 7409   5.386   7.195   5.837  3.1765  0.1863  0.5399
   80SLPC   C28 7410   5.336   7.334   5.663  0.5765  0.0422 -0.3888
   80SLPC   H8R 7411   5.396   7.262   5.604 -0.2379  0.2878 -1.5589
   80SLPC   H8S 7412   5.361   7.436   5.627  0.9358  0.5341  1.1543
   80SLPC   C29 7413   5.188   7.326   5.638  0.4088 -0.4874 -0.9390
   80SLPC   H9R 7414   5.122   7.353   5.722  1.3661 -2.5217  0.5559
   80SLPC  C210 7415   5.137   7.287   5.525  0.0831  0.0955 -0.5002
   80SLPC  H10R 7416   5.027   7.291   5.519  0.0839 -0.0716 -0.6070
   80SLPC  C211 7417   5.204   7.230   5.401 -0.5390  0.5523 -0.7957
   80SLPC  H11R 7418   5.313   7.248   5.418 -0.8182  0.2441  1.7675
   80SLPC  H11S 7419   5.175   7.288   5.311 -0.0346 -0.3636 -1.5640
   80SLPC  C212 7420   5.183   7.083   5.386  0.3411  0.1085 -1.1458
   80SLPC  H12R 7421   5.254   7.018   5.440 -2.4059 -2.3599 -0.2239
   80SLPC  C213 7422   5.086   7.027   5.304 -1.2074  0.0807  0.3443
   80SLPC  H13R 7423   5.082   6.918   5.294 -3.3080  0.1730 -0.2210
   80SLPC  C214 7424   4.973   7.093   5.222 -0.4134 -0.8512 -0.5578
   80SLPC  H14R 7425   4.980   7.203   5.232 -0.0922 -0.8696 -0.5825
   80SLPC  H14S 7426   4.875   7.068   5.268 -0.9478  0.2083 -1.0745
   80SLPC  C215 7427   4.973   7.052   5.073  1.1002 -0.3056 -0.5478
   80SLPC  H15R 7428   4.884   7.102   5.029  2.0626  1.4962 -0.5421
   80SLPC  H15S 7429   4.977   6.941   5.065 -0.7388 -0.3835 -0.8366
   80SLPC  C216 7430   5.101   7.110   5.002  0.5085 -0.5149 -0.0636
   80SLPC  H16R 7431   5.196   7.092   5.056  1.5381  2.0542 -0.9043
   80SLPC  H16S 7432   5.072   7.216   5.014 -0.2919 -0.6750 -0.4740
   80SLPC  C217 7433   5.108   7.064   4.856 -0.2447 -0.3417  0.2702
   80SLPC  H17R 7434   5.005   7.077   4.816 -0.0031  0.6291 -0.0767
   80SLPC  H17S 7435   5.127   6.956   4.844  1.8575  0.1200 -1.0619
   80SLPC  C218 7436   5.204   7.135   4.757 -0.4555  0.0278 -0.4409
   80SLPC  H18R 7437   5.307   7.123   4.798 -1.0785 -1.5144  0.7615
   80SLPC  H18S 7438   5.176   7.242   4.747 -3.8135 -0.6176  0.8115
   80SLPC  H18T 7439   5.207   7.078   4.662  1.0274 -1.5467  0.4919
   80SLPC   C33 7440   5.757   7.688   5.808 -0.3820 -0.5959  0.4309
   80SLPC   H3X 7441   5.692   7.600   5.787  0.1889 -0.7373 -0.8476
   80SLPC   H3Y 7442   5.837   7.659   5.878 -0.3581 -0.5273  0.4326
   80SLPC   C34 7443   5.808   7.747   5.680  0.0942  0.6384  0.9764
   80SLPC   H4X 7444   5.884   7.827   5.694  1.3022 -0.5365  1.3118
   80SLPC   H4Y 7445   5.715   7.781   5.630  0.1840  0.1246  0.4562
   80SLPC   C35 7446   5.899   7.641   5.606 -0.5757 -1.1967  0.8468
   80SLPC   H5X 7447   5.835   7.550   5.598 -0.3956 -1.3957  1.6272
   80SLPC   H5Y 7448   5.987   7.619   5.670  0.7722  2.3432  0.4390
   80SLPC   C36 7449   5.943   7.690   5.472  0.2777 -0.9330  0.2331
   80SLPC   H6X 7450   6.013   7.625   5.416  2.0086 -0.5174  1.8154
   80SLPC   H6Y 7451   5.981   7.791   5.501 -2.0806 -0.4196  1.8223
   80SLPC   C37 7452   5.821   7.708   5.370  0.1361  0.8083 -0.1700
   80SLPC   H7X 7453   5.872   7.725   5.273  1.3166 -2.3842 -0.2256
   80SLPC   H7Y 7454   5.757   7.794   5.400  0.0441  1.2658 -1.5758
   80SLPC   C38 7455   5.731   7.587   5.368 -0.7791  1.4196 -0.1904
   80SLPC   H8X 7456   5.679   7.566   5.464 -1.7240 -1.4698 -1.2187
   80SLPC   H8Y 7457   5.796   7.500   5.345  0.3606  2.4824 -1.1206
   80SLPC   C39 7458   5.627   7.576   5.260  0.2834  0.2497 -0.8507
   80SLPC   H9X 7459   5.685   7.592   5.167 -1.2011  1.1116 -1.6779
   80SLPC   H9Y 7460   5.554   7.659   5.271  0.1445 -0.0147  0.3317
   80SLPC  C310 7461   5.545   7.443   5.259 -0.0959  0.1002  0.3662
   80SLPC  H10X 7462   5.493   7.436   5.356  0.1951  1.2946  0.6278
   80SLPC  H10Y 7463   5.605   7.357   5.223 -1.0911 -0.6994  0.5797
   80SLPC  C311 7464   5.438   7.449   5.149  0.4000  0.6459 -0.7509
   80SLPC  H11X 7465   5.358   7.523   5.171  1.4381  1.0891  1.8912
   80SLPC  H11Y 7466   5.375   7.358   5.139 -0.0870  1.1224 -2.3678
   80SLPC  C312 7467   5.486   7.467   5.004 -0.2423 -0.6238  0.3628
   80SLPC  H12X 7468   5.558   7.391   4.965 -0.0631 -0.1243 -0.3085
   80SLPC  H12Y 7469   5.543   7.562   5.008 -0.8495 -0.2580  0.3938
   80SLPC  C313 7470   5.370   7.503   4.907 -0.3668  0.0106 -0.3705
   80SLPC  H13X 7471   5.333   7.601   4.942 -0.3533 -0.0149 -0.2836
   80SLPC  H13Y 7472   5.290   7.426   4.914 -1.9737  1.5893 -0.7850
   80SLPC  C314 7473   5.429   7.509   4.767 -0.3710  0.2890 -0.0015
   80SLPC  H14X 7474   5.477   7.412   4.744  1.9664  1.3409  0.1941
   80SLPC  H14Y 7475   5.508   7.587   4.756  1.1307 -1.2641 -0.6020
   80SLPC  C315 7476   5.327   7.554   4.657 -0.3651  0.3954  0.0881
   80SLPC  H15X 7477   5.238   7.488   4.649  0.4437 -0.6313 -0.7100
   80SLPC  H15Y 7478   5.378   7.537   4.560  2.1846 -1.9967  1.7093
   80SLPC  C316 7479   5.286   7.699   4.672 -0.0972 -0.1252  0.6012
   80SLPC  H16X 7480   5.376   7.763   4.679  1.0458 -1.5715 -0.2459
   80SLPC  H16Y 7481   5.225   7.701   4.765  0.6748 -0.0736  1.1234
   80SLPC  C317 7482   5.204   7.747   4.547 -0.7521 -0.0886  0.3050
   80SLPC  H17X 7483   5.130   7.671   4.516  0.1712 -0.9777  0.2421
   80SLPC  H17Y 7484   5.278   7.760   4.465 -2.1841  1.3354 -0.8231
   80SLPC  C318 7485   5.138   7.882   4.579  0.9001  0.1294 -0.0341
   80SLPC  H18X 7486   5.091   7.874   4.680 -0.4438  2.6028 -0.3911
   80SLPC  H18Y 7487   5.056   7.901   4.506  0.4002  1.9419  0.9403
   80SLPC  H18Z 7488   5.206   7.969   4.573  1.8126 -0.5455  0.2614
   81SLPC     N 7489   3.925   3.742   1.310 -0.4131 -0.5696  0.2662
   81SLPC   C13 7490   4.026   3.717   1.201 -0.1534 -0.8926  0.6454
   81SLPC  H13A 7491   4.009   3.784   1.119  1.0134 -0.4907  0.7103
   81SLPC  H13B 7492   4.127   3.715   1.239  0.0854 -1.4587 -0.0195
   81SLPC  H13C 7493   4.012   3.619   1.158  1.2035 -0.9997  0.3963
   81SLPC   C14 7494   3.949   3.631   1.407  0.0253 -0.5788  0.6047
   81SLPC  H14A 7495   3.936   3.534   1.361 -2.3997  1.0986 -2.7554
   81SLPC  H14B 7496   4.046   3.639   1.453  0.4588 -0.5696 -0.2823
   81SLPC  H14C 7497   3.869   3.634   1.479  0.2718 -2.9894  1.0455
   81SLPC   C15 7498   3.793   3.728   1.259  0.5517  0.5507  0.7286
   81SLPC  H15A 7499   3.794   3.650   1.184 -1.1304  1.3647 -0.2079
   81SLPC  H15B 7500   3.728   3.694   1.339  1.4135  0.7208  1.5254
   81SLPC  H15C 7501   3.762   3.822   1.216 -0.4424  0.1163  0.4496
   81SLPC   C12 7502   3.961   3.885   1.365 -0.0707 -0.0273  0.3515
   81SLPC  H12A 7503   3.952   3.964   1.292  0.7336 -1.0595 -0.8781
   81SLPC  H12B 7504   4.065   3.894   1.393 -0.2664  1.1328  0.7883
   81SLPC   C11 7505   3.887   3.919   1.500 -0.3891  0.0360  0.2819
   81SLPC  H11A 7506   3.779   3.895   1.487 -0.0207 -0.8402 -1.5240
   81SLPC  H11B 7507   3.883   4.028   1.522  1.5745  0.2436 -0.1954
   81SLPC     P 7508   4.063   3.906   1.688 -0.0174 -0.4550  0.4818
   81SLPC   O13 7509   4.123   3.805   1.777 -0.2911 -0.6907 -0.5026
   81SLPC   O14 7510   4.160   3.971   1.596 -0.6059  0.3699  0.6218
   81SLPC   O12 7511   3.940   3.853   1.603 -0.0739 -0.3987 -0.1739
   81SLPC   O11 7512   3.991   4.013   1.774  0.2114  0.2670  0.5190
   81SLPC    C1 7513   3.897   3.988   1.878 -0.0166 -0.2481  0.8531
   81SLPC    HA 7514   3.812   3.929   1.836 -0.9531  0.4235  1.7674
   81SLPC    HB 7515   3.951   3.937   1.960  1.1354  0.9777  0.8946
   81SLPC    C2 7516   3.844   4.117   1.953  0.0335 -0.3785  0.7229
   81SLPC    HS 7517   3.788   4.164   1.870  0.8441  0.0947  0.4314
   81SLPC   O21 7518   3.958   4.194   1.989  0.0203 -0.2687 -0.0483
   81SLPC   C21 7519   3.943   4.326   1.993 -0.2767  0.4066 -0.4217
   81SLPC   O22 7520   3.834   4.384   1.984 -0.3778 -0.1084 -0.1875
   81SLPC   C22 7521   4.074   4.392   2.003  0.4880  0.1037 -0.4699
   81SLPC   H2R 7522   4.157   4.321   2.023  1.2979  1.4963  1.4108
   81SLPC   H2S 7523   4.105   4.455   1.916  1.9219  1.0258  0.6539
   81SLPC    C3 7524   3.742   4.079   2.065 -0.0233 -0.1298 -0.4448
   81SLPC    HX 7525   3.655   4.025   2.022 -0.6363  1.7445 -1.7008
   81SLPC    HY 7526   3.711   4.177   2.108 -1.1345 -1.2737  1.5495
   81SLPC   O31 7527   3.798   3.994   2.165 -0.0087  0.3978  0.1309
   81SLPC   C31 7528   3.842   4.037   2.281 -0.0497  0.2969  0.1448
   81SLPC   O32 7529   3.820   4.146   2.332  0.6096  0.0868 -0.3340
   81SLPC   C32 7530   3.903   3.913   2.346  0.8717  0.5406 -0.2253
   81SLPC   H2X 7531   4.003   3.901   2.300  0.2073  1.3083 -1.9946
   81SLPC   H2Y 7532   3.837   3.828   2.318  1.3051  0.9186 -2.6383
   81SLPC   C23 7533   4.069   4.474   2.131  0.2570  0.1553 -0.5642
   81SLPC   H3R 7534   3.974   4.528   2.148  0.3125  0.1553 -0.2383
   81SLPC   H3S 7535   4.155   4.544   2.129  0.4802 -0.0872  0.2676
   81SLPC   C24 7536   4.090   4.396   2.270  0.1757 -0.0186  0.3544
   81SLPC   H4R 7537   4.189   4.346   2.265  0.0395 -0.2444 -0.1067
   81SLPC   H4S 7538   4.013   4.318   2.285  2.1695 -2.2549 -0.3347
   81SLPC   C25 7539   4.105   4.499   2.385 -0.2220  1.1796 -1.1866
   81SLPC   H5R 7540   4.035   4.585   2.381 -1.0120  0.5314 -1.5371
   81SLPC   H5S 7541   4.208   4.538   2.374  0.5815 -0.5241 -0.2288
   81SLPC   C26 7542   4.096   4.434   2.525  0.6637  0.7067  0.4161
   81SLPC   H6R 7543   4.146   4.473   2.616 -2.3273 -1.7238  3.3414
   81SLPC   H6S 7544   4.132   4.329   2.531  0.1762  0.4577 -0.7771
   81SLPC   C27 7545   3.943   4.439   2.554  0.2391 -0.3294  0.2068
   81SLPC   H7R 7546   3.894   4.387   2.469 -4.1650 -0.5134  2.5715
   81SLPC   H7S 7547   3.914   4.546   2.545  5.3507  1.4366  1.4070
   81SLPC   C28 7548   3.886   4.388   2.690  0.2315 -0.0817  0.1803
   81SLPC   H8R 7549   3.778   4.414   2.681  0.5417  1.1194 -0.2577
   81SLPC   H8S 7550   3.938   4.442   2.771  1.9107 -0.6126 -0.4950
   81SLPC   C29 7551   3.887   4.239   2.705 -0.2550  0.0990 -0.1219
   81SLPC   H9R 7552   3.812   4.184   2.647  0.2362 -2.0192  1.1527
   81SLPC  C210 7553   3.968   4.162   2.784 -0.1890 -0.3894  0.8898
   81SLPC  H10R 7554   3.955   4.053   2.787  1.3065 -0.5730  1.8716
   81SLPC  C211 7555   4.093   4.213   2.860 -0.1142 -0.5198 -0.8212
   81SLPC  H11R 7556   4.056   4.243   2.961  0.5493 -1.1653 -0.3696
   81SLPC  H11S 7557   4.126   4.306   2.810 -1.6430  0.3857 -0.2110
   81SLPC  C212 7558   4.190   4.103   2.879 -0.0411 -0.4598 -0.1291
   81SLPC  H12R 7559   4.253   4.091   2.789  1.3069 -3.3099  1.0836
   81SLPC  C213 7560   4.216   4.020   2.982 -0.0383  0.5230  0.7758
   81SLPC  H13R 7561   4.303   3.953   2.975 -0.7544 -0.3599  0.1054
   81SLPC  C214 7562   4.146   4.013   3.118  0.1717 -0.0553  0.6291
   81SLPC  H14R 7563   4.097   3.913   3.116  1.8587 -0.9352  1.0313
   81SLPC  H14S 7564   4.063   4.087   3.120 -0.5939 -0.8321 -0.6744
   81SLPC  C215 7565   4.257   4.005   3.226 -0.1210  0.1404  0.3498
   81SLPC  H15R 7566   4.270   4.113   3.250 -1.1274  0.2939  0.2527
   81SLPC  H15S 7567   4.351   3.956   3.195 -1.3203 -0.6377 -2.2877
   81SLPC  C216 7568   4.216   3.920   3.349  0.5160 -0.1014  0.0624
   81SLPC  H16R 7569   4.119   3.953   3.392 -0.5905 -3.8516  0.7721
   81SLPC  H16S 7570   4.288   3.923   3.434  0.2591  0.3980  0.2692
   81SLPC  C217 7571   4.211   3.770   3.321  0.7418  0.6921  0.5710
   81SLPC  H17R 7572   4.310   3.730   3.293 -0.2285 -0.0333 -2.1040
   81SLPC  H17S 7573   4.145   3.753   3.234  1.1428 -1.0784  0.5849
   81SLPC  C218 7574   4.157   3.697   3.446  0.1283 -0.2611  0.3697
   81SLPC  H18R 7575   4.137   3.588   3.433 -1.9451 -0.2767  2.7795
   81SLPC  H18S 7576   4.062   3.744   3.481 -0.4727 -0.9434 -0.3123
   81SLPC  H18T 7577   4.236   3.720   3.521 -0.5822  1.3341  0.6729
   81SLPC   C33 7578   3.928   3.918   2.501  0.4881  0.3126  0.9403
   81SLPC   H3X 7579   3.838   3.956   2.554  0.0279 -0.7451  0.9385
   81SLPC   H3Y 7580   4.018   3.983   2.514  1.1383  1.2655 -5.4200
   81SLPC   C34 7581   3.959   3.775   2.557 -0.0744 -0.3972  0.7611
   81SLPC   H4X 7582   4.041   3.736   2.493  0.0421 -0.3001  0.8522
   81SLPC   H4Y 7583   3.865   3.717   2.545 -0.0407 -0.5345  1.1507
   81SLPC   C35 7584   3.998   3.774   2.706 -0.1441 -0.2430 -0.1372
   81SLPC   H5X 7585   3.939   3.841   2.772  0.1368 -1.0876  1.0161
   81SLPC   H5Y 7586   4.106   3.794   2.723  0.2605 -1.0557 -1.5872
   81SLPC   C36 7587   3.993   3.629   2.762  0.0786  0.6462 -0.1588
   81SLPC   H6X 7588   4.076   3.567   2.721  0.7769  0.5054  1.4062
   81SLPC   H6Y 7589   3.889   3.594   2.743 -0.0199  0.4982  0.6356
   81SLPC   C37 7590   4.028   3.618   2.917  0.3455 -0.1066  0.2561
   81SLPC   H7X 7591   4.000   3.718   2.957  0.5109  0.0597 -0.0396
   81SLPC   H7Y 7592   4.136   3.619   2.942  0.6575  0.9883 -1.0143
   81SLPC   C38 7593   3.943   3.523   2.996  0.2845 -0.4380  0.0551
   81SLPC   H8X 7594   3.976   3.417   3.001  0.2931 -0.3958  0.9405
   81SLPC   H8Y 7595   3.840   3.530   2.955  0.0878  0.5840  0.6818
   81SLPC   C39 7596   3.935   3.563   3.146 -0.0662 -0.3681  0.8415
   81SLPC   H9X 7597   3.909   3.671   3.152 -1.3923 -0.1811 -4.1803
   81SLPC   H9Y 7598   4.037   3.541   3.185 -1.2445 -2.4712  2.9838
   81SLPC  C310 7599   3.843   3.469   3.215 -0.4153  0.5089 -0.2113
   81SLPC  H10X 7600   3.872   3.368   3.179 -2.3924 -0.0163 -0.4934
   81SLPC  H10Y 7601   3.742   3.492   3.173 -0.6952 -1.0218 -0.4452
   81SLPC  C311 7602   3.862   3.474   3.366  0.6003  0.8451 -0.6389
   81SLPC  H11X 7603   3.836   3.574   3.408 -1.7345 -0.5995  1.6848
   81SLPC  H11Y 7604   3.964   3.443   3.397  0.1794  1.4838  1.5580
   81SLPC  C312 7605   3.764   3.376   3.427 -0.0442 -0.6685  0.5730
   81SLPC  H12X 7606   3.786   3.273   3.393  1.4712 -1.2612  3.1077
   81SLPC  H12Y 7607   3.657   3.399   3.407  0.2078 -0.6781 -0.9062
   81SLPC  C313 7608   3.782   3.381   3.579  0.3666 -0.3192  0.2849
   81SLPC  H13X 7609   3.776   3.483   3.621 -0.8077 -1.0260  1.9445
   81SLPC  H13Y 7610   3.886   3.347   3.597  0.0769 -2.0539 -1.0362
   81SLPC  C314 7611   3.677   3.311   3.670  1.0218 -0.0247 -0.4515
   81SLPC  H14X 7612   3.722   3.325   3.771 -0.0760 -0.4812  0.1116
   81SLPC  H14Y 7613   3.689   3.203   3.651  1.5654  0.0596 -0.6032
   81SLPC  C315 7614   3.530   3.367   3.663  0.3948 -0.1171 -0.0669
   81SLPC  H15X 7615   3.492   3.343   3.562  0.8036  0.9750 -0.4919
   81SLPC  H15Y 7616   3.547   3.476   3.668  1.3483 -0.2686  0.1597
   81SLPC  C316 7617   3.447   3.330   3.782  0.9366  0.2502  0.3889
   81SLPC  H16X 7618   3.345   3.357   3.748  1.5927  0.7778 -1.2390
   81SLPC  H16Y 7619   3.463   3.388   3.876 -0.9183  0.6544  0.4949
   81SLPC  C317 7620   3.443   3.183   3.818  0.2964 -0.1953  0.2771
   81SLPC  H17X 7621   3.375   3.165   3.903  2.1751  1.5959  2.2719
   81SLPC  H17Y 7622   3.538   3.152   3.866 -0.4554 -0.4217  1.6527
   81SLPC  C318 7623   3.403   3.080   3.709  0.1869 -0.2802  0.0847
   81SLPC  H18X 7624   3.300   3.085   3.668 -0.7984 -0.1948  2.4167
   81SLPC  H18Y 7625   3.414   2.974   3.739 -1.3556 -0.6099 -0.4153
   81SLPC  H18Z 7626   3.470   3.110   3.626 -1.2370  2.6183 -0.1727
   82SLPC     N 7627   2.964   3.187   1.843 -0.0345  0.1853  0.0463
   82SLPC   C13 7628   2.843   3.095   1.882 -0.1845  0.4179 -0.3946
   82SLPC  H13A 7629   2.754   3.130   1.832 -0.6398 -0.4322 -0.1961
   82SLPC  H13B 7630   2.852   2.990   1.859 -1.2889 -0.2263  1.7673
   82SLPC  H13C 7631   2.819   3.101   1.988  0.4439 -2.9068  0.0631
   82SLPC   C14 7632   2.997   3.176   1.700  0.2645  0.9422 -0.2505
   82SLPC  H14A 7633   3.027   3.076   1.674 -1.3148  0.5081 -0.4795
   82SLPC  H14B 7634   2.910   3.195   1.640  0.0982  1.1271  0.0475
   82SLPC  H14C 7635   3.075   3.244   1.666 -0.0276  1.5620  0.2924
   82SLPC   C15 7636   3.089   3.144   1.918  0.3458  0.0516  0.6716
   82SLPC  H15A 7637   3.093   3.037   1.912 -0.9703 -0.0172  0.6749
   82SLPC  H15B 7638   3.175   3.192   1.873 -0.2207  2.4933  1.9722
   82SLPC  H15C 7639   3.077   3.181   2.019 -1.8059  0.4634  0.3198
   82SLPC   C12 7640   2.950   3.333   1.871  0.5285 -0.1929 -0.4895
   82SLPC  H12A 7641   2.899   3.380   1.788  0.2877  0.2046 -0.1184
   82SLPC  H12B 7642   3.055   3.357   1.870  0.9959 -1.5425  2.6707
   82SLPC   C11 7643   2.879   3.375   2.007  0.2573  0.3766 -0.2842
   82SLPC  H11A 7644   2.778   3.327   2.003  0.1127  0.6451  0.1161
   82SLPC  H11B 7645   2.858   3.484   2.014  0.6099  0.5039 -1.1398
   82SLPC     P 7646   3.074   3.417   2.163 -0.1091  0.0972 -0.2068
   82SLPC   O13 7647   3.171   3.341   2.240  0.0177 -0.0710  0.3048
   82SLPC   O14 7648   3.136   3.488   2.046 -0.7459 -0.3843 -0.1368
   82SLPC   O12 7649   2.951   3.323   2.121 -0.8063 -0.6725  0.9185
   82SLPC   O11 7650   3.008   3.526   2.261 -0.9095  0.4799 -0.5244
   82SLPC    C1 7651   2.877   3.511   2.317  0.0602 -1.1727  0.5245
   82SLPC    HA 7652   2.833   3.604   2.359  0.2432 -0.0926 -1.5167
   82SLPC    HB 7653   2.797   3.494   2.242 -0.5165 -1.9018  1.2887
   82SLPC    C2 7654   2.863   3.420   2.429  0.0355  0.0619 -0.3967
   82SLPC    HS 7655   2.901   3.320   2.399  0.4428 -0.2401  1.0911
   82SLPC   O21 7656   2.720   3.409   2.450  0.2542 -0.1056 -0.1518
   82SLPC   C21 7657   2.676   3.326   2.541 -0.1074 -0.5615 -0.7532
   82SLPC   O22 7658   2.740   3.229   2.577  0.1610  0.7140  0.1176
   82SLPC   C22 7659   2.541   3.373   2.603  0.3975  0.1809 -0.0004
   82SLPC   H2R 7660   2.470   3.390   2.520  0.4189 -2.1394 -0.5563
   82SLPC   H2S 7661   2.496   3.295   2.668 -1.1208  0.9651 -0.0653
   82SLPC    C3 7662   2.950   3.461   2.558 -0.2464  0.3731  0.1772
   82SLPC    HX 7663   3.050   3.454   2.510 -0.9596 -2.1785 -1.1595
   82SLPC    HY 7664   2.931   3.390   2.642  1.3189  0.2026  0.4219
   82SLPC   O31 7665   2.921   3.597   2.599  0.0518 -0.4858  0.0895
   82SLPC   C31 7666   3.007   3.700   2.566 -0.5912 -0.0384 -0.2852
   82SLPC   O32 7667   3.121   3.688   2.526  0.0402 -0.1094  0.1697
   82SLPC   C32 7668   2.942   3.839   2.563  0.1077  0.1979  0.0680
   82SLPC   H2X 7669   2.895   3.849   2.463  2.2911  0.1689 -1.0125
   82SLPC   H2Y 7670   3.026   3.911   2.572  0.3302 -0.1470  0.8464
   82SLPC   C23 7671   2.548   3.510   2.685  0.5204  0.2748  0.6283
   82SLPC   H3R 7672   2.447   3.545   2.714  0.5397 -1.1500  2.6589
   82SLPC   H3S 7673   2.589   3.596   2.628 -1.4037  1.5040  1.0263
   82SLPC   C24 7674   2.629   3.493   2.816  0.9714 -0.3677  0.2143
   82SLPC   H4R 7675   2.619   3.592   2.865  0.3497 -0.9470  1.2932
   82SLPC   H4S 7676   2.734   3.468   2.793  0.8964  0.9903 -1.8902
   82SLPC   C25 7677   2.567   3.392   2.909 -0.2146 -0.4719  0.8795
   82SLPC   H5R 7678   2.581   3.290   2.867 -1.2452 -0.1762 -0.2432
   82SLPC   H5S 7679   2.459   3.414   2.927 -1.0730 -1.0368 -2.8246
   82SLPC   C26 7680   2.640   3.394   3.042 -0.0144  0.2564 -0.5512
   82SLPC   H6R 7681   2.642   3.500   3.074  1.8031  0.2026 -0.3413
   82SLPC   H6S 7682   2.746   3.360   3.042  0.0602  0.2511  2.5868
   82SLPC   C27 7683   2.555   3.315   3.145  0.2353  0.0236 -0.8034
   82SLPC   H7R 7684   2.546   3.206   3.125 -1.9949 -0.1081  0.6135
   82SLPC   H7S 7685   2.453   3.357   3.147 -0.6559 -1.9564 -1.6686
   82SLPC   C28 7686   2.615   3.337   3.288 -0.3162  0.2856 -0.1713
   82SLPC   H8R 7687   2.624   3.445   3.311 -0.6467  0.2886 -0.0495
   82SLPC   H8S 7688   2.713   3.285   3.282 -0.2782  0.3659 -0.2416
   82SLPC   C29 7689   2.538   3.265   3.387  1.0118  0.2223 -0.0225
   82SLPC   H9R 7690   2.428   3.269   3.385  0.9861  0.1631 -2.7410
   82SLPC  C210 7691   2.579   3.204   3.498  0.2130 -0.1037  0.2390
   82SLPC  H10R 7692   2.505   3.178   3.575  0.5222 -0.3601  0.4502
   82SLPC  C211 7693   2.727   3.211   3.529 -0.5275  0.3925 -0.1855
   82SLPC  H11R 7694   2.750   3.246   3.632 -1.6848  0.2361  0.1411
   82SLPC  H11S 7695   2.784   3.262   3.449 -1.3413 -1.8908 -2.3356
   82SLPC  C212 7696   2.776   3.067   3.518  0.0254  0.2824  0.1695
   82SLPC  H12R 7697   2.715   3.003   3.453  0.2602  0.8309 -0.6086
   82SLPC  C213 7698   2.887   3.005   3.567  0.4375  0.7968 -1.2055
   82SLPC  H13R 7699   2.901   2.898   3.547 -1.8935  0.1727  0.1666
   82SLPC  C214 7700   2.991   3.071   3.651 -0.4589  0.5618  0.0503
   82SLPC  H14R 7701   2.954   3.161   3.705 -1.0441  1.0020 -1.0555
   82SLPC  H14S 7702   3.081   3.101   3.593  0.0428  2.1328  1.5463
   82SLPC  C215 7703   3.055   2.989   3.766 -0.2087 -0.1230  0.1495
   82SLPC  H15R 7704   2.983   2.952   3.842 -0.3223  0.0461  0.1247
   82SLPC  H15S 7705   3.122   3.056   3.823 -3.1633  0.6857  2.9455
   82SLPC  C216 7706   3.128   2.862   3.719 -0.0684 -0.4183 -0.1661
   82SLPC  H16R 7707   3.198   2.889   3.638  0.8892  2.6908  1.5233
   82SLPC  H16S 7708   3.058   2.787   3.676 -0.7536 -1.0257  1.8906
   82SLPC  C217 7709   3.207   2.805   3.837 -0.6212  0.5292 -0.1783
   82SLPC  H17R 7710   3.264   2.883   3.892  0.8851  0.3212 -1.4064
   82SLPC  H17S 7711   3.281   2.736   3.793  0.3190  1.9302 -0.8802
   82SLPC  C218 7712   3.135   2.730   3.951  0.5282 -0.6678  0.7282
   82SLPC  H18R 7713   3.067   2.648   3.921  0.6025 -0.4856  0.0248
   82SLPC  H18S 7714   3.077   2.804   4.010  0.0104  0.2758 -0.8793
   82SLPC  H18T 7715   3.211   2.692   4.023  0.6144 -1.9452 -0.0067
   82SLPC   C33 7716   2.837   3.862   2.670  0.3809 -0.2567  0.1286
   82SLPC   H3X 7717   2.885   3.845   2.769 -2.8212 -1.2798  1.6831
   82SLPC   H3Y 7718   2.745   3.799   2.662  0.1682  0.3364 -3.3192
   82SLPC   C34 7719   2.789   4.009   2.675  0.6178  0.3496  0.6664
   82SLPC   H4X 7720   2.766   4.052   2.575 -1.2902  0.2019  1.0122
   82SLPC   H4Y 7721   2.873   4.074   2.707  0.4589 -0.4501  2.8243
   82SLPC   C35 7722   2.679   4.038   2.780  0.2412 -0.8816  0.3385
   82SLPC   H5X 7723   2.581   3.990   2.758 -0.3445  0.5151 -0.1763
   82SLPC   H5Y 7724   2.647   4.144   2.779 -1.5007 -1.3533 -2.0142
   82SLPC   C36 7725   2.713   3.991   2.921 -0.6149  0.1674  0.4495
   82SLPC   H6X 7726   2.779   4.063   2.974 -0.0215 -0.7787  1.0218
   82SLPC   H6Y 7727   2.764   3.893   2.920  0.9426  0.9491 -0.4287
   82SLPC   C37 7728   2.584   3.974   2.994  0.8633  0.8382  0.3255
   82SLPC   H7X 7729   2.525   3.882   2.972 -0.5008  1.4929  1.1064
   82SLPC   H7Y 7730   2.527   4.059   2.950 -0.1367 -0.6760 -1.4367
   82SLPC   C38 7731   2.595   3.977   3.150 -0.3543  0.0777  0.5982
   82SLPC   H8X 7732   2.657   4.065   3.177  0.7452 -0.3417 -0.4642
   82SLPC   H8Y 7733   2.637   3.878   3.180 -2.1068 -1.2366 -1.0344
   82SLPC   C39 7734   2.453   3.983   3.218 -1.0866 -0.5014 -0.2944
   82SLPC   H9X 7735   2.403   3.889   3.185 -1.4891  0.4921 -2.7161
   82SLPC   H9Y 7736   2.401   4.064   3.163 -2.2465 -0.5981  0.6044
   82SLPC  C310 7737   2.468   4.004   3.368 -0.6513 -0.3792  0.1996
   82SLPC  H10X 7738   2.524   4.094   3.400  0.8943 -0.9184 -0.8904
   82SLPC  H10Y 7739   2.523   3.914   3.404  1.1766  0.4879 -0.3108
   82SLPC  C311 7740   2.335   3.995   3.441 -0.8257  0.1139  0.8311
   82SLPC  H11X 7741   2.287   3.909   3.390  1.3921 -1.6731  1.6130
   82SLPC  H11Y 7742   2.269   4.077   3.405 -0.2155 -0.2841 -1.3393
   82SLPC  C312 7743   2.343   3.987   3.596  0.1087 -0.0489  0.2378
   82SLPC  H12X 7744   2.431   3.931   3.633  0.4886 -0.8300 -1.7221
   82SLPC  H12Y 7745   2.250   3.937   3.633 -0.7931  1.0438 -0.4754
   82SLPC  C313 7746   2.345   4.124   3.665 -0.1333  0.5864 -0.0600
   82SLPC  H13X 7747   2.249   4.178   3.654 -0.5151 -0.2117 -0.7592
   82SLPC  H13Y 7748   2.437   4.168   3.621  0.1504 -1.8982 -2.2208
   82SLPC  C314 7749   2.378   4.105   3.811 -0.0314  0.0874 -0.5548
   82SLPC  H14X 7750   2.468   4.042   3.827 -0.0784  0.1832  0.0822
   82SLPC  H14Y 7751   2.300   4.059   3.875  0.7562  0.9939  1.1089
   82SLPC  C315 7752   2.417   4.248   3.862 -0.1481 -0.1077 -1.0674
   82SLPC  H15X 7753   2.328   4.315   3.867 -0.2638 -0.2782 -0.8099
   82SLPC  H15Y 7754   2.486   4.308   3.799 -1.4136  1.1923 -1.2696
   82SLPC  C316 7755   2.472   4.252   4.003 -0.4838  0.2786 -0.3640
   82SLPC  H16X 7756   2.518   4.353   4.015 -0.6372  0.1534  1.5221
   82SLPC  H16Y 7757   2.553   4.178   4.020 -0.1293  0.7511  0.0624
   82SLPC  C317 7758   2.377   4.231   4.119 -0.6349  0.6586 -0.2534
   82SLPC  H17X 7759   2.427   4.233   4.218  0.2322  1.5901 -0.6896
   82SLPC  H17Y 7760   2.338   4.129   4.098  2.2251 -0.5297 -0.2273
   82SLPC  C318 7761   2.262   4.330   4.129  0.3735  0.8681 -0.1568
   82SLPC  H18X 7762   2.298   4.433   4.152 -0.7769  0.8215  2.1444
   82SLPC  H18Y 7763   2.196   4.308   4.215  0.6656  1.0224  0.1100
   82SLPC  H18Z 7764   2.195   4.342   4.041 -0.1088  0.8817  0.2071
   83SLPC     N 7765   3.434   4.942   1.856  0.2466  0.2193 -0.3665
   83SLPC   C13 7766   3.377   4.825   1.784 -0.0569 -0.1841  1.0081
   83SLPC  H13A 7767   3.375   4.736   1.845 -0.9240  0.6107  2.1859
   83SLPC  H13B 7768   3.275   4.843   1.751  0.6546  1.7664 -0.3061
   83SLPC  H13C 7769   3.442   4.808   1.699 -1.8215  2.6466 -1.1077
   83SLPC   C14 7770   3.398   5.065   1.774 -0.2545 -0.4376  0.3650
   83SLPC  H14A 7771   3.446   5.058   1.677  1.2848  0.5281  1.0219
   83SLPC  H14B 7772   3.293   5.068   1.748 -0.3653 -0.4203  0.8049
   83SLPC  H14C 7773   3.430   5.157   1.820  1.9983 -0.5810 -0.7631
   83SLPC   C15 7774   3.588   4.927   1.852  0.1270 -0.5076  0.5615
   83SLPC  H15A 7775   3.628   4.918   1.752 -1.7145 -2.3382 -0.0840
   83SLPC  H15B 7776   3.626   5.021   1.887  0.1591 -0.6612  0.9433
   83SLPC  H15C 7777   3.611   4.842   1.916 -0.0723  0.8768  2.5520
   83SLPC   C12 7778   3.372   4.961   1.996 -0.0534 -0.1483  0.4462
   83SLPC  H12A 7779   3.425   5.042   2.044  0.0757 -0.1348  0.2784
   83SLPC  H12B 7780   3.409   4.877   2.054 -1.5265 -1.4550 -0.4193
   83SLPC   C11 7781   3.219   4.969   2.006  0.1941  0.8766  0.1886
   83SLPC  H11A 7782   3.178   4.937   2.104 -1.4915  0.3746 -0.6417
   83SLPC  H11B 7783   3.170   4.896   1.939  1.8632 -1.2681  1.1782
   83SLPC     P 7784   3.201   5.223   2.074 -0.3853 -0.1341 -0.1598
   83SLPC   O13 7785   3.342   5.263   2.048  0.1125 -0.1858  0.3356
   83SLPC   O14 7786   3.089   5.317   2.069 -0.0480  0.1026  0.8891
   83SLPC   O12 7787   3.172   5.099   1.973  0.0146 -0.2270  0.1219
   83SLPC   O11 7788   3.195   5.144   2.219 -0.3348 -0.5401  0.2369
   83SLPC    C1 7789   3.309   5.147   2.305 -0.7557 -0.0838  0.8176
   83SLPC    HA 7790   3.366   5.054   2.288  1.3896  1.4889 -1.2804
   83SLPC    HB 7791   3.380   5.230   2.282  2.0610 -2.2897  1.0517
   83SLPC    C2 7792   3.258   5.146   2.451 -0.7345 -0.9151 -0.6720
   83SLPC    HS 7793   3.347   5.130   2.516  0.4491 -1.7510 -2.4068
   83SLPC   O21 7794   3.158   5.045   2.486 -0.5493 -0.3294 -0.4829
   83SLPC   C21 7795   3.204   4.920   2.500  0.6038  0.2028  0.6400
   83SLPC   O22 7796   3.324   4.895   2.498 -0.0751  0.3411  0.0685
   83SLPC   C22 7797   3.080   4.828   2.523 -0.0733 -0.4623 -0.3774
   83SLPC   H2R 7798   2.989   4.891   2.531  2.3229  3.4043 -1.3081
   83SLPC   H2S 7799   3.081   4.769   2.429 -0.1255  1.1786 -1.4343
   83SLPC    C3 7800   3.201   5.284   2.492 -0.2402  0.0733  0.0806
   83SLPC    HX 7801   3.119   5.301   2.419 -0.3116  1.1748  0.3904
   83SLPC    HY 7802   3.273   5.368   2.476  2.4278 -1.6006  2.3716
   83SLPC   O31 7803   3.154   5.292   2.628  0.3795 -0.2957  0.6563
   83SLPC   C31 7804   3.244   5.296   2.721 -0.2913 -0.0564 -0.4826
   83SLPC   O32 7805   3.365   5.306   2.705 -0.5091 -0.5270  0.6630
   83SLPC   C32 7806   3.168   5.301   2.862  0.4187 -0.0591  0.4592
   83SLPC   H2X 7807   3.087   5.228   2.839 -1.3630  1.9911 -0.1683
   83SLPC   H2Y 7808   3.136   5.405   2.884 -0.6353  0.1158 -1.6762
   83SLPC   C23 7809   3.097   4.744   2.646  0.0090  0.0471 -0.0830
   83SLPC   H3R 7810   3.197   4.696   2.656 -0.4815 -0.9821 -0.0092
   83SLPC   H3S 7811   3.034   4.653   2.651 -0.2045  0.1849 -0.2211
   83SLPC   C24 7812   3.061   4.810   2.781  0.7000 -0.0565 -0.2999
   83SLPC   H4R 7813   2.957   4.847   2.773  0.1416 -1.0911  1.5812
   83SLPC   H4S 7814   3.121   4.901   2.802  0.5969 -0.1760  0.5845
   83SLPC   C25 7815   3.089   4.729   2.914 -0.3999  0.8101 -0.0756
   83SLPC   H5R 7816   3.185   4.679   2.891 -0.6719  0.6089 -0.7870
   83SLPC   H5S 7817   3.002   4.662   2.934 -0.8685  1.9545  2.1032
   83SLPC   C26 7818   3.111   4.806   3.045  0.4962 -0.2226  0.0575
   83SLPC   H6R 7819   3.027   4.871   3.077  1.7170  1.3280  0.2520
   83SLPC   H6S 7820   3.194   4.877   3.021 -1.1506  1.7413 -0.0822
   83SLPC   C27 7821   3.151   4.715   3.165 -0.2447 -0.1791 -0.2345
   83SLPC   H7R 7822   3.248   4.663   3.148 -0.9096 -1.3930 -0.3685
   83SLPC   H7S 7823   3.075   4.635   3.169  0.7599 -1.1133  1.0864
   83SLPC   C28 7824   3.163   4.799   3.299  0.8135 -0.0021 -0.2211
   83SLPC   H8R 7825   3.070   4.860   3.307  1.1459  0.7623 -1.7961
   83SLPC   H8S 7826   3.247   4.871   3.292  0.4389  0.4246 -0.3889
   83SLPC   C29 7827   3.183   4.707   3.414  0.4718  0.7398 -0.6148
   83SLPC   H9R 7828   3.098   4.638   3.432  0.0644  0.7819 -2.2581
   83SLPC  C210 7829   3.298   4.693   3.488  0.5898  0.3626  0.0979
   83SLPC  H10R 7830   3.300   4.616   3.567 -1.8643  1.3731  1.2388
   83SLPC  C211 7831   3.424   4.778   3.483 -0.5466 -0.2731  0.2035
   83SLPC  H11R 7832   3.434   4.818   3.380 -2.4405  1.5426  0.6410
   83SLPC  H11S 7833   3.512   4.711   3.490  1.3311  1.8941 -1.0670
   83SLPC  C212 7834   3.434   4.876   3.596 -0.2804  0.0269  0.2761
   83SLPC  H12R 7835   3.356   4.952   3.589  0.3112  0.6886  0.7504
   83SLPC  C213 7836   3.520   4.871   3.703 -0.3434 -0.6506  0.1515
   83SLPC  H13R 7837   3.509   4.950   3.779  0.8213 -0.0754 -0.2565
   83SLPC  C214 7838   3.641   4.781   3.727  1.0675 -0.5642  0.2034
   83SLPC  H14R 7839   3.662   4.737   3.627 -2.2573  2.3761 -2.0429
   83SLPC  H14S 7840   3.612   4.708   3.806 -1.7874  0.8857  0.6383
   83SLPC  C215 7841   3.766   4.861   3.767  0.0135  0.3585  0.2384
   83SLPC  H15R 7842   3.790   4.932   3.686  3.3293 -0.2258  0.5593
   83SLPC  H15S 7843   3.856   4.796   3.778 -0.0049  0.2102 -0.4700
   83SLPC  C216 7844   3.752   4.917   3.907 -0.2614 -0.1612 -0.4226
   83SLPC  H16R 7845   3.725   4.836   3.978 -1.9762  1.8488  1.3544
   83SLPC  H16S 7846   3.661   4.980   3.904  0.8252  1.5768  0.9614
   83SLPC  C217 7847   3.860   5.017   3.955  0.5482 -0.0114  0.1383
   83SLPC  H17R 7848   3.857   5.095   3.875 -0.7802 -0.3199 -0.1310
   83SLPC  H17S 7849   3.963   4.976   3.951  0.5016 -0.1670  0.5458
   83SLPC  C218 7850   3.832   5.087   4.094 -0.2952 -0.1968  0.4132
   83SLPC  H18R 7851   3.910   5.166   4.096 -0.2995 -0.1613 -0.6634
   83SLPC  H18S 7852   3.852   5.013   4.175 -0.8686  0.6155  1.3229
   83SLPC  H18T 7853   3.728   5.126   4.086 -0.8074 -1.7620 -1.5009
   83SLPC   C33 7854   3.257   5.252   2.974 -0.7322  0.2168  0.3230
   83SLPC   H3X 7855   3.347   5.317   2.984  0.8735 -1.6756 -0.9526
   83SLPC   H3Y 7856   3.283   5.145   2.962  2.2850  1.1093 -3.3336
   83SLPC   C34 7857   3.186   5.273   3.101 -0.8360  0.2089 -0.1335
   83SLPC   H4X 7858   3.084   5.231   3.095 -1.1769  0.7503  1.2884
   83SLPC   H4Y 7859   3.168   5.379   3.130  1.6055  0.4527  0.7230
   83SLPC   C35 7860   3.243   5.197   3.219 -0.6535 -0.3325 -0.1244
   83SLPC   H5X 7861   3.265   5.093   3.189  0.7662  0.0966 -0.6056
   83SLPC   H5Y 7862   3.177   5.190   3.309  0.3285  1.3334  0.7789
   83SLPC   C36 7863   3.379   5.253   3.261  0.3784  0.2408  0.2644
   83SLPC   H6X 7864   3.357   5.350   3.310 -1.1187 -0.2048  0.5253
   83SLPC   H6Y 7865   3.433   5.265   3.165 -0.1585 -1.1181 -0.2275
   83SLPC   C37 7866   3.452   5.156   3.362  0.1635 -0.7356  0.0627
   83SLPC   H7X 7867   3.458   5.054   3.318  0.6295 -0.0166 -1.6191
   83SLPC   H7Y 7868   3.384   5.142   3.449 -0.7076 -1.0407 -0.6525
   83SLPC   C38 7869   3.598   5.194   3.402 -0.3737 -0.0823 -0.3947
   83SLPC   H8X 7870   3.663   5.191   3.311 -0.1238  0.3251 -0.2324
   83SLPC   H8Y 7871   3.633   5.116   3.473 -1.0326  1.7431  2.0313
   83SLPC   C39 7872   3.609   5.335   3.462 -0.6551 -0.4531  0.2820
   83SLPC   H9X 7873   3.548   5.399   3.394  0.2435  1.0319  0.8347
   83SLPC   H9Y 7874   3.714   5.369   3.453 -1.7141  3.5100  0.9923
   83SLPC  C310 7875   3.556   5.364   3.610  0.8687  0.7769 -0.4475
   83SLPC  H10X 7876   3.451   5.327   3.607  1.4525 -1.0551 -0.0994
   83SLPC  H10Y 7877   3.559   5.471   3.640  3.2840  0.1372  2.0545
   83SLPC  C311 7878   3.618   5.277   3.723 -0.6188  0.1453 -0.7801
   83SLPC  H11X 7879   3.727   5.297   3.727 -0.6933  0.2655  0.9835
   83SLPC  H11Y 7880   3.598   5.169   3.704 -2.6735  0.2796  0.3359
   83SLPC  C312 7881   3.573   5.305   3.871 -0.2953 -0.3892 -0.2260
   83SLPC  H12X 7882   3.544   5.412   3.873  4.2115  0.9893  1.3269
   83SLPC  H12Y 7883   3.655   5.291   3.944 -1.6661 -0.6785  1.3348
   83SLPC  C313 7884   3.459   5.224   3.911  0.1995 -0.0634  0.8423
   83SLPC  H13X 7885   3.497   5.123   3.885  2.3903  0.4113  1.9502
   83SLPC  H13Y 7886   3.375   5.249   3.843 -0.5854 -0.0448  1.7886
   83SLPC  C314 7887   3.420   5.233   4.061 -0.6875  0.2535 -0.0422
   83SLPC  H14X 7888   3.433   5.340   4.085  0.8150  0.3056 -0.9275
   83SLPC  H14Y 7889   3.507   5.181   4.109 -0.0737  0.7630 -0.5839
   83SLPC  C315 7890   3.305   5.156   4.119  0.4712  0.0772 -1.2611
   83SLPC  H15X 7891   3.217   5.222   4.109  0.7545  0.9546  1.3046
   83SLPC  H15Y 7892   3.305   5.128   4.226 -2.1707 -0.7024 -1.4003
   83SLPC  C316 7893   3.287   5.023   4.047  0.0872  0.2002 -0.1401
   83SLPC  H16X 7894   3.299   5.026   3.937  1.4157 -0.4345 -0.0353
   83SLPC  H16Y 7895   3.184   4.981   4.053  0.7061 -1.2999  0.5578
   83SLPC  C317 7896   3.362   4.907   4.116  0.8065 -0.1384 -0.3070
   83SLPC  H17X 7897   3.343   4.908   4.226  0.5070  1.1407 -0.3547
   83SLPC  H17Y 7898   3.473   4.916   4.115  0.8652 -0.3149  1.6282
   83SLPC  C318 7899   3.326   4.776   4.046 -0.0097 -0.5846  0.1512
   83SLPC  H18X 7900   3.358   4.690   4.109  1.9371  1.5519  2.3074
   83SLPC  H18Y 7901   3.368   4.771   3.944 -1.3450  0.8376 -0.5147
   83SLPC  H18Z 7902   3.217   4.770   4.024 -0.1602  1.2090  0.2756
   84SLPC     N 7903   0.655   1.955   1.614 -0.5624  0.2351  0.4188
   84SLPC   C13 7904   0.729   1.821   1.627  0.0309  0.4950 -0.2643
   84SLPC  H13A 7905   0.659   1.741   1.646 -0.8492  0.8367 -1.8554
   84SLPC  H13B 7906   0.784   1.797   1.537 -1.8997 -0.0071 -1.3716
   84SLPC  H13C 7907   0.796   1.825   1.712 -1.8020 -1.3673  1.3704
   84SLPC   C14 7908   0.558   1.933   1.501  0.8246  0.2242  0.3910
   84SLPC  H14A 7909   0.492   1.848   1.512  2.1660 -1.2069 -1.8892
   84SLPC  H14B 7910   0.498   2.021   1.485  0.3835  0.5033  3.1028
   84SLPC  H14C 7911   0.598   1.928   1.401  0.4750  3.9130 -0.0548
   84SLPC   C15 7912   0.747   2.070   1.589 -0.2769  0.2719 -0.7423
   84SLPC  H15A 7913   0.800   2.092   1.681 -1.3323 -0.6847  0.1205
   84SLPC  H15B 7914   0.817   2.043   1.512  0.6321  1.0182 -0.2021
   84SLPC  H15C 7915   0.700   2.163   1.559 -2.6224 -0.6060 -0.0172
   84SLPC   C12 7916   0.573   1.976   1.734  0.2646  0.6171  0.3557
   84SLPC  H12A 7917   0.517   1.889   1.763  0.5634  1.1059  2.5763
   84SLPC  H12B 7918   0.499   2.049   1.704 -1.5333 -0.9884  0.7439
   84SLPC   C11 7919   0.646   2.024   1.860 -0.3988 -0.1919  0.5549
   84SLPC  H11A 7920   0.567   2.023   1.939 -2.3375 -0.0130 -1.2912
   84SLPC  H11B 7921   0.687   2.124   1.836 -0.9900  0.2046  1.1840
   84SLPC     P 7922   0.877   1.986   1.980  0.4183  0.3493 -0.1428
   84SLPC   O13 7923   0.919   1.874   2.073  0.6365 -0.1140  0.5970
   84SLPC   O14 7924   0.975   2.051   1.886  0.3036 -0.3914 -0.2475
   84SLPC   O12 7925   0.748   1.934   1.901  0.1693 -0.3909  0.2197
   84SLPC   O11 7926   0.811   2.099   2.072 -0.3402  0.6143 -0.9460
   84SLPC    C1 7927   0.729   2.060   2.186 -0.0766 -0.2928 -0.6361
   84SLPC    HA 7928   0.648   1.991   2.156  1.4262 -1.2221 -2.7602
   84SLPC    HB 7929   0.785   2.020   2.274 -3.7263 -2.7320  0.8359
   84SLPC    C2 7930   0.670   2.186   2.249  0.1793 -0.0643 -0.2225
   84SLPC    HS 7931   0.610   2.239   2.172 -0.3450  4.2800  2.8176
   84SLPC   O21 7932   0.774   2.269   2.302  0.7488 -0.6112  0.3571
   84SLPC   C21 7933   0.740   2.392   2.324  0.7064  1.0507  0.0053
   84SLPC   O22 7934   0.638   2.445   2.283  0.1938  0.3266 -0.5530
   84SLPC   C22 7935   0.839   2.456   2.409  0.4115 -0.3244  0.6447
   84SLPC   H2R 7936   0.935   2.401   2.401  1.3997  1.3992  0.0878
   84SLPC   H2S 7937   0.856   2.557   2.367 -4.1594 -0.2881 -1.7781
   84SLPC    C3 7938   0.567   2.141   2.357 -0.5382 -0.1361  0.1885
   84SLPC    HX 7939   0.483   2.100   2.297 -1.2286  0.2148  0.8981
   84SLPC    HY 7940   0.532   2.231   2.413  1.3258 -0.5290  2.1264
   84SLPC   O31 7941   0.609   2.041   2.456 -0.3869 -0.2517 -0.5730
   84SLPC   C31 7942   0.545   1.929   2.468  0.1386  0.0555 -0.5589
   84SLPC   O32 7943   0.449   1.898   2.397  0.4204  0.1931 -0.1823
   84SLPC   C32 7944   0.613   1.846   2.584  0.2575  0.5399  0.2835
   84SLPC   H2X 7945   0.701   1.800   2.534 -1.3052 -1.6911 -0.5985
   84SLPC   H2Y 7946   0.544   1.763   2.612 -0.1864  0.9953  0.5418
   84SLPC   C23 7947   0.784   2.459   2.543  0.8050 -0.2381 -0.5156
   84SLPC   H3R 7948   0.685   2.509   2.542  1.8047  1.9289  0.7455
   84SLPC   H3S 7949   0.840   2.528   2.611  1.1245 -0.6579 -0.3517
   84SLPC   C24 7950   0.763   2.320   2.606 -0.1735  0.1058  0.5981
   84SLPC   H4R 7951   0.837   2.247   2.570 -0.1192  1.8682 -3.4384
   84SLPC   H4S 7952   0.664   2.281   2.571  0.5408 -0.4461 -0.8930
   84SLPC   C25 7953   0.754   2.323   2.761 -0.0759 -0.0726  0.3773
   84SLPC   H5R 7954   0.850   2.366   2.797  1.2514 -1.3564 -1.4548
   84SLPC   H5S 7955   0.743   2.218   2.795  0.0463 -0.5821 -1.1053
   84SLPC   C26 7956   0.644   2.420   2.822  0.4298  0.6154 -0.0535
   84SLPC   H6R 7957   0.544   2.385   2.788  0.5606 -0.4248  0.6075
   84SLPC   H6S 7958   0.654   2.527   2.793  2.3924  0.1340 -1.3526
   84SLPC   C27 7959   0.636   2.410   2.978 -0.2004  0.1481  0.2396
   84SLPC   H7R 7960   0.620   2.307   3.016 -0.2095 -0.3969 -1.1567
   84SLPC   H7S 7961   0.547   2.466   3.013 -1.3656 -1.7744  0.5294
   84SLPC   C28 7962   0.763   2.483   3.045  0.3351  0.3025  0.1940
   84SLPC   H8R 7963   0.776   2.577   2.988 -0.4106 -2.0558 -4.3898
   84SLPC   H8S 7964   0.849   2.417   3.018  1.9244  1.6334  1.7827
   84SLPC   C29 7965   0.744   2.486   3.194  0.0339  0.8612  0.4530
   84SLPC   H9R 7966   0.674   2.563   3.230  1.5819  1.5744  2.0657
   84SLPC  C210 7967   0.782   2.397   3.284  0.3238 -0.3259 -0.3520
   84SLPC  H10R 7968   0.746   2.414   3.386 -0.8528 -1.3191 -0.5685
   84SLPC  C211 7969   0.863   2.271   3.255  0.2848  0.6480 -0.4453
   84SLPC  H11R 7970   0.841   2.243   3.149 -0.0075  1.0153 -0.4840
   84SLPC  H11S 7971   0.816   2.196   3.322 -1.6807  2.5944  0.5004
   84SLPC  C212 7972   1.016   2.292   3.265  0.4378 -0.4638 -0.5148
   84SLPC  H12R 7973   1.071   2.315   3.172  2.5762 -1.9004  0.3035
   84SLPC  C213 7974   1.087   2.286   3.377 -0.2609  0.2304  0.3034
   84SLPC  H13R 7975   1.196   2.300   3.372 -0.4753  3.4499  2.1073
   84SLPC  C214 7976   1.039   2.271   3.514  0.0414  0.1418 -1.6216
   84SLPC  H14R 7977   1.056   2.168   3.552  0.1606  0.8074  0.2154
   84SLPC  H14S 7978   0.931   2.293   3.527  0.7787  2.5508  1.6364
   84SLPC  C215 7979   1.115   2.365   3.611 -0.8327 -0.5215 -0.3355
   84SLPC  H15R 7980   1.099   2.473   3.587 -1.1126 -1.0920 -2.9713
   84SLPC  H15S 7981   1.223   2.355   3.588  0.1299  3.5205  1.4719
   84SLPC  C216 7982   1.077   2.355   3.756  0.2969  0.4631  0.2236
   84SLPC  H16R 7983   1.153   2.304   3.819  0.4732  1.8343  1.1480
   84SLPC  H16S 7984   0.990   2.285   3.747  0.0210  0.8966 -0.4887
   84SLPC  C217 7985   1.036   2.483   3.831 -0.2585  0.3323 -0.0273
   84SLPC  H17R 7986   1.008   2.464   3.937 -0.1411  2.8071  0.5021
   84SLPC  H17S 7987   0.951   2.528   3.775 -0.3502 -1.5905 -1.5497
   84SLPC  C218 7988   1.145   2.587   3.845  0.3216  0.9066 -0.3675
   84SLPC  H18R 7989   1.164   2.632   3.745 -0.3130  0.0360 -0.8916
   84SLPC  H18S 7990   1.239   2.550   3.891  0.6218  0.4213 -1.3615
   84SLPC  H18T 7991   1.106   2.677   3.898  0.1369 -0.4200  1.8732
   84SLPC   C33 7992   0.646   1.926   2.708 -0.4589  0.2091  0.1793
   84SLPC   H3X 7993   0.682   2.030   2.699 -0.3921  0.3283  1.6795
   84SLPC   H3Y 7994   0.725   1.861   2.751 -2.3098 -1.2149  1.6529
   84SLPC   C34 7995   0.528   1.947   2.814  0.1555 -0.6332 -0.7601
   84SLPC   H4X 7996   0.467   1.854   2.816 -1.0747  0.1058 -2.0865
   84SLPC   H4Y 7997   0.474   2.031   2.766  3.6762  1.1205 -1.9905
   84SLPC   C35 7998   0.567   1.964   2.960 -0.0054  0.0487  0.0394
   84SLPC   H5X 7999   0.657   2.030   2.958  1.0701 -1.3350  1.2805
   84SLPC   H5Y 8000   0.591   1.864   3.000 -2.4117 -0.4802  0.2909
   84SLPC   C36 8001   0.464   2.024   3.057 -0.0787 -0.3443  0.0308
   84SLPC   H6X 8002   0.364   1.978   3.045 -0.1728 -0.2160  0.3034
   84SLPC   H6Y 8003   0.465   2.134   3.043  0.3641 -0.2687  0.5924
   84SLPC   C37 8004   0.518   1.999   3.198 -0.3979 -0.1316 -0.3807
   84SLPC   H7X 8005   0.618   2.047   3.191  0.2223 -1.2511  0.3557
   84SLPC   H7Y 8006   0.534   1.893   3.228 -3.5127 -0.2649  1.1125
   84SLPC   C38 8007   0.439   2.063   3.316  0.1392  0.5504 -0.2201
   84SLPC   H8X 8008   0.497   2.020   3.401 -2.0748 -2.0640  0.1001
   84SLPC   H8Y 8009   0.342   2.010   3.322  1.7193 -2.6278 -0.3477
   84SLPC   C39 8010   0.440   2.213   3.319 -0.3142 -0.0975 -0.4498
   84SLPC   H9X 8011   0.359   2.246   3.249 -0.9343 -1.4928 -0.4076
   84SLPC   H9Y 8012   0.542   2.241   3.286  0.4409 -1.8227  0.3332
   84SLPC  C310 8013   0.397   2.263   3.457  0.0450 -0.3228 -0.1153
   84SLPC  H10X 8014   0.458   2.220   3.539 -1.3409 -2.0455  0.0768
   84SLPC  H10Y 8015   0.294   2.225   3.472 -0.0167  0.7320  2.6351
   84SLPC  C311 8016   0.395   2.417   3.481 -0.4118  0.1862  0.3154
   84SLPC  H11X 8017   0.495   2.455   3.453 -0.8462 -1.0813 -3.4251
   84SLPC  H11Y 8018   0.355   2.443   3.582 -1.5169  1.8399 -0.5008
   84SLPC  C312 8019   0.301   2.483   3.379 -0.3889  0.2425  0.4646
   84SLPC  H12X 8020   0.245   2.561   3.435 -0.8417 -0.3466  0.8381
   84SLPC  H12Y 8021   0.223   2.407   3.356  0.2164 -0.1328 -0.4131
   84SLPC  C313 8022   0.355   2.547   3.247 -0.8126 -0.2635 -0.0490
   84SLPC  H13X 8023   0.426   2.481   3.192 -0.2464 -1.0551  1.5720
   84SLPC  H13Y 8024   0.418   2.632   3.280 -0.6598 -0.9993  1.6547
   84SLPC  C314 8025   0.236   2.590   3.152 -0.2696 -0.3468 -0.2952
   84SLPC  H14X 8026   0.281   2.647   3.068  0.6465 -0.6580 -0.0295
   84SLPC  H14Y 8027   0.170   2.641   3.226  0.1623 -2.9802  2.0750
   84SLPC  C315 8028   0.161   2.469   3.098 -0.1248  0.5299  0.1084
   84SLPC  H15X 8029   0.182   2.385   3.167 -0.3562  0.7439  0.4509
   84SLPC  H15Y 8030   0.218   2.448   3.006  0.9107  1.0376  0.6198
   84SLPC  C316 8031   0.013   2.492   3.068  0.0293  0.6233  0.4915
   84SLPC  H16X 8032  -0.036   2.514   3.166  0.2806  2.4078  0.2576
   84SLPC  H16Y 8033  -0.036   2.402   3.026 -0.9252  1.7663 -0.9630
   84SLPC  C317 8034  -0.005   2.617   2.981 -0.3629 -0.5757 -0.1701
   84SLPC  H17X 8035   0.069   2.596   2.902  0.8271 -2.0329  1.2752
   84SLPC  H17Y 8036   0.025   2.702   3.047  0.1495 -1.4591  0.7638
   84SLPC  C318 8037  -0.133   2.649   2.915  0.3177 -0.1780  0.1675
   84SLPC  H18X 8038  -0.212   2.651   2.993 -0.5394 -0.5470 -0.6648
   84SLPC  H18Y 8039  -0.161   2.567   2.845 -0.8019 -1.2811  1.8362
   84SLPC  H18Z 8040  -0.131   2.748   2.864  1.6812 -0.0591  0.4101
   85SLPC     N 8041   6.580   4.438   1.721 -0.8491 -0.5557  0.0403
   85SLPC   C13 8042   6.444   4.491   1.752 -0.5431 -0.7852 -0.1402
   85SLPC  H13A 8043   6.429   4.502   1.859 -0.8342  0.8686 -0.3164
   85SLPC  H13B 8044   6.427   4.592   1.717  0.4697 -0.7379 -0.5232
   85SLPC  H13C 8045   6.365   4.430   1.711 -0.8128 -0.0609 -0.7105
   85SLPC   C14 8046   6.588   4.409   1.575  0.0949 -0.5916  0.3630
   85SLPC  H14A 8047   6.526   4.323   1.557  1.9480 -1.7628 -0.6964
   85SLPC  H14B 8048   6.569   4.501   1.522 -3.1285 -1.8293 -0.8601
   85SLPC  H14C 8049   6.683   4.369   1.544  0.0549 -0.8977  0.6257
   85SLPC   C15 8050   6.592   4.311   1.789  0.1808  0.0518  0.7906
   85SLPC  H15A 8051   6.689   4.265   1.778 -0.8915 -1.7114 -2.9146
   85SLPC  H15B 8052   6.569   4.324   1.894 -2.0064  0.3949  0.3192
   85SLPC  H15C 8053   6.524   4.239   1.746 -0.9669  0.0615  2.4742
   85SLPC   C12 8054   6.695   4.532   1.767  0.2834  0.3856 -0.1055
   85SLPC  H12A 8055   6.696   4.623   1.708 -0.2409  0.7348  0.4135
   85SLPC  H12B 8056   6.787   4.478   1.753  0.4518  0.4498  0.7111
   85SLPC   C11 8057   6.700   4.571   1.922 -0.3106  0.4076  0.9176
   85SLPC  H11A 8058   6.796   4.624   1.942  0.5612 -1.0153  0.7054
   85SLPC  H11B 8059   6.698   4.483   1.990  2.4530 -0.2196  0.3314
   85SLPC     P 8060   6.594   4.810   1.970 -0.1350  0.9328 -0.0788
   85SLPC   O13 8061   6.691   4.865   1.875 -0.1016 -0.2335 -0.3710
   85SLPC   O14 8062   6.454   4.855   1.953 -0.2058  0.2668  0.3646
   85SLPC   O12 8063   6.593   4.650   1.966  0.3638 -0.7289  0.4622
   85SLPC   O11 8064   6.642   4.852   2.109 -0.7122  0.4626  0.4954
   85SLPC    C1 8065   6.614   4.812   2.236  0.2300 -0.2613 -0.2639
   85SLPC    HA 8066   6.530   4.869   2.282  0.4292  0.0410 -0.2734
   85SLPC    HB 8067   6.598   4.702   2.236  2.0435 -0.6154 -2.7620
   85SLPC    C2 8068   6.734   4.839   2.332  0.1545  0.3836 -0.2475
   85SLPC    HS 8069   6.824   4.793   2.284  2.1815  0.6451  2.9595
   85SLPC   O21 8070   6.700   4.779   2.463 -0.3264 -0.6203  0.4211
   85SLPC   C21 8071   6.758   4.660   2.478 -0.1953 -0.3947 -0.4967
   85SLPC   O22 8072   6.859   4.629   2.425 -0.5361 -0.3932 -0.0587
   85SLPC   C22 8073   6.679   4.583   2.577  0.0732 -0.0654  0.3536
   85SLPC   H2R 8074   6.602   4.526   2.521  0.0543 -0.9179  1.2202
   85SLPC   H2S 8075   6.749   4.509   2.621 -1.3353 -1.1546  0.8445
   85SLPC    C3 8076   6.747   4.992   2.354  0.0101  0.1562  0.3599
   85SLPC    HX 8077   6.768   5.023   2.249  0.2843 -0.6660  0.1640
   85SLPC    HY 8078   6.840   5.020   2.408  1.6093 -2.8461 -0.6200
   85SLPC   O31 8079   6.631   5.057   2.406  0.4296 -0.0370 -0.1092
   85SLPC   C31 8080   6.630   5.087   2.545 -0.0885 -0.2532  0.2485
   85SLPC   O32 8081   6.725   5.060   2.615  0.1448  0.3337  0.4405
   85SLPC   C32 8082   6.513   5.167   2.582 -0.3455  0.7700 -0.4804
   85SLPC   H2X 8083   6.434   5.137   2.510  0.7335 -0.2086 -1.3081
   85SLPC   H2Y 8084   6.532   5.276   2.569  0.6715  0.8005  1.0474
   85SLPC   C23 8085   6.629   4.665   2.696  0.0522 -0.1202  1.0956
   85SLPC   H3R 8086   6.583   4.607   2.779 -0.9368  1.8497  1.9977
   85SLPC   H3S 8087   6.561   4.745   2.660  2.9012  1.3535 -1.4211
   85SLPC   C24 8088   6.742   4.734   2.766 -0.5716 -0.6525 -1.3774
   85SLPC   H4R 8089   6.795   4.802   2.696 -2.5497  0.7016 -1.6423
   85SLPC   H4S 8090   6.809   4.656   2.806  2.1666  2.4247  0.4668
   85SLPC   C25 8091   6.702   4.807   2.899  0.3235 -0.4222  0.0618
   85SLPC   H5R 8092   6.638   4.896   2.880  2.4022  1.2458  0.4630
   85SLPC   H5S 8093   6.644   4.740   2.966 -1.6199  1.5313  0.4217
   85SLPC   C26 8094   6.831   4.848   2.980  0.5772 -0.1435 -0.5969
   85SLPC   H6R 8095   6.875   4.926   2.915  0.5993 -0.8351 -1.4411
   85SLPC   H6S 8096   6.895   4.760   3.001 -0.0290 -1.0079 -2.1563
   85SLPC   C27 8097   6.811   4.916   3.116 -0.5950  0.7377 -0.0317
   85SLPC   H7R 8098   6.758   4.849   3.187 -0.4125  1.3473  0.6866
   85SLPC   H7S 8099   6.733   4.994   3.106 -1.1067  0.2454  0.0437
   85SLPC   C28 8100   6.941   4.967   3.183  0.5921  0.2435  0.0916
   85SLPC   H8R 8101   6.908   5.056   3.241 -0.2674 -0.0198  0.0105
   85SLPC   H8S 8102   7.021   4.996   3.110 -1.7133  0.0253 -2.6786
   85SLPC   C29 8103   6.989   4.859   3.275  0.3420 -0.9346  0.1245
   85SLPC   H9R 8104   7.027   4.770   3.222 -1.9644 -2.1313  0.3726
   85SLPC  C210 8105   6.977   4.859   3.409  0.5603 -0.0982  0.2679
   85SLPC  H10R 8106   7.006   4.765   3.459 -1.9097 -1.5987 -0.9618
   85SLPC  C211 8107   6.916   4.968   3.501 -0.1447  0.7837  0.1306
   85SLPC  H11R 8108   6.853   5.039   3.442 -1.3527  1.8785  2.5979
   85SLPC  H11S 8109   7.002   5.025   3.544  2.0258 -0.6478 -2.0661
   85SLPC  C212 8110   6.825   4.925   3.611 -0.0729  0.0221 -0.0778
   85SLPC  H12R 8111   6.717   4.920   3.588  0.0265 -3.1469 -0.3216
   85SLPC  C213 8112   6.856   4.887   3.747 -0.1826 -0.3698  0.0688
   85SLPC  H13R 8113   6.771   4.862   3.812 -0.4311 -0.2365 -0.2044
   85SLPC  C214 8114   6.998   4.889   3.805 -0.2290 -0.3500  1.1467
   85SLPC  H14R 8115   7.025   4.994   3.829 -1.5097 -0.2388  2.2617
   85SLPC  H14S 8116   7.075   4.847   3.738 -0.3716  0.4547  0.4600
   85SLPC  C215 8117   7.005   4.807   3.930  0.2581  0.0056  0.4884
   85SLPC  H15R 8118   6.998   4.700   3.900  1.1519 -0.6349  2.3770
   85SLPC  H15S 8119   6.918   4.829   3.996  0.2279  0.4754  0.2951
   85SLPC  C216 8120   7.134   4.824   4.007  0.1222  0.2129 -0.5172
   85SLPC  H16R 8121   7.137   4.922   4.061 -0.9165  0.6083 -1.1574
   85SLPC  H16S 8122   7.210   4.815   3.926  1.1674  1.0324  0.3290
   85SLPC  C217 8123   7.170   4.722   4.108 -0.1954 -0.1204 -0.3561
   85SLPC  H17R 8124   7.269   4.753   4.149 -1.5424  2.3075  1.3049
   85SLPC  H17S 8125   7.185   4.626   4.054  2.1454  0.3813 -0.7322
   85SLPC  C218 8126   7.077   4.711   4.225  0.7179  1.0235  0.5764
   85SLPC  H18R 8127   7.068   4.805   4.284  1.5067  1.0246  0.7074
   85SLPC  H18S 8128   7.113   4.624   4.283  1.3425  0.1824 -1.0018
   85SLPC  H18T 8129   6.975   4.681   4.192  0.2359  1.9922  1.1251
   85SLPC   C33 8130   6.476   5.135   2.733  0.4208 -0.5987  0.3641
   85SLPC   H3X 8131   6.483   5.026   2.748 -3.0609 -0.9188  0.6140
   85SLPC   H3Y 8132   6.368   5.160   2.742  0.6706  0.9167 -0.3893
   85SLPC   C34 8133   6.550   5.210   2.841  0.6829  1.3812  0.6198
   85SLPC   H4X 8134   6.549   5.321   2.833  2.7423  1.4085  0.1314
   85SLPC   H4Y 8135   6.658   5.182   2.838 -0.1059 -2.0202 -0.1230
   85SLPC   C35 8136   6.508   5.149   2.979  0.4715 -0.1562  0.0285
   85SLPC   H5X 8137   6.538   5.042   2.987 -0.6648 -0.4696  0.3383
   85SLPC   H5Y 8138   6.397   5.158   2.986  0.4884  0.1044 -0.0344
   85SLPC   C36 8139   6.574   5.228   3.097  0.6933 -0.3582  0.0149
   85SLPC   H6X 8140   6.586   5.338   3.082 -0.3044  0.1466  2.3382
   85SLPC   H6Y 8141   6.677   5.188   3.102  1.0247 -0.1234 -2.9956
   85SLPC   C37 8142   6.503   5.220   3.226 -0.1980  0.2303 -0.1377
   85SLPC   H7X 8143   6.470   5.114   3.238  0.8022 -0.2059 -1.0418
   85SLPC   H7Y 8144   6.406   5.274   3.225 -0.9340 -0.9615  1.4918
   85SLPC   C38 8145   6.585   5.259   3.346  0.1925  0.2788 -0.6180
   85SLPC   H8X 8146   6.598   5.369   3.351  1.2161  0.1237  0.5424
   85SLPC   H8Y 8147   6.689   5.220   3.337 -0.5099 -2.1106  0.7422
   85SLPC   C39 8148   6.539   5.226   3.492 -0.3201  0.6974 -0.3014
   85SLPC   H9X 8149   6.528   5.117   3.508  1.4361  0.8463  2.8129
   85SLPC   H9Y 8150   6.437   5.265   3.509 -0.3460  1.2541 -1.5938
   85SLPC  C310 8151   6.650   5.270   3.588  0.1371 -0.0450  0.2620
   85SLPC  H10X 8152   6.667   5.380   3.587 -1.7910  0.4639  4.0103
   85SLPC  H10Y 8153   6.743   5.232   3.542  0.8005  0.9229  0.7681
   85SLPC  C311 8154   6.632   5.216   3.724 -0.0482  0.7911 -0.0588
   85SLPC  H11X 8155   6.628   5.105   3.723 -3.3609  0.8087  0.0202
   85SLPC  H11Y 8156   6.532   5.254   3.755 -0.9949 -2.0617  0.7840
   85SLPC  C312 8157   6.751   5.257   3.823  0.6527  0.0026  0.0245
   85SLPC  H12X 8158   6.774   5.366   3.824 -1.3163  0.4832 -1.2360
   85SLPC  H12Y 8159   6.844   5.201   3.805  1.2558  0.4313  1.6251
   85SLPC  C313 8160   6.709   5.224   3.968 -0.2634 -0.8616  0.2990
   85SLPC  H13X 8161   6.603   5.248   3.989  0.3659  2.2473  0.2878
   85SLPC  H13Y 8162   6.762   5.290   4.039 -0.3417  2.2710 -2.3363
   85SLPC  C314 8163   6.733   5.077   4.006 -0.4112  0.3728  0.2168
   85SLPC  H14X 8164   6.837   5.053   3.977 -0.2476  2.0913 -0.7438
   85SLPC  H14Y 8165   6.675   5.018   3.931  0.9042 -0.7501  0.0506
   85SLPC  C315 8166   6.710   5.054   4.158 -0.3918  0.2507  0.3591
   85SLPC  H15X 8167   6.606   5.088   4.177 -0.0473  2.2063 -0.8651
   85SLPC  H15Y 8168   6.776   5.118   4.221 -0.0429 -0.1598  0.4106
   85SLPC  C316 8169   6.718   4.911   4.211 -0.2462  0.2632  0.4455
   85SLPC  H16X 8170   6.717   4.897   4.322  1.4027 -1.3164  0.3102
   85SLPC  H16Y 8171   6.822   4.885   4.182 -0.7441 -0.4658 -0.7298
   85SLPC  C317 8172   6.624   4.815   4.142 -0.1793  0.4566 -0.0125
   85SLPC  H17X 8173   6.628   4.829   4.032  0.7923  1.0159  0.0774
   85SLPC  H17Y 8174   6.526   4.840   4.187 -2.1638  1.0821 -4.2103
   85SLPC  C318 8175   6.633   4.661   4.166  0.0611 -0.3199  0.1572
   85SLPC  H18X 8176   6.583   4.611   4.080 -0.2766 -2.8333  1.7112
   85SLPC  H18Y 8177   6.583   4.627   4.259  0.5950 -0.6034  0.3466
   85SLPC  H18Z 8178   6.738   4.626   4.174  0.4886 -0.1817 -3.3513
   86SLPC     N 8179   0.295   3.183   2.121 -0.4807  0.2888  0.2502
   86SLPC   C13 8180   0.411   3.288   2.127  0.5303  0.2378 -0.5684
   86SLPC  H13A 8181   0.497   3.240   2.172  0.0571 -0.7152 -0.6399
   86SLPC  H13B 8182   0.439   3.324   2.029  2.7891 -0.8653 -0.3803
   86SLPC  H13C 8183   0.389   3.376   2.185  0.1560  0.6063 -1.2491
   86SLPC   C14 8184   0.258   3.139   2.259  0.0348 -0.3720 -0.7410
   86SLPC  H14A 8185   0.207   3.213   2.319  2.6650  2.0823 -1.3249
   86SLPC  H14B 8186   0.181   3.063   2.259  0.1673 -0.5318  0.2974
   86SLPC  H14C 8187   0.336   3.099   2.321  0.0455  0.7886  0.0207
   86SLPC   C15 8188   0.347   3.065   2.042 -0.5682 -0.0100  0.7439
   86SLPC  H15A 8189   0.269   2.997   2.012  0.8603 -1.0861 -0.7071
   86SLPC  H15B 8190   0.395   3.099   1.951 -0.6643 -1.7404  0.0068
   86SLPC  H15C 8191   0.423   3.017   2.100 -0.3690  0.7882  1.1643
   86SLPC   C12 8192   0.178   3.243   2.052 -0.3583 -0.2569  0.3806
   86SLPC  H12A 8193   0.209   3.269   1.952  1.8180 -1.5932  0.6402
   86SLPC  H12B 8194   0.152   3.336   2.100 -1.0889 -0.0799 -0.3258
   86SLPC   C11 8195   0.047   3.158   2.030  0.0246  0.7247 -0.4968
   86SLPC  H11A 8196  -0.027   3.219   1.974 -1.5974  1.2146  2.0283
   86SLPC  H11B 8197   0.010   3.129   2.130  1.5243 -1.8273 -0.6138
   86SLPC     P 8198  -0.028   2.987   1.842 -0.1321 -0.1521  0.0114
   86SLPC   O13 8199  -0.124   3.090   1.800  0.4020  0.0154  0.4996
   86SLPC   O14 8200   0.060   2.929   1.740 -0.2439  0.4800  0.2054
   86SLPC   O12 8201   0.067   3.035   1.960  0.9822 -0.1254  0.7922
   86SLPC   O11 8202  -0.112   2.868   1.910  0.1802  0.4421  0.1444
   86SLPC    C1 8203  -0.056   2.782   2.015 -0.3033 -0.0897 -0.1210
   86SLPC    HA 8204  -0.018   2.690   1.966  1.8623  0.7281 -0.0639
   86SLPC    HB 8205   0.032   2.827   2.064 -0.8286  2.1978 -1.1293
   86SLPC    C2 8206  -0.158   2.764   2.126  0.3022  0.4156 -0.9356
   86SLPC    HS 8207  -0.239   2.704   2.079 -0.2646 -0.1887  0.7567
   86SLPC   O21 8208  -0.216   2.889   2.171 -0.7349 -0.1449 -0.2818
   86SLPC   C21 8209  -0.336   2.874   2.228 -0.0085 -0.6097 -0.8494
   86SLPC   O22 8210  -0.407   2.777   2.221 -0.0338  0.2688 -0.0849
   86SLPC   C22 8211  -0.382   3.010   2.287 -0.2873 -0.1005 -0.0816
   86SLPC   H2R 8212  -0.378   3.084   2.205 -0.1494 -2.2681 -2.1305
   86SLPC   H2S 8213  -0.485   2.991   2.323  0.0522  1.5798  1.9872
   86SLPC    C3 8214  -0.093   2.685   2.240  0.4274 -0.1948  0.4907
   86SLPC    HX 8215  -0.015   2.754   2.280  1.9043 -1.2059 -0.5470
   86SLPC    HY 8216  -0.027   2.603   2.204 -0.6644 -1.2113  0.7503
   86SLPC   O31 8217  -0.182   2.650   2.350  0.4875 -0.9540  0.2960
   86SLPC   C31 8218  -0.221   2.525   2.367  0.1516 -0.0101 -0.4234
   86SLPC   O32 8219  -0.194   2.432   2.291  0.5488 -0.3554 -0.1764
   86SLPC   C32 8220  -0.310   2.518   2.497 -0.5632 -0.1543 -0.2209
   86SLPC   H2X 8221  -0.410   2.481   2.465 -0.6531 -0.0971 -0.0029
   86SLPC   H2Y 8222  -0.321   2.619   2.542  1.5002  0.0108  0.0194
   86SLPC   C23 8223  -0.290   3.048   2.408 -0.0445 -0.5571  0.6385
   86SLPC   H3R 8224  -0.321   3.146   2.451  1.4003  1.0289 -1.6613
   86SLPC   H3S 8225  -0.187   3.061   2.367 -1.4820  0.8910 -2.9598
   86SLPC   C24 8226  -0.287   2.949   2.525  0.1522 -0.3900  0.4412
   86SLPC   H4R 8227  -0.309   2.846   2.489 -0.6323  0.2940 -1.1477
   86SLPC   H4S 8228  -0.371   2.981   2.590 -0.3977  1.9676 -1.2781
   86SLPC   C25 8229  -0.159   2.937   2.608  0.0667 -0.6850  0.3223
   86SLPC   H5R 8230  -0.087   2.898   2.533 -0.8810 -0.3130 -0.8180
   86SLPC   H5S 8231  -0.178   2.862   2.687 -1.0486  0.1821  0.9042
   86SLPC   C26 8232  -0.120   3.071   2.665  0.4610 -1.1325 -0.1442
   86SLPC   H6R 8233  -0.077   3.142   2.591 -1.6768 -0.1653 -0.5164
   86SLPC   H6S 8234  -0.036   3.049   2.735  0.0920  2.0366  1.4633
   86SLPC   C27 8235  -0.213   3.150   2.750 -0.0110 -0.5448 -0.1857
   86SLPC   H7R 8236  -0.254   3.090   2.835  2.1546 -1.0353  0.5777
   86SLPC   H7S 8237  -0.304   3.177   2.692  1.0926  1.1220 -1.2144
   86SLPC   C28 8238  -0.144   3.284   2.797  0.1332  0.6037  0.6167
   86SLPC   H8R 8239  -0.141   3.350   2.708 -0.5560  1.0285  0.9026
   86SLPC   H8S 8240  -0.040   3.257   2.827  0.8253  1.7585 -0.6100
   86SLPC   C29 8241  -0.225   3.341   2.912 -0.6095 -0.6986 -0.0170
   86SLPC   H9R 8242  -0.301   3.416   2.886  0.2599  1.5068  3.1051
   86SLPC  C210 8243  -0.216   3.327   3.050  0.5639  0.5973 -0.1741
   86SLPC  H10R 8244  -0.294   3.382   3.106 -1.8943 -1.2425 -1.5843
   86SLPC  C211 8245  -0.125   3.233   3.128  0.0884 -0.0188 -0.6610
   86SLPC  H11R 8246  -0.054   3.175   3.067 -0.7139 -1.3700 -0.3471
   86SLPC  H11S 8247  -0.190   3.162   3.184  2.0516 -0.3736  1.2810
   86SLPC  C212 8248  -0.047   3.311   3.238 -0.4378 -0.5792  0.5763
   86SLPC  H12R 8249   0.022   3.382   3.189  0.3487 -1.2446  0.6958
   86SLPC  C213 8250  -0.060   3.305   3.369  0.3479 -0.3236 -0.0052
   86SLPC  H13R 8251  -0.017   3.374   3.443  1.8968  0.5269 -1.6114
   86SLPC  C214 8252  -0.162   3.213   3.427  0.1092  0.3689 -0.8981
   86SLPC  H14R 8253  -0.113   3.114   3.432 -4.0950 -1.9057 -0.5362
   86SLPC  H14S 8254  -0.254   3.196   3.366 -1.3053  1.3020  0.8633
   86SLPC  C215 8255  -0.211   3.255   3.571  0.2342  0.3263  0.3453
   86SLPC  H15R 8256  -0.291   3.185   3.604  0.0167  0.7568  0.7358
   86SLPC  H15S 8257  -0.256   3.355   3.560 -1.9568 -0.5321  1.0265
   86SLPC  C216 8258  -0.104   3.278   3.682 -0.0876 -0.7070 -0.2060
   86SLPC  H16R 8259  -0.036   3.361   3.653  1.3628 -2.3109 -1.6478
   86SLPC  H16S 8260  -0.037   3.189   3.690 -0.1562 -0.7008  0.5023
   86SLPC  C217 8261  -0.162   3.334   3.818 -0.1966  0.4199  0.5959
   86SLPC  H17R 8262  -0.260   3.283   3.824 -0.5637  1.2317  1.6494
   86SLPC  H17S 8263  -0.187   3.442   3.811  3.4615  1.4947  1.4336
   86SLPC  C218 8264  -0.085   3.326   3.948 -0.6478 -0.5421 -0.5177
   86SLPC  H18R 8265   0.018   3.361   3.923 -0.5534 -1.3811 -1.3886
   86SLPC  H18S 8266  -0.078   3.219   3.977 -0.9310 -0.2110  0.8543
   86SLPC  H18T 8267  -0.136   3.386   4.026  0.1069 -1.7102  0.9240
   86SLPC   C33 8268  -0.246   2.411   2.592  0.6725 -0.6701  0.9475
   86SLPC   H3X 8269  -0.150   2.450   2.630  1.2147 -0.1875 -0.8351
   86SLPC   H3Y 8270  -0.212   2.324   2.533  1.0932  0.3717 -0.3876
   86SLPC   C34 8271  -0.334   2.363   2.702 -0.2788 -0.0857  0.1338
   86SLPC   H4X 8272  -0.434   2.339   2.660 -0.5758  0.7096  0.3638
   86SLPC   H4Y 8273  -0.350   2.442   2.779  1.6600  1.0434 -0.5512
   86SLPC   C35 8274  -0.287   2.235   2.780 -0.7418  0.2872 -0.1840
   86SLPC   H5X 8275  -0.189   2.244   2.831 -1.2126  0.1066  0.7736
   86SLPC   H5Y 8276  -0.256   2.159   2.705  1.7783  1.0541 -0.0106
   86SLPC   C36 8277  -0.397   2.182   2.870 -0.3113 -0.1655 -0.3513
   86SLPC   H6X 8278  -0.372   2.078   2.902  0.5395 -0.0080 -0.4821
   86SLPC   H6Y 8279  -0.491   2.182   2.811 -0.4943  2.0411 -0.1397
   86SLPC   C37 8280  -0.422   2.266   3.000 -0.7463 -0.0628  0.6349
   86SLPC   H7X 8281  -0.495   2.209   3.060 -0.5819 -2.7956 -1.5734
   86SLPC   H7Y 8282  -0.477   2.357   2.968 -1.4084 -0.9408 -0.8096
   86SLPC   C38 8283  -0.302   2.319   3.070 -0.8366 -0.1543  0.3667
   86SLPC   H8X 8284  -0.233   2.358   2.992 -1.4802  0.3486  0.0342
   86SLPC   H8Y 8285  -0.264   2.226   3.115 -0.1078 -0.5305 -0.9662
   86SLPC   C39 8286  -0.342   2.424   3.173  0.0535 -0.1153 -0.1175
   86SLPC   H9X 8287  -0.393   2.507   3.120  1.5582  2.2164  1.8944
   86SLPC   H9Y 8288  -0.243   2.454   3.213 -0.0779  0.3920 -0.1641
   86SLPC  C310 8289  -0.432   2.382   3.291 -0.5303  0.3821  0.1277
   86SLPC  H10X 8290  -0.380   2.309   3.357 -0.1613  0.2996 -0.2507
   86SLPC  H10Y 8291  -0.517   2.335   3.237  0.9031 -0.2759 -1.6505
   86SLPC  C311 8292  -0.475   2.503   3.373  0.2082 -0.2597 -0.3742
   86SLPC  H11X 8293  -0.517   2.582   3.307 -0.8347 -0.0750  0.4960
   86SLPC  H11Y 8294  -0.384   2.551   3.414  0.0883  0.4866 -0.9512
   86SLPC  C312 8295  -0.556   2.470   3.493 -0.0159  0.9322 -0.4073
   86SLPC  H12X 8296  -0.510   2.388   3.554 -1.2194  0.3203 -0.2926
   86SLPC  H12Y 8297  -0.650   2.418   3.465  0.8054 -1.8200  1.4356
   86SLPC  C313 8298  -0.589   2.573   3.590 -0.0748 -0.1256  0.6513
   86SLPC  H13X 8299  -0.645   2.657   3.543 -1.4429 -0.4453  1.6349
   86SLPC  H13Y 8300  -0.498   2.621   3.632 -0.1697  0.6051  0.0525
   86SLPC  C314 8301  -0.672   2.532   3.711  0.0281 -0.1289  0.4403
   86SLPC  H14X 8302  -0.620   2.455   3.771  0.0993  0.5792  1.3026
   86SLPC  H14Y 8303  -0.769   2.502   3.666  0.6989  0.6055 -1.6658
   86SLPC  C315 8304  -0.703   2.653   3.800 -0.1165  0.3710  0.5740
   86SLPC  H15X 8305  -0.724   2.744   3.739  0.9628 -0.1147 -0.5642
   86SLPC  H15Y 8306  -0.600   2.671   3.838  0.3919  1.6478 -1.2474
   86SLPC  C316 8307  -0.795   2.617   3.913 -0.2234  0.5123  0.0890
   86SLPC  H16X 8308  -0.751   2.530   3.967 -0.6491  0.8346  0.9684
   86SLPC  H16Y 8309  -0.896   2.581   3.882  0.2258 -0.2496 -0.5479
   86SLPC  C317 8310  -0.829   2.728   4.013 -0.2223  0.0086  0.3820
   86SLPC  H17X 8311  -0.884   2.806   3.956 -0.9918  1.3452  2.8389
   86SLPC  H17Y 8312  -0.733   2.765   4.055  1.0959 -2.0679 -0.6446
   86SLPC  C318 8313  -0.915   2.690   4.133 -0.1269 -0.2207  0.6849
   86SLPC  H18X 8314  -1.024   2.693   4.110  0.0603  0.6530 -0.1416
   86SLPC  H18Y 8315  -0.899   2.745   4.228 -1.9019 -0.0370  0.9120
   86SLPC  H18Z 8316  -0.899   2.584   4.162 -0.2145  0.2233  2.5423
   87SLPC     N 8317   6.317   1.364   1.847 -0.0959  0.3497  0.1811
   87SLPC   C13 8318   6.211   1.452   1.788 -0.3069  0.5597 -0.5976
   87SLPC  H13A 8319   6.230   1.557   1.774 -0.1776  0.4973 -0.9103
   87SLPC  H13B 8320   6.177   1.405   1.696 -2.8996 -1.3842  1.2040
   87SLPC  H13C 8321   6.128   1.452   1.857  1.2927  0.0227  1.4089
   87SLPC   C14 8322   6.441   1.361   1.758  0.1298 -0.1234 -0.0720
   87SLPC  H14A 8323   6.485   1.460   1.764 -0.9595  0.3397  0.5698
   87SLPC  H14B 8324   6.517   1.287   1.778 -0.2389 -0.2842  0.7911
   87SLPC  H14C 8325   6.415   1.344   1.655 -0.7441  0.0863  0.1104
   87SLPC   C15 8326   6.269   1.226   1.864  0.1046 -0.7247  0.7171
   87SLPC  H15A 8327   6.277   1.172   1.770  1.0068  1.5180 -0.5749
   87SLPC  H15B 8328   6.335   1.175   1.932  1.7950  0.9149  0.3768
   87SLPC  H15C 8329   6.171   1.213   1.908 -0.3845 -0.2339 -0.1932
   87SLPC   C12 8330   6.358   1.401   1.989  0.2012  0.2328  0.4017
   87SLPC  H12A 8331   6.410   1.496   1.990 -1.6300  1.2776  1.7738
   87SLPC  H12B 8332   6.427   1.324   2.021  0.2408  0.4587  0.8758
   87SLPC   C11 8333   6.250   1.425   2.095 -0.1128  0.1206 -0.4369
   87SLPC  H11A 8334   6.317   1.418   2.183  1.0186  0.8717 -1.2150
   87SLPC  H11B 8335   6.175   1.343   2.099  3.3372 -3.2909  0.0875
   87SLPC     P 8336   6.080   1.611   2.130 -0.0264 -0.1855  0.3697
   87SLPC   O13 8337   6.100   1.752   2.174  0.4350 -0.0659  0.2657
   87SLPC   O14 8338   5.982   1.594   2.022 -0.7153 -0.3520  0.8664
   87SLPC   O12 8339   6.220   1.559   2.084  0.3128 -0.0694 -0.2896
   87SLPC   O11 8340   6.042   1.510   2.253  0.5600 -0.0359 -0.4156
   87SLPC    C1 8341   6.020   1.564   2.384 -0.4918 -0.1028  0.1125
   87SLPC    HA 8342   5.963   1.659   2.389 -0.0101  0.1582  0.8762
   87SLPC    HB 8343   5.963   1.488   2.443  0.5015 -0.5561  0.5193
   87SLPC    C2 8344   6.156   1.573   2.457 -0.4391 -0.2167 -0.2635
   87SLPC    HS 8345   6.226   1.643   2.405  0.1611 -0.6354 -0.0362
   87SLPC   O21 8346   6.202   1.441   2.469  0.3684  0.1503 -0.3302
   87SLPC   C21 8347   6.334   1.421   2.470  0.3528  0.1031  0.1588
   87SLPC   O22 8348   6.416   1.512   2.462 -0.4104 -0.3600  0.1094
   87SLPC   C22 8349   6.360   1.268   2.488 -0.1781  0.3458  0.3742
   87SLPC   H2R 8350   6.295   1.222   2.565 -0.3367 -2.3600 -1.2765
   87SLPC   H2S 8351   6.344   1.215   2.392 -2.2366  2.2103 -0.3903
   87SLPC    C3 8352   6.132   1.643   2.597  0.1869 -0.8378 -0.8920
   87SLPC    HX 8353   6.054   1.722   2.588 -1.3678 -2.2278 -0.1576
   87SLPC    HY 8354   6.228   1.692   2.621 -1.2240  0.9214  1.6194
   87SLPC   O31 8355   6.083   1.551   2.702 -0.0200 -0.5947 -0.4350
   87SLPC   C31 8356   6.086   1.606   2.818 -0.2802  0.3928 -0.5311
   87SLPC   O32 8357   6.107   1.725   2.841  0.0112  0.2606  0.5273
   87SLPC   C32 8358   6.078   1.492   2.925  0.0908  0.0364  0.7513
   87SLPC   H2X 8359   6.143   1.413   2.881  0.3827  1.3658 -1.3596
   87SLPC   H2Y 8360   5.973   1.455   2.929  0.7848 -1.9997  4.4866
   87SLPC   C23 8361   6.501   1.228   2.525 -0.1040  0.3286  0.4289
   87SLPC   H3R 8362   6.567   1.252   2.438  0.4511 -0.5150  0.6085
   87SLPC   H3S 8363   6.504   1.119   2.543 -0.5719  0.2013 -0.2217
   87SLPC   C24 8364   6.545   1.279   2.664 -0.0992 -0.0118  0.3347
   87SLPC   H4R 8365   6.544   1.390   2.674  3.2260  0.0876  0.6109
   87SLPC   H4S 8366   6.653   1.257   2.671  0.1038  0.8379  0.0569
   87SLPC   C25 8367   6.455   1.204   2.771 -0.5211 -0.1780 -0.1231
   87SLPC   H5R 8368   6.456   1.093   2.764 -0.6364 -0.2842  1.2407
   87SLPC   H5S 8369   6.350   1.237   2.758  0.2737  1.9525 -1.4523
   87SLPC   C26 8370   6.501   1.243   2.920 -0.1159 -0.6508  0.1037
   87SLPC   H6R 8371   6.610   1.226   2.907 -0.2275 -1.4468  0.1689
   87SLPC   H6S 8372   6.448   1.182   2.996  1.0889  0.0266  1.5435
   87SLPC   C27 8373   6.485   1.391   2.946 -0.2024  0.2768 -0.2176
   87SLPC   H7R 8374   6.381   1.425   2.926  0.2510  2.2345  0.5359
   87SLPC   H7S 8375   6.548   1.455   2.880  0.4454 -0.1534 -0.0306
   87SLPC   C28 8376   6.512   1.439   3.089 -0.1916  0.3561  0.8748
   87SLPC   H8R 8377   6.510   1.550   3.085  0.7380  0.4369  2.1044
   87SLPC   H8S 8378   6.615   1.408   3.115 -1.2603 -3.5545  1.0682
   87SLPC   C29 8379   6.411   1.387   3.188 -0.0351  0.3892 -0.6315
   87SLPC   H9R 8380   6.327   1.330   3.146 -3.6077  4.3689  0.4963
   87SLPC  C210 8381   6.435   1.386   3.323  0.2439  0.9935 -0.2438
   87SLPC  H10R 8382   6.358   1.332   3.379  0.4971 -0.6177 -1.3729
   87SLPC  C211 8383   6.549   1.448   3.397  0.0454 -0.5350 -0.0476
   87SLPC  H11R 8384   6.596   1.522   3.330 -2.4199  0.4037 -0.8730
   87SLPC  H11S 8385   6.627   1.373   3.420  2.0026  0.7864 -2.0263
   87SLPC  C212 8386   6.493   1.528   3.518  0.0346 -0.0238  0.9488
   87SLPC  H12R 8387   6.420   1.605   3.490  0.8546 -0.0216 -1.4935
   87SLPC  C213 8388   6.511   1.500   3.648 -0.7937 -0.5778 -0.7970
   87SLPC  H13R 8389   6.497   1.585   3.717  0.0047  1.9437 -3.5338
   87SLPC  C214 8390   6.600   1.391   3.697 -0.4984  0.6237  0.3742
   87SLPC  H14R 8391   6.687   1.373   3.631 -0.0449  0.0829  1.1023
   87SLPC  H14S 8392   6.553   1.290   3.696 -2.7546  1.5950  1.2742
   87SLPC  C215 8393   6.650   1.416   3.844 -0.7335  0.1202 -0.4871
   87SLPC  H15R 8394   6.695   1.516   3.831 -2.1643  0.6708 -1.5193
   87SLPC  H15S 8395   6.718   1.337   3.881 -2.0361  0.6997  3.6629
   87SLPC  C216 8396   6.540   1.413   3.954  0.2383  0.6843  0.2804
   87SLPC  H16R 8397   6.489   1.315   3.959 -0.0951  0.6816 -1.9410
   87SLPC  H16S 8398   6.458   1.481   3.921  0.2161  1.4399  1.8309
   87SLPC  C217 8399   6.589   1.467   4.086 -0.6007 -0.2577  0.5719
   87SLPC  H17R 8400   6.522   1.444   4.171  0.0703 -0.0056  1.1789
   87SLPC  H17S 8401   6.597   1.578   4.091 -0.9259 -0.0545 -1.9173
   87SLPC  C218 8402   6.729   1.416   4.121  0.2942  0.2977 -0.1769
   87SLPC  H18R 8403   6.797   1.460   4.045 -1.4650 -0.4444 -2.3128
   87SLPC  H18S 8404   6.732   1.306   4.104 -0.1243  0.4244 -1.1786
   87SLPC  H18T 8405   6.765   1.446   4.222  0.4715 -1.1626  0.2194
   87SLPC   C33 8406   6.123   1.533   3.069  0.6769 -0.2858 -0.0009
   87SLPC   H3X 8407   6.224   1.577   3.081  0.3130  0.4021  0.5587
   87SLPC   H3Y 8408   6.110   1.441   3.131  0.5484  0.3278  0.9046
   87SLPC   C34 8409   6.040   1.651   3.139  0.1157  0.0630 -0.2892
   87SLPC   H4X 8410   5.934   1.621   3.141 -0.3306  1.5779 -0.1703
   87SLPC   H4Y 8411   6.043   1.738   3.070 -1.3282  0.6992  0.4240
   87SLPC   C35 8412   6.090   1.711   3.271  0.0482  0.0712  0.0122
   87SLPC   H5X 8413   6.179   1.772   3.246  0.5116 -1.2662 -1.7951
   87SLPC   H5Y 8414   6.119   1.630   3.341 -2.3666 -1.4651 -0.6460
   87SLPC   C36 8415   5.981   1.802   3.328 -0.5269  0.1397 -0.4074
   87SLPC   H6X 8416   5.903   1.734   3.368  1.8537 -2.0632  0.8262
   87SLPC   H6Y 8417   5.937   1.863   3.246  0.5938  1.5827  0.0131
   87SLPC   C37 8418   6.032   1.889   3.451  0.3693 -0.8924  0.0298
   87SLPC   H7X 8419   6.121   1.937   3.405 -0.8025  1.2645 -0.0928
   87SLPC   H7Y 8420   6.066   1.820   3.531 -0.9535 -0.2221  1.1913
   87SLPC   C38 8421   5.935   1.986   3.519  0.4355 -0.0242 -0.1275
   87SLPC   H8X 8422   5.852   1.919   3.552  0.3582  0.3211  0.4019
   87SLPC   H8Y 8423   5.892   2.060   3.449  0.1505 -1.5730 -1.6652
   87SLPC   C39 8424   5.975   2.057   3.644 -0.2678 -0.3327  0.4940
   87SLPC   H9X 8425   6.045   2.139   3.617  0.0842 -0.5076  0.8659
   87SLPC   H9Y 8426   6.031   1.998   3.720  0.0475  2.1475  2.2711
   87SLPC  C310 8427   5.848   2.122   3.711 -0.1043 -0.1736  0.3589
   87SLPC  H10X 8428   5.775   2.041   3.733  0.8379 -1.2260 -0.2964
   87SLPC  H10Y 8429   5.805   2.199   3.644  0.6888 -1.9447 -2.3318
   87SLPC  C311 8430   5.884   2.193   3.839 -1.1758  0.4760 -0.5058
   87SLPC  H11X 8431   5.953   2.279   3.822  0.1611 -0.2995  0.7433
   87SLPC  H11Y 8432   5.934   2.122   3.909  0.9603  1.5558 -0.8287
   87SLPC  C312 8433   5.757   2.243   3.907  1.0567 -0.1095  0.3317
   87SLPC  H12X 8434   5.688   2.156   3.909  2.6185 -1.4049  1.9118
   87SLPC  H12Y 8435   5.713   2.328   3.851  1.9934 -0.0861 -0.4076
   87SLPC  C313 8436   5.787   2.285   4.053 -0.1927 -0.0634 -0.4493
   87SLPC  H13X 8437   5.835   2.197   4.101  1.2475  0.7890 -0.2562
   87SLPC  H13Y 8438   5.692   2.315   4.104 -0.8738 -0.9055 -1.1924
   87SLPC  C314 8439   5.872   2.408   4.076 -0.1744  0.2990  0.0660
   87SLPC  H14X 8440   5.816   2.490   4.026  0.1567  0.4024 -0.1352
   87SLPC  H14Y 8441   5.969   2.393   4.024 -0.9917 -0.7516 -1.2327
   87SLPC  C315 8442   5.909   2.438   4.221 -0.1625 -0.1617  0.2968
   87SLPC  H15X 8443   5.807   2.451   4.262 -0.4558  0.3812 -0.5838
   87SLPC  H15Y 8444   5.967   2.532   4.237 -2.3680  1.4111 -0.4384
   87SLPC  C316 8445   5.985   2.329   4.289 -0.3076 -0.0505  0.7497
   87SLPC  H16X 8446   6.076   2.312   4.228 -1.3236 -1.7759 -0.3640
   87SLPC  H16Y 8447   5.920   2.239   4.283 -2.2675  1.3338  0.3690
   87SLPC  C317 8448   6.026   2.367   4.429  0.3683  0.0682 -0.5004
   87SLPC  H17X 8449   5.939   2.411   4.482  0.5687 -0.1080 -0.0217
   87SLPC  H17Y 8450   6.101   2.447   4.414  0.4034 -0.0420 -0.9269
   87SLPC  C318 8451   6.092   2.259   4.517  0.1051  0.3355 -0.6752
   87SLPC  H18X 8452   6.040   2.162   4.532  1.1522  0.0310  1.4185
   87SLPC  H18Y 8453   6.124   2.283   4.621 -0.8241 -1.8004  0.1620
   87SLPC  H18Z 8454   6.186   2.226   4.467  0.5560  0.4268  0.0860
   88SLPC     N 8455   7.023   6.418   2.382  0.0274  0.2672 -0.4241
   88SLPC   C13 8456   7.026   6.323   2.504  0.3870  0.5239  0.1811
   88SLPC  H13A 8457   6.942   6.255   2.495  0.0585  0.9250  0.2055
   88SLPC  H13B 8458   7.112   6.259   2.494 -1.0486 -1.3212 -1.2818
   88SLPC  H13C 8459   7.027   6.368   2.602  0.6022 -2.5457  1.7311
   88SLPC   C14 8460   6.925   6.523   2.406 -0.3015  0.0587  0.1731
   88SLPC  H14A 8461   6.941   6.564   2.505 -1.1457 -3.3223  1.8868
   88SLPC  H14B 8462   6.928   6.603   2.334  0.1754 -0.5825 -0.5357
   88SLPC  H14C 8463   6.826   6.481   2.413 -0.2517  0.0948  1.2394
   88SLPC   C15 8464   6.984   6.337   2.265  0.2082 -0.1978  0.1363
   88SLPC  H15A 8465   6.942   6.407   2.195 -0.2219  0.6058  1.1761
   88SLPC  H15B 8466   7.062   6.279   2.217 -0.5180 -1.3926  0.3622
   88SLPC  H15C 8467   6.900   6.270   2.278  0.9222 -1.5479 -1.7610
   88SLPC   C12 8468   7.158   6.491   2.357 -0.1057 -0.4650  0.3220
   88SLPC  H12A 8469   7.136   6.562   2.279  1.5808  1.5934  1.6002
   88SLPC  H12B 8470   7.238   6.427   2.323 -0.8333 -4.1999  4.6420
   88SLPC   C11 8471   7.225   6.558   2.483  0.3439  0.0047 -0.0688
   88SLPC  H11A 8472   7.333   6.565   2.459  0.2736 -2.2198 -1.3172
   88SLPC  H11B 8473   7.220   6.496   2.575 -0.6275  1.2204  0.7333
   88SLPC     P 8474   7.223   6.806   2.476 -0.0670 -0.3047 -0.0456
   88SLPC   O13 8475   7.372   6.808   2.502  0.5227  0.1265  0.3046
   88SLPC   O14 8476   7.173   6.824   2.336 -0.0037 -0.1297 -0.5340
   88SLPC   O12 8477   7.159   6.676   2.527  0.6427 -0.1164 -0.5207
   88SLPC   O11 8478   7.160   6.912   2.570 -0.0899 -0.1120  0.1204
   88SLPC    C1 8479   7.127   6.877   2.701 -0.3283 -0.6287 -0.2914
   88SLPC    HA 8480   7.026   6.833   2.688 -1.6559  1.7312  1.1390
   88SLPC    HB 8481   7.191   6.798   2.744 -0.8852 -0.5334  0.7599
   88SLPC    C2 8482   7.126   6.987   2.806  0.1121 -0.3277 -0.1303
   88SLPC    HS 8483   7.088   7.076   2.751 -2.2237  0.1770  2.0821
   88SLPC   O21 8484   7.262   7.014   2.854  0.8763  0.2846 -0.3730
   88SLPC   C21 8485   7.326   7.102   2.800 -0.7008 -0.7387 -0.1577
   88SLPC   O22 8486   7.303   7.167   2.696 -0.1999  0.2144 -0.1801
   88SLPC   C22 8487   7.459   7.119   2.889  0.1109  0.2680  0.6083
   88SLPC   H2R 8488   7.519   7.026   2.875 -0.4017 -0.0978  0.8392
   88SLPC   H2S 8489   7.520   7.199   2.842  1.7642 -0.0727  2.0547
   88SLPC    C3 8490   7.031   6.949   2.926  0.6493  0.1997  0.2199
   88SLPC    HX 8491   7.084   6.860   2.966 -0.1576  0.2825  1.5481
   88SLPC    HY 8492   6.933   6.927   2.878  0.0355 -1.2862  2.0112
   88SLPC   O31 8493   7.016   7.051   3.024 -0.1701  0.4416 -0.1219
   88SLPC   C31 8494   7.076   7.039   3.140  0.0704  0.0037  0.1964
   88SLPC   O32 8495   7.150   6.950   3.180 -0.0560  0.0378  0.1616
   88SLPC   C32 8496   7.021   7.149   3.231  0.2576  0.6288  0.1247
   88SLPC   H2X 8497   6.910   7.143   3.234  0.2701  0.5175  2.8974
   88SLPC   H2Y 8498   7.059   7.238   3.176  0.4565 -0.8201 -2.2250
   88SLPC   C23 8499   7.430   7.135   3.040 -0.0806  0.1085  0.5529
   88SLPC   H3R 8500   7.362   7.055   3.075  1.4477 -1.1562  0.7180
   88SLPC   H3S 8501   7.372   7.230   3.040  0.2632  0.3684  2.4899
   88SLPC   C24 8502   7.555   7.159   3.124 -0.8371  0.0831 -0.9404
   88SLPC   H4R 8503   7.603   7.256   3.101 -0.4394 -0.2533 -1.5396
   88SLPC   H4S 8504   7.630   7.078   3.108 -0.9561 -0.5462  1.3220
   88SLPC   C25 8505   7.519   7.152   3.269 -0.0365  0.7043 -0.1902
   88SLPC   H5R 8506   7.426   7.091   3.275  1.3775 -1.8274 -1.9152
   88SLPC   H5S 8507   7.497   7.254   3.307  0.4016  0.7387 -0.0298
   88SLPC   C26 8508   7.634   7.089   3.351  0.6287  0.0227 -1.2069
   88SLPC   H6R 8509   7.639   6.981   3.327 -0.3605 -0.5187  0.7624
   88SLPC   H6S 8510   7.612   7.094   3.460  1.8483 -3.4587 -0.6774
   88SLPC   C27 8511   7.771   7.159   3.340  0.0651 -0.4782  0.0846
   88SLPC   H7R 8512   7.758   7.262   3.302 -1.8354 -0.4189  0.7688
   88SLPC   H7S 8513   7.832   7.121   3.256 -1.1809  0.7388 -1.4264
   88SLPC   C28 8514   7.859   7.152   3.458 -0.2416  0.7031 -0.5676
   88SLPC   H8R 8515   7.960   7.191   3.432  0.6466 -1.4780 -0.5375
   88SLPC   H8S 8516   7.882   7.048   3.490  2.2125  1.6870  1.2405
   88SLPC   C29 8517   7.808   7.219   3.584  0.2680 -0.4762 -0.2748
   88SLPC   H9R 8518   7.814   7.328   3.576  1.7550 -0.4619  0.6264
   88SLPC  C210 8519   7.769   7.166   3.701  0.0018  0.1593  0.0376
   88SLPC  H10R 8520   7.722   7.240   3.768 -0.3463  0.8089 -0.9058
   88SLPC  C211 8521   7.783   7.024   3.748  0.2629  0.6184  0.6593
   88SLPC  H11R 8522   7.765   6.954   3.664 -0.2428 -0.0031  1.2783
   88SLPC  H11S 8523   7.698   7.013   3.819 -1.4409 -1.8655 -1.5767
   88SLPC  C212 8524   7.921   6.983   3.806  0.5010 -0.4968  0.4260
   88SLPC  H12R 8525   8.005   7.032   3.756  0.0280 -0.6285 -0.5057
   88SLPC  C213 8526   7.948   6.943   3.931 -0.0214 -0.4746  0.1693
   88SLPC  H13R 8527   8.052   6.924   3.961  0.4609  1.0879 -0.4631
   88SLPC  C214 8528   7.845   6.897   4.030 -0.6030  0.3944  0.0330
   88SLPC  H14R 8529   7.885   6.809   4.086  1.3389  1.1088 -0.1748
   88SLPC  H14S 8530   7.749   6.867   3.983 -1.1370  1.3563  0.4947
   88SLPC  C215 8531   7.813   7.016   4.113  0.5629 -0.2403 -0.6591
   88SLPC  H15R 8532   7.755   7.095   4.061 -0.2714  1.3359  2.4029
   88SLPC  H15S 8533   7.900   7.058   4.169 -0.5742 -1.5064  2.2741
   88SLPC  C216 8534   7.725   6.973   4.230  0.0534 -0.4419  0.3522
   88SLPC  H16R 8535   7.726   6.862   4.238  0.4839 -0.6997 -2.2897
   88SLPC  H16S 8536   7.621   7.009   4.210 -0.5098 -0.4472  2.9313
   88SLPC  C217 8537   7.761   7.037   4.363  0.1063  0.0209 -0.6684
   88SLPC  H17R 8538   7.756   7.148   4.366 -2.3135 -0.0404 -0.2816
   88SLPC  H17S 8539   7.866   7.011   4.385 -0.7163 -2.4374  0.7563
   88SLPC  C218 8540   7.678   6.989   4.482 -0.3558 -0.3462 -0.4010
   88SLPC  H18R 8541   7.569   6.998   4.462 -0.5792  2.3789  1.4198
   88SLPC  H18S 8542   7.687   7.065   4.563  0.0418 -2.0139  1.1887
   88SLPC  H18T 8543   7.704   6.886   4.512 -1.0829 -0.2871  0.4735
   88SLPC   C33 8544   7.078   7.148   3.373 -0.4413  0.2911  0.0115
   88SLPC   H3X 8545   7.178   7.101   3.378 -1.3201 -1.6980 -0.1363
   88SLPC   H3Y 8546   7.013   7.083   3.436  0.6183 -1.7936 -0.9413
   88SLPC   C34 8547   7.096   7.290   3.426  0.1479  0.0762 -0.1575
   88SLPC   H4X 8548   7.008   7.341   3.380  1.4807  1.1204 -1.6584
   88SLPC   H4Y 8549   7.194   7.331   3.395  0.1095 -1.4218 -2.5050
   88SLPC   C35 8550   7.111   7.302   3.576  0.5400  0.1996  0.5553
   88SLPC   H5X 8551   7.142   7.405   3.602  1.6356 -0.0728  0.3925
   88SLPC   H5Y 8552   7.191   7.241   3.624  0.5397 -0.2905 -0.0456
   88SLPC   C36 8553   6.976   7.285   3.652 -0.6606 -0.4538  0.2230
   88SLPC   H6X 8554   6.944   7.179   3.657  0.1708 -0.7369 -0.2471
   88SLPC   H6Y 8555   6.911   7.348   3.587  0.3917 -2.0806 -2.6300
   88SLPC   C37 8556   6.978   7.326   3.795 -0.6260 -0.2859 -0.7376
   88SLPC   H7X 8557   7.005   7.434   3.806 -0.1082 -0.6686  3.1245
   88SLPC   H7Y 8558   7.053   7.271   3.857  0.3148  0.0081 -1.5787
   88SLPC   C38 8559   6.837   7.332   3.867  0.2396  0.0498  1.0982
   88SLPC   H8X 8560   6.806   7.229   3.839 -1.0848  1.2099 -2.1217
   88SLPC   H8Y 8561   6.766   7.403   3.820  0.1600 -0.2990  0.6792
   88SLPC   C39 8562   6.826   7.339   4.020  0.0292 -0.1238 -0.0944
   88SLPC   H9X 8563   6.907   7.279   4.066 -0.0200 -0.0346  0.1111
   88SLPC   H9Y 8564   6.729   7.288   4.041  0.4001 -1.0274 -0.4863
   88SLPC  C310 8565   6.835   7.487   4.069  0.6372 -0.0848 -0.3008
   88SLPC  H10X 8566   6.756   7.543   4.014  0.7718  2.0588  1.5427
   88SLPC  H10Y 8567   6.935   7.531   4.049  1.1911 -1.0219  0.3171
   88SLPC  C311 8568   6.812   7.510   4.215  0.5320 -0.6107 -1.0017
   88SLPC  H11X 8569   6.704   7.491   4.235  0.5302 -0.2843 -0.6982
   88SLPC  H11Y 8570   6.850   7.612   4.235  1.4826 -1.1861  0.2674
   88SLPC  C312 8571   6.884   7.409   4.308 -0.2003  0.2710 -0.2002
   88SLPC  H12X 8572   6.992   7.410   4.282 -0.3646 -0.9896 -1.0040
   88SLPC  H12Y 8573   6.852   7.304   4.290  0.5920 -0.0056 -0.0525
   88SLPC  C313 8574   6.869   7.448   4.453  1.0241 -0.3300  0.0148
   88SLPC  H13X 8575   6.766   7.424   4.487  0.5059  1.7756  0.0524
   88SLPC  H13Y 8576   6.890   7.557   4.461  0.8246 -0.1366 -1.7758
   88SLPC  C314 8577   6.961   7.374   4.549  0.0761  0.9386 -0.5906
   88SLPC  H14X 8578   7.065   7.386   4.511  0.0030  1.4276 -0.6394
   88SLPC  H14Y 8579   6.928   7.269   4.531 -0.1050  0.7231  0.8895
   88SLPC  C315 8580   6.945   7.407   4.695  0.2594 -1.0157 -0.7319
   88SLPC  H15X 8581   7.001   7.345   4.769  0.3047 -0.0213  0.0986
   88SLPC  H15Y 8582   6.840   7.383   4.723  0.1881  0.4000  0.3329
   88SLPC  C316 8583   6.983   7.558   4.731 -0.7879 -0.0819  0.6172
   88SLPC  H16X 8584   6.972   7.573   4.840  2.2017  0.8723  0.8813
   88SLPC  H16Y 8585   6.909   7.613   4.667 -2.5911 -2.3388  0.6341
   88SLPC  C317 8586   7.124   7.614   4.681  0.7206 -0.0995 -0.7106
   88SLPC  H17X 8587   7.131   7.718   4.721  0.7558 -1.0862  1.9929
   88SLPC  H17Y 8588   7.122   7.618   4.569 -0.7352  1.2073 -0.6746
   88SLPC  C318 8589   7.246   7.531   4.712  0.1147  0.0498  0.2134
   88SLPC  H18X 8590   7.330   7.580   4.659  0.9211 -0.1285  1.2737
   88SLPC  H18Y 8591   7.225   7.431   4.668 -3.6451  1.9804 -2.8643
   88SLPC  H18Z 8592   7.263   7.523   4.822 -0.9647 -0.1586  0.3700
   89SAPE     N 8593   4.002   1.931   5.979 -0.3089  0.7352 -0.3480
   89SAPE   HN1 8594   3.922   1.983   6.020 -0.0973  1.7226 -1.1505
   89SAPE   HN2 8595   4.010   1.944   5.876 -1.6609  1.1724 -0.4228
   89SAPE   HN3 8596   3.987   1.829   5.995 -0.8947  0.6587 -1.3229
   89SAPE   C12 8597   4.120   1.990   6.047 -0.4728 -0.2948  0.2098
   89SAPE  H12A 8598   4.210   1.930   6.025  1.2974  2.8870 -2.1197
   89SAPE  H12B 8599   4.104   1.968   6.154  2.3420  0.3795  0.8389
   89SAPE   C11 8600   4.139   2.140   6.017 -0.1638 -0.4991 -0.4778
   89SAPE  H11A 8601   4.170   2.133   5.910 -0.2227 -0.2491 -0.5123
   89SAPE  H11B 8602   4.219   2.192   6.073  0.1596 -0.2309 -1.1732
   89SAPE     P 8603   3.990   2.360   6.069  0.0818  0.2273  0.2448
   89SAPE   O13 8604   3.932   2.351   6.204  0.5678 -0.1515  0.0082
   89SAPE   O14 8605   4.110   2.443   6.060  0.1023 -0.5936 -0.3617
   89SAPE   O12 8606   4.021   2.216   6.013  0.3177  0.5275 -0.3368
   89SAPE   O11 8607   3.882   2.416   5.963 -0.1820  0.4266  0.5297
   89SAPE    C1 8608   3.899   2.423   5.815  0.2996 -0.1065  0.2485
   89SAPE    HA 8609   3.946   2.329   5.778  0.8692  0.6028 -0.8834
   89SAPE    HB 8610   3.808   2.436   5.754  0.5042  3.8170  0.5536
   89SAPE    C2 8611   3.992   2.535   5.776 -0.3027 -0.6447 -0.1018
   89SAPE    HS 8612   4.093   2.526   5.821 -0.5484 -1.4590  0.3075
   89SAPE   O21 8613   3.952   2.669   5.812 -0.0852 -0.5200 -0.2750
   89SAPE   C21 8614   3.819   2.695   5.801 -0.6147  0.2352 -0.5884
   89SAPE   O22 8615   3.738   2.635   5.739  0.3405 -0.4342  0.2147
   89SAPE   C22 8616   3.785   2.806   5.891 -0.5707 -0.9164  0.3522
   89SAPE   H2R 8617   3.748   2.765   5.988 -2.3752 -0.5886 -0.1461
   89SAPE   H2S 8618   3.872   2.873   5.907 -1.0979 -0.2093  0.3543
   89SAPE    C3 8619   4.032   2.535   5.621  0.8712 -0.0949  0.1966
   89SAPE    HX 8620   4.066   2.432   5.598  1.3508  0.1901 -0.4031
   89SAPE    HY 8621   4.115   2.607   5.607 -0.0495  0.7085 -1.3453
   89SAPE   O31 8622   3.921   2.584   5.540 -0.6398  0.0606 -0.0356
   89SAPE   C31 8623   3.856   2.493   5.472  0.1760  0.4300  0.3216
   89SAPE   O32 8624   3.868   2.371   5.488 -0.1927 -0.3770  0.4068
   89SAPE   C32 8625   3.733   2.550   5.407 -0.2484  0.0209 -0.3361
   89SAPE   H2X 8626   3.683   2.614   5.483  1.6412 -0.9439  1.8174
   89SAPE   H2Y 8627   3.664   2.466   5.383  0.9583 -1.6813  1.7955
   89SAPE   C23 8628   3.675   2.903   5.835  0.0810 -0.3090 -0.0575
   89SAPE   H3R 8629   3.629   2.951   5.924 -2.1831  1.8332 -2.2279
   89SAPE   H3S 8630   3.593   2.844   5.790 -0.6409  0.9096 -0.3832
   89SAPE   C24 8631   3.714   3.018   5.740  0.0533  0.2530 -0.0229
   89SAPE   H4R 8632   3.781   3.093   5.786  1.3132  0.5744 -2.2455
   89SAPE   H4S 8633   3.620   3.068   5.708 -1.3568 -0.2791  2.9327
   89SAPE   C25 8634   3.784   2.972   5.611 -0.4620 -0.5501 -0.9943
   89SAPE   H5R 8635   3.728   2.883   5.578 -0.9101 -2.2825  3.7491
   89SAPE   C26 8636   3.902   3.013   5.563 -0.0319 -0.3641  0.2926
   89SAPE   H6R 8637   3.947   2.965   5.474 -2.8154  1.0567 -2.0339
   89SAPE   C27 8638   3.982   3.139   5.613 -0.4645  0.3286 -0.1384
   89SAPE   H7R 8639   3.983   3.156   5.723  1.1619 -0.4014 -0.0045
   89SAPE   H7S 8640   3.938   3.228   5.564  0.9458  1.5220  0.6764
   89SAPE   C28 8641   4.127   3.133   5.574  0.2966  0.5713  0.7100
   89SAPE   H8R 8642   4.197   3.110   5.655 -0.2968  0.2304  1.1310
   89SAPE   C29 8643   4.186   3.167   5.461 -0.5836  0.9161  0.6906
   89SAPE   H9R 8644   4.294   3.150   5.451 -0.8634 -0.2442 -0.7446
   89SAPE  C210 8645   4.115   3.232   5.342  0.6132 -0.0629 -0.3137
   89SAPE  H10R 8646   4.171   3.322   5.310  0.5131  0.6887  1.4745
   89SAPE  H10S 8647   4.024   3.285   5.375  0.7632 -0.9596  1.7146
   89SAPE  C211 8648   4.088   3.149   5.229 -0.0153 -0.2743  0.4866
   89SAPE  H11R 8649   4.181   3.113   5.182  0.0948  3.0938 -2.2248
   89SAPE  C212 8650   3.967   3.110   5.184  0.3147  0.1622 -0.1108
   89SAPE  H12R 8651   3.973   3.044   5.095 -3.0101  0.3991 -0.6384
   89SAPE  C213 8652   3.834   3.140   5.238  0.3600 -0.5198  0.0007
   89SAPE  H13R 8653   3.785   3.217   5.174 -1.4087 -2.0979 -0.6224
   89SAPE  H13S 8654   3.842   3.185   5.339  4.3654  2.6139 -1.3936
   89SAPE  C214 8655   3.739   3.030   5.246 -0.4132  0.1841 -0.7082
   89SAPE  H14R 8656   3.734   2.971   5.339 -1.0395  1.9020  0.3822
   89SAPE  C215 8657   3.657   2.989   5.143  0.5143 -0.4539 -0.3591
   89SAPE  H15R 8658   3.587   2.907   5.162  0.0291 -0.3461 -1.5732
   89SAPE  C216 8659   3.660   3.044   5.012  0.2769  0.8058 -0.5582
   89SAPE  H16R 8660   3.698   3.149   5.011 -0.6464  1.1855  0.7137
   89SAPE  H16S 8661   3.558   3.044   4.967 -1.1288  1.4865  2.3693
   89SAPE  C217 8662   3.742   2.962   4.917 -0.2994  0.7256 -0.0692
   89SAPE  H17R 8663   3.691   2.869   4.885  0.1081  0.4093  0.1870
   89SAPE  H17S 8664   3.840   2.927   4.957 -0.4429 -0.0349 -0.3679
   89SAPE  C218 8665   3.779   3.042   4.792  0.5470  0.3098  0.3408
   89SAPE  H18R 8666   3.843   3.129   4.817  1.6539 -0.4503  0.2201
   89SAPE  H18S 8667   3.681   3.085   4.760 -0.0739 -0.8630  0.5813
   89SAPE  C219 8668   3.839   2.950   4.679  0.5479 -0.1514 -0.1283
   89SAPE  H19R 8669   3.915   2.879   4.718  0.6930  0.2303  0.2925
   89SAPE  H19S 8670   3.895   3.012   4.605 -2.2447  1.3224 -1.1335
   89SAPE  C220 8671   3.735   2.861   4.605 -0.3799  0.6879  0.5501
   89SAPE  H20R 8672   3.656   2.916   4.548  0.0630 -0.7922 -1.6350
   89SAPE  H20S 8673   3.679   2.799   4.678  1.6717 -1.2114  0.5765
   89SAPE  H20T 8674   3.786   2.794   4.533  1.3729 -0.9446  3.1770
   89SAPE   C33 8675   3.763   2.639   5.281  0.1015  0.4521  0.2673
   89SAPE   H3X 8676   3.834   2.723   5.297  0.3400  0.0408  1.4935
   89SAPE   H3Y 8677   3.665   2.680   5.249  1.0421  3.4109  0.8094
   89SAPE   C34 8678   3.818   2.551   5.175  0.1788  1.0992 -0.0365
   89SAPE   H4X 8679   3.779   2.447   5.171  0.4278  0.9421  1.1978
   89SAPE   H4Y 8680   3.928   2.534   5.183  0.3957  1.1062 -2.2312
   89SAPE   C35 8681   3.782   2.595   5.025 -0.6935  0.7781  0.2494
   89SAPE   H5X 8682   3.842   2.685   4.999  1.1515 -0.1657  1.0588
   89SAPE   H5Y 8683   3.675   2.624   5.036 -0.7487  0.9596 -0.7314
   89SAPE   C36 8684   3.812   2.483   4.925  0.2219  0.4721  0.1639
   89SAPE   H6X 8685   3.735   2.408   4.957 -0.9183  1.1146 -0.9842
   89SAPE   H6Y 8686   3.912   2.436   4.932  0.2366  0.6682  1.7505
   89SAPE   C37 8687   3.778   2.535   4.783 -0.6214 -0.3449  0.8218
   89SAPE   H7X 8688   3.838   2.624   4.755 -0.2745  0.0119  2.5620
   89SAPE   H7Y 8689   3.677   2.580   4.794 -0.6772 -0.5742  1.2673
   89SAPE   C38 8690   3.802   2.430   4.683 -0.2207 -0.4980  0.7724
   89SAPE   H8X 8691   3.757   2.334   4.716 -1.1772 -0.1764  0.4272
   89SAPE   H8Y 8692   3.913   2.426   4.678 -0.2967 -1.0048 -1.0597
   89SAPE   C39 8693   3.745   2.483   4.545 -0.4204  0.5396  0.3153
   89SAPE   H9X 8694   3.754   2.594   4.533  1.8004  0.2460 -1.4031
   89SAPE   H9Y 8695   3.634   2.480   4.553 -0.2729 -0.6730  2.6851
   89SAPE  C310 8696   3.799   2.402   4.429 -0.2633 -0.5109 -0.2622
   89SAPE  H10X 8697   3.792   2.298   4.469  0.6481 -0.5948 -0.2820
   89SAPE  H10Y 8698   3.901   2.437   4.402 -0.5395  0.5017 -0.0242
   89SAPE  C311 8699   3.715   2.417   4.301  0.3197  0.0563 -0.1265
   89SAPE  H11X 8700   3.780   2.373   4.222  0.6275 -0.8834  0.6290
   89SAPE  H11Y 8701   3.696   2.522   4.270 -0.1862  0.3709  1.2063
   89SAPE  C312 8702   3.577   2.348   4.298  0.5871 -0.3572 -0.1796
   89SAPE  H12X 8703   3.508   2.425   4.338 -0.4330 -0.6461 -1.3165
   89SAPE  H12Y 8704   3.588   2.265   4.371  2.8495 -0.3080 -0.4074
   89SAPE  C313 8705   3.550   2.309   4.154 -0.2470  0.0174  0.2037
   89SAPE  H13X 8706   3.632   2.239   4.128  1.4344  1.4096  1.5072
   89SAPE  H13Y 8707   3.552   2.392   4.080 -1.5935 -1.6305 -1.7862
   89SAPE  C314 8708   3.408   2.253   4.118  0.6372 -0.3843 -0.2452
   89SAPE  H14X 8709   3.396   2.245   4.008  1.8709  1.0199 -0.5170
   89SAPE  H14Y 8710   3.333   2.321   4.164  0.0491 -0.7088 -0.7204
   89SAPE  C315 8711   3.390   2.115   4.181 -0.0898 -0.3080  0.7654
   89SAPE  H15X 8712   3.441   2.118   4.280 -0.0356 -1.3137  0.7741
   89SAPE  H15Y 8713   3.441   2.045   4.112 -1.6687 -1.3721  0.6431
   89SAPE  C316 8714   3.244   2.068   4.203 -0.0646 -0.3651  0.2882
   89SAPE  H16X 8715   3.193   2.058   4.104  0.8161  0.1736 -0.2326
   89SAPE  H16Y 8716   3.180   2.149   4.243  0.2532  0.7532 -1.3760
   89SAPE  C317 8717   3.257   1.948   4.292  0.2578 -0.0769  1.1668
   89SAPE  H17X 8718   3.313   1.981   4.381  0.8840  0.4444  0.5925
   89SAPE  H17Y 8719   3.321   1.871   4.245  1.7267 -0.8962  4.2888
   89SAPE  C318 8720   3.127   1.874   4.333 -0.3557  0.3355  0.2388
   89SAPE  H18X 8721   3.154   1.794   4.406 -0.7154 -0.7094 -0.7318
   89SAPE  H18Y 8722   3.085   1.814   4.249  1.8947 -0.4986 -0.3621
   89SAPE  H18Z 8723   3.054   1.949   4.369 -1.1628 -1.2491  2.0856
   90SAPE     N 8724   4.748   2.898   6.009  0.5662 -0.2846 -0.5504
   90SAPE   HN1 8725   4.663   2.955   5.990  0.1170 -0.6694  0.2685
   90SAPE   HN2 8726   4.711   2.802   6.026 -2.2334  0.7860 -0.0577
   90SAPE   HN3 8727   4.778   2.940   6.099  1.8435 -1.0463 -0.6007
   90SAPE   C12 8728   4.847   2.913   5.901  0.5298  0.0415  0.2912
   90SAPE  H12A 8729   4.893   3.014   5.897  1.3427 -0.2873  0.9289
   90SAPE  H12B 8730   4.791   2.900   5.805  0.1202 -0.2158  0.5601
   90SAPE   C11 8731   4.967   2.823   5.906 -0.1406 -0.1818  0.9462
   90SAPE  H11A 8732   5.036   2.844   5.821  0.3201 -0.4523  1.2501
   90SAPE  H11B 8733   4.959   2.713   5.895  2.8239 -0.2853 -1.7245
   90SAPE     P 8734   5.161   2.967   6.025 -0.0202 -0.0501  0.2511
   90SAPE   O13 8735   5.129   3.088   5.951 -0.3212  0.1402  0.4386
   90SAPE   O14 8736   5.201   2.993   6.167  0.4262 -0.0990  0.4199
   90SAPE   O12 8737   5.040   2.856   6.024  0.7729 -0.3248  0.6537
   90SAPE   O11 8738   5.274   2.893   5.945  0.4228 -0.0769 -0.2608
   90SAPE    C1 8739   5.305   2.919   5.811  0.3632 -0.1213 -0.8078
   90SAPE    HA 8740   5.213   2.941   5.753 -1.6510 -1.4832  1.6674
   90SAPE    HB 8741   5.370   3.007   5.792  1.7492 -1.3379 -2.0075
   90SAPE    C2 8742   5.368   2.790   5.746 -0.4481  0.1303  0.6222
   90SAPE    HS 8743   5.476   2.785   5.772  0.0652  0.4982 -1.3006
   90SAPE   O21 8744   5.359   2.799   5.602 -0.3611 -0.4389 -0.0581
   90SAPE   C21 8745   5.430   2.890   5.545  0.7656 -0.9097 -0.3961
   90SAPE   O22 8746   5.513   2.960   5.598 -0.2110  0.0446  0.1121
   90SAPE   C22 8747   5.393   2.884   5.395  0.5117  0.1185  0.5061
   90SAPE   H2R 8748   5.470   2.945   5.343  1.4515 -3.2346 -2.4157
   90SAPE   H2S 8749   5.396   2.775   5.373  1.5504  0.2565 -0.0929
   90SAPE    C3 8750   5.299   2.651   5.785  0.6882 -0.4727  0.8039
   90SAPE    HX 8751   5.291   2.663   5.896  2.3752  0.5882  0.8606
   90SAPE    HY 8752   5.365   2.567   5.755  0.0676 -0.5771 -0.3069
   90SAPE   O31 8753   5.163   2.640   5.731 -0.4105  0.3254 -0.7414
   90SAPE   C31 8754   5.147   2.557   5.632 -0.5643 -0.5896  0.0589
   90SAPE   O32 8755   5.232   2.492   5.581 -0.4346 -0.4905 -0.2651
   90SAPE   C32 8756   4.998   2.545   5.598  1.0041 -0.0923 -0.0667
   90SAPE   H2X 8757   4.975   2.637   5.542  1.7179 -0.3223 -0.7570
   90SAPE   H2Y 8758   4.936   2.549   5.690  0.5809  1.1902 -0.3987
   90SAPE   C23 8759   5.259   2.933   5.363  0.6054 -0.0378 -0.8603
   90SAPE   H3R 8760   5.237   3.038   5.391  0.4488  0.6405 -3.3406
   90SAPE   H3S 8761   5.188   2.874   5.425 -1.0583  3.0399  0.3783
   90SAPE   C24 8762   5.213   2.905   5.212 -0.7403  0.0495  0.0583
   90SAPE   H4R 8763   5.282   2.959   5.143 -0.6378  1.1423  1.0033
   90SAPE   H4S 8764   5.113   2.952   5.209 -1.1811 -0.4344  3.5277
   90SAPE   C25 8765   5.209   2.760   5.187  0.9904 -0.3518  0.3513
   90SAPE   H5R 8766   5.171   2.697   5.269  0.2299  0.8287  0.9265
   90SAPE   C26 8767   5.231   2.696   5.070  0.4537  0.0551 -0.2434
   90SAPE   H6R 8768   5.226   2.587   5.077  1.0914 -0.0096 -0.7189
   90SAPE   C27 8769   5.287   2.755   4.943 -0.0738 -0.1296 -0.0117
   90SAPE   H7R 8770   5.368   2.829   4.961 -1.2230  0.9031  1.1498
   90SAPE   H7S 8771   5.206   2.823   4.909 -0.3406 -1.6171 -2.6041
   90SAPE   C28 8772   5.322   2.649   4.839  0.3767 -0.8676 -0.3493
   90SAPE   H8R 8773   5.375   2.560   4.875  0.1255 -0.7423  0.3483
   90SAPE   C29 8774   5.336   2.680   4.708  0.9333  0.4780 -0.5022
   90SAPE   H9R 8775   5.354   2.594   4.642  1.1747 -1.2571  1.7353
   90SAPE  C210 8776   5.284   2.805   4.637  0.3201  0.3982 -0.5625
   90SAPE  H10R 8777   5.365   2.873   4.604 -0.8301  1.0862 -2.1020
   90SAPE  H10S 8778   5.223   2.863   4.710  1.0499 -0.7814  1.0452
   90SAPE  C211 8779   5.201   2.769   4.517  0.6896  0.1144 -0.1294
   90SAPE  H11R 8780   5.102   2.739   4.555  0.9702  0.5591  0.9617
   90SAPE  C212 8781   5.238   2.763   4.387 -0.0289 -0.0480 -0.4124
   90SAPE  H12R 8782   5.161   2.738   4.313 -1.8189  1.5593  0.8209
   90SAPE  C213 8783   5.376   2.792   4.337 -0.0719 -0.1122 -0.4534
   90SAPE  H13R 8784   5.404   2.898   4.359  1.4305 -0.4156 -0.7816
   90SAPE  H13S 8785   5.378   2.781   4.227  0.0748  1.0592 -0.5828
   90SAPE  C214 8786   5.491   2.719   4.390 -0.1299  0.0410  0.2624
   90SAPE  H14R 8787   5.541   2.782   4.465  0.5477 -1.0261  0.7285
   90SAPE  C215 8788   5.539   2.593   4.373 -1.4842  0.2392  0.1844
   90SAPE  H15R 8789   5.627   2.561   4.432  0.4850  0.1546 -2.5494
   90SAPE  C216 8790   5.501   2.494   4.276  0.0078 -0.2109 -0.5296
   90SAPE  H16R 8791   5.587   2.502   4.206  1.4916 -1.2994  1.0788
   90SAPE  H16S 8792   5.420   2.535   4.212 -0.2645 -0.9334 -0.6553
   90SAPE  C217 8793   5.490   2.352   4.324  0.2679 -0.4085 -0.3649
   90SAPE  H17R 8794   5.422   2.345   4.411 -0.2476 -2.0438 -0.8510
   90SAPE  H17S 8795   5.589   2.321   4.362  1.6459  0.9253 -2.5924
   90SAPE  C218 8796   5.441   2.256   4.208 -0.4669 -0.4794 -0.1268
   90SAPE  H18R 8797   5.488   2.275   4.109  0.1637 -1.5617 -0.0594
   90SAPE  H18S 8798   5.334   2.283   4.198  0.0093  1.9169  0.6005
   90SAPE  C219 8799   5.482   2.108   4.241  1.1927  0.9451  0.3691
   90SAPE  H19R 8800   5.456   2.078   4.345 -2.0075 -1.6195 -0.9828
   90SAPE  H19S 8801   5.590   2.089   4.229  0.6641 -2.1338 -0.2649
   90SAPE  C220 8802   5.423   2.002   4.146  0.0516 -0.0785  0.1836
   90SAPE  H20R 8803   5.444   2.023   4.039 -2.1560 -0.2607 -0.3369
   90SAPE  H20S 8804   5.313   2.011   4.160  0.0700  1.5285 -0.4880
   90SAPE  H20T 8805   5.456   1.902   4.181  0.8630  0.7541  1.9088
   90SAPE   C33 8806   4.952   2.418   5.525 -0.3973 -0.6144  0.3907
   90SAPE   H3X 8807   4.841   2.421   5.531 -0.6745 -2.7398 -1.9053
   90SAPE   H3Y 8808   4.992   2.334   5.587 -0.6458 -0.1243  1.2309
   90SAPE   C34 8809   4.994   2.400   5.375 -0.5305 -0.2582 -0.6569
   90SAPE   H4X 8810   4.967   2.298   5.341  1.4607 -0.7333 -0.9234
   90SAPE   H4Y 8811   5.104   2.417   5.369 -0.4937  0.3032  1.1957
   90SAPE   C35 8812   4.930   2.496   5.273 -0.2109  0.2053 -0.1271
   90SAPE   H5X 8813   4.984   2.592   5.275 -0.7225  0.5173 -1.0777
   90SAPE   H5Y 8814   4.831   2.533   5.306  0.9674  0.7514  3.1854
   90SAPE   C36 8815   4.934   2.462   5.120 -0.6037  0.1716  0.0602
   90SAPE   H6X 8816   4.874   2.368   5.116 -1.0257  0.4545 -0.3455
   90SAPE   H6Y 8817   5.038   2.439   5.090 -0.2817 -0.0186  1.2749
   90SAPE   C37 8818   4.864   2.575   5.051  0.9155  0.4226  0.4404
   90SAPE   H7X 8819   4.908   2.674   5.078  0.6336  1.0046 -1.1458
   90SAPE   H7Y 8820   4.758   2.574   5.087  1.2313  2.2299  1.5763
   90SAPE   C38 8821   4.854   2.552   4.893  0.3443 -0.4049 -0.0080
   90SAPE   H8X 8822   4.775   2.474   4.882 -0.3613  0.1200  1.1239
   90SAPE   H8Y 8823   4.946   2.506   4.850  0.7466  2.6610 -2.8310
   90SAPE   C39 8824   4.805   2.679   4.819 -0.3274 -0.6028  0.2345
   90SAPE   H9X 8825   4.879   2.762   4.826 -1.1011  0.3249 -1.7175
   90SAPE   H9Y 8826   4.711   2.714   4.865 -0.0403  1.3750 -0.5691
   90SAPE  C310 8827   4.783   2.660   4.671 -0.1032  0.3855  0.3331
   90SAPE  H10X 8828   4.738   2.561   4.653 -0.3997  0.5062  0.3932
   90SAPE  H10Y 8829   4.875   2.667   4.609 -0.1595  2.8320  0.3936
   90SAPE  C311 8830   4.678   2.762   4.611  0.7055  0.3520  0.0764
   90SAPE  H11X 8831   4.728   2.861   4.612  1.5121  0.0015 -1.8980
   90SAPE  H11Y 8832   4.583   2.775   4.668 -2.0273  0.6676 -4.0707
   90SAPE  C312 8833   4.661   2.724   4.460 -0.1194 -1.4994 -0.0695
   90SAPE  H12X 8834   4.590   2.639   4.452 -1.1773 -0.4813 -2.3955
   90SAPE  H12Y 8835   4.747   2.693   4.397  0.4141  3.2476 -2.1373
   90SAPE  C313 8836   4.609   2.846   4.375 -0.0716 -0.4361 -0.1523
   90SAPE  H13X 8837   4.513   2.893   4.408  0.9695  0.9915  0.9980
   90SAPE  H13Y 8838   4.585   2.797   4.279 -1.6912  1.8073 -1.0037
   90SAPE  C314 8839   4.720   2.948   4.347  0.3736  0.3038  0.2644
   90SAPE  H14X 8840   4.790   2.902   4.273  0.0137  0.0761  0.0628
   90SAPE  H14Y 8841   4.778   2.971   4.439 -0.8795 -1.1419  1.4669
   90SAPE  C315 8842   4.668   3.078   4.272 -0.8946  0.2968  0.0143
   90SAPE  H15X 8843   4.586   3.120   4.333 -0.3339  0.0663  0.9432
   90SAPE  H15Y 8844   4.618   3.039   4.180  0.2944 -2.0759  0.2810
   90SAPE  C316 8845   4.775   3.174   4.248 -0.0113 -0.3389 -0.5717
   90SAPE  H16X 8846   4.866   3.116   4.220  0.4045  0.6783 -1.3685
   90SAPE  H16Y 8847   4.813   3.220   4.342  2.0329  0.9407 -1.9690
   90SAPE  C317 8848   4.732   3.289   4.149 -1.1827  0.2163 -0.0478
   90SAPE  H17X 8849   4.639   3.337   4.187 -1.0033  1.0543 -0.6602
   90SAPE  H17Y 8850   4.711   3.240   4.051  0.3359 -0.6448  0.0318
   90SAPE  C318 8851   4.846   3.397   4.142  0.4605  0.0097 -0.0725
   90SAPE  H18X 8852   4.873   3.429   4.244  1.7577  0.3665 -0.5106
   90SAPE  H18Y 8853   4.805   3.481   4.083  1.3932  2.0113  1.9949
   90SAPE  H18Z 8854   4.936   3.358   4.089 -0.3200 -1.5310 -0.3291
   91SAPE     N 8855   1.893   3.870   6.367  0.3380 -0.3114 -0.7385
   91SAPE   HN1 8856   1.854   3.964   6.349  0.3731  0.0243  0.8039
   91SAPE   HN2 8857   1.982   3.891   6.316 -0.5585  3.5219 -0.9741
   91SAPE   HN3 8858   1.838   3.798   6.315  0.3358 -0.5154 -0.4553
   91SAPE   C12 8859   1.898   3.841   6.517  0.3694 -0.0600 -0.2123
   91SAPE  H12A 8860   1.794   3.821   6.550  1.0884 -1.4419  1.3442
   91SAPE  H12B 8861   1.939   3.925   6.578  0.0004 -0.6524  0.8775
   91SAPE   C11 8862   1.976   3.708   6.551 -0.6251 -0.3527  0.0410
   91SAPE  H11A 8863   1.968   3.707   6.662 -4.2609 -0.6086 -0.0821
   91SAPE  H11B 8864   2.081   3.721   6.518 -0.3474 -1.4657  0.4549
   91SAPE     P 8865   1.979   3.457   6.433  0.2793 -0.2736  0.0203
   91SAPE   O13 8866   2.124   3.458   6.429  0.3103  0.1893 -0.2844
   91SAPE   O14 8867   1.910   3.347   6.509  0.0007  0.3261 -0.2021
   91SAPE   O12 8868   1.922   3.594   6.485  0.3058 -0.2340 -1.0213
   91SAPE   O11 8869   1.919   3.467   6.287 -0.1174  0.0360  0.0013
   91SAPE    C1 8870   1.972   3.377   6.189  0.6212  1.0473  0.4253
   91SAPE    HA 8871   2.031   3.290   6.225  0.8795  0.8217 -0.5097
   91SAPE    HB 8872   1.887   3.335   6.130 -1.6455  4.7197  0.7462
   91SAPE    C2 8873   2.064   3.453   6.086 -0.3461 -0.5219 -0.6831
   91SAPE    HS 8874   2.156   3.478   6.143  0.6487 -1.6313 -1.7353
   91SAPE   O21 8875   1.999   3.567   6.034  0.3030  0.3692  0.1718
   91SAPE   C21 8876   2.065   3.662   5.982  0.3380 -0.1812  0.1431
   91SAPE   O22 8877   2.184   3.662   5.961 -0.0428 -0.1516 -0.5557
   91SAPE   C22 8878   1.967   3.771   5.944 -0.2278  0.2996 -0.4253
   91SAPE   H2R 8879   1.933   3.823   6.036  1.1902 -1.0150  0.8974
   91SAPE   H2S 8880   2.020   3.849   5.885 -2.7320  0.9258 -2.0299
   91SAPE    C3 8881   2.102   3.359   5.968 -0.3484  0.0898 -0.3002
   91SAPE    HX 8882   2.165   3.285   6.021 -0.7132  0.7290  1.0641
   91SAPE    HY 8883   2.169   3.412   5.897  1.0836 -0.7653  0.3689
   91SAPE   O31 8884   1.994   3.288   5.904 -0.1828  0.2258 -0.0012
   91SAPE   C31 8885   2.027   3.209   5.802  0.0167 -0.2005 -0.1841
   91SAPE   O32 8886   2.134   3.162   5.778  0.1972  0.1158 -0.8007
   91SAPE   C32 8887   1.908   3.186   5.716  0.8318  0.0837 -0.3202
   91SAPE   H2X 8888   1.835   3.269   5.706  0.1378 -0.3072  1.1329
   91SAPE   H2Y 8889   1.854   3.107   5.773  0.3574  2.0876  2.2043
   91SAPE   C23 8890   1.852   3.725   5.854 -0.7439  0.5155 -0.5766
   91SAPE   H3R 8891   1.781   3.811   5.850  0.8354  1.8721 -0.9782
   91SAPE   H3S 8892   1.788   3.651   5.905 -1.8472  1.4046 -0.6365
   91SAPE   C24 8893   1.901   3.674   5.722  0.3821  0.1694  0.1748
   91SAPE   H4R 8894   1.802   3.661   5.672  0.0368 -1.5129  1.2173
   91SAPE   H4S 8895   1.947   3.576   5.744  0.7296  0.4754  0.8436
   91SAPE   C25 8896   1.980   3.768   5.632 -0.0837 -0.6538  0.1594
   91SAPE   H5R 8897   1.934   3.866   5.611  2.2384  0.5379  0.2979
   91SAPE   C26 8898   2.095   3.741   5.562  0.5238 -0.7878 -0.2932
   91SAPE   H6R 8899   2.148   3.820   5.507 -0.4903 -1.9791 -3.2003
   91SAPE   C27 8900   2.171   3.609   5.578  0.7036  0.3197 -0.3210
   91SAPE   H7R 8901   2.175   3.565   5.477 -1.0649  0.1075 -0.3337
   91SAPE   H7S 8902   2.114   3.536   5.641 -0.8552  0.7190 -1.2097
   91SAPE   C28 8903   2.307   3.624   5.629  0.2546 -0.2970 -0.5576
   91SAPE   H8R 8904   2.327   3.728   5.656 -2.9895 -0.0162  1.3707
   91SAPE   C29 8905   2.405   3.536   5.642 -0.0038 -0.5622 -0.0376
   91SAPE   H9R 8906   2.499   3.566   5.690  0.6215 -0.1740 -1.4727
   91SAPE  C210 8907   2.391   3.395   5.600  0.2971 -0.8233 -0.1991
   91SAPE  H10R 8908   2.320   3.388   5.515  1.4781  0.2814 -1.3377
   91SAPE  H10S 8909   2.351   3.335   5.684 -1.0437 -1.7178 -1.4216
   91SAPE  C211 8910   2.521   3.331   5.559 -0.0825  0.2126 -0.4776
   91SAPE  H11R 8911   2.565   3.272   5.641 -1.6682  0.3205  0.4982
   91SAPE  C212 8912   2.571   3.317   5.433 -0.2137 -0.3942 -0.2052
   91SAPE  H12R 8913   2.661   3.256   5.415 -1.0058 -1.1354 -1.8345
   91SAPE  C213 8914   2.495   3.375   5.304  0.5895 -0.4976  0.0519
   91SAPE  H13R 8915   2.575   3.402   5.232  0.5269 -2.3820 -0.7743
   91SAPE  H13S 8916   2.431   3.465   5.322  2.5497  0.5252  2.5023
   91SAPE  C214 8917   2.414   3.260   5.251  0.2062  0.7784  0.2706
   91SAPE  H14R 8918   2.336   3.229   5.323 -0.5944  2.8362  0.3322
   91SAPE  C215 8919   2.421   3.199   5.130 -0.2760  0.5341  0.5163
   91SAPE  H15R 8920   2.348   3.121   5.104  1.1029 -0.4447 -0.5675
   91SAPE  C216 8921   2.513   3.237   5.014 -0.2956  0.5103 -0.1321
   91SAPE  H16R 8922   2.566   3.149   4.971 -0.5674  0.8157 -1.1298
   91SAPE  H16S 8923   2.591   3.311   5.043  0.5462 -0.3644 -0.1391
   91SAPE  C217 8924   2.429   3.296   4.897  0.0851  0.0435  0.2292
   91SAPE  H17R 8925   2.398   3.399   4.924  0.3718  0.0780  0.4290
   91SAPE  H17S 8926   2.335   3.237   4.891 -0.5813  0.4074  4.2115
   91SAPE  C218 8927   2.512   3.307   4.764 -0.0945  0.4283 -0.5658
   91SAPE  H18R 8928   2.614   3.340   4.790  0.0112 -0.8000  0.6937
   91SAPE  H18S 8929   2.489   3.397   4.703 -1.3730  1.5720  1.4895
   91SAPE  C219 8930   2.523   3.183   4.678  0.4413  0.1507  0.7065
   91SAPE  H19R 8931   2.431   3.143   4.632  1.1495 -0.5582 -0.1284
   91SAPE  H19S 8932   2.554   3.100   4.744  0.4211  1.4383  2.4179
   91SAPE  C220 8933   2.617   3.210   4.562  0.5441  0.2148  0.5255
   91SAPE  H20R 8934   2.614   3.131   4.483  1.9357 -1.2580  1.8848
   91SAPE  H20S 8935   2.721   3.205   4.600 -0.4115 -2.3518  3.1661
   91SAPE  H20T 8936   2.587   3.308   4.518  0.7791  0.6657  1.3575
   91SAPE   C33 8937   1.945   3.159   5.579  0.3202 -0.5058  0.0771
   91SAPE   H3X 8938   1.864   3.096   5.537  0.0418 -0.4674  0.5519
   91SAPE   H3Y 8939   2.040   3.106   5.557  0.6306  0.9018 -2.3992
   91SAPE   C34 8940   1.967   3.288   5.501 -0.4890  0.3923  0.7942
   91SAPE   H4X 8941   2.062   3.338   5.531  1.1209 -0.9879 -1.6582
   91SAPE   H4Y 8942   1.880   3.354   5.518 -2.1788 -1.1323 -1.3624
   91SAPE   C35 8943   1.978   3.259   5.344 -0.2031  0.1359  0.5505
   91SAPE   H5X 8944   1.872   3.252   5.311 -0.1112  0.6154  0.1540
   91SAPE   H5Y 8945   2.015   3.154   5.338 -1.6621 -0.4279  0.8426
   91SAPE   C36 8946   2.057   3.361   5.261 -1.0267 -0.6694  0.2471
   91SAPE   H6X 8947   2.168   3.347   5.264 -0.5212  1.4603 -3.0495
   91SAPE   H6Y 8948   2.026   3.463   5.294 -0.3197 -0.5937  0.7261
   91SAPE   C37 8949   2.024   3.358   5.116 -0.0652 -0.3571  1.1712
   91SAPE   H7X 8950   1.914   3.369   5.106  0.0685  1.1131  1.1871
   91SAPE   H7Y 8951   2.041   3.255   5.077  2.5537 -0.5749  2.6638
   91SAPE   C38 8952   2.097   3.475   5.052 -0.1366 -0.7254  0.6246
   91SAPE   H8X 8953   2.206   3.457   5.065  0.3761  2.0083  0.9202
   91SAPE   H8Y 8954   2.081   3.572   5.105 -1.6504  1.4149 -3.3317
   91SAPE   C39 8955   2.052   3.509   4.909 -0.1524 -0.2449  0.2675
   91SAPE   H9X 8956   2.081   3.613   4.884  1.1189 -0.9327 -1.3520
   91SAPE   H9Y 8957   1.942   3.501   4.906 -0.4104  2.6086 -0.1461
   91SAPE  C310 8958   2.099   3.415   4.798 -0.1495  0.2555 -0.7673
   91SAPE  H10X 8959   2.090   3.308   4.825  2.6126 -0.0569 -0.7920
   91SAPE  H10Y 8960   2.207   3.422   4.771 -0.2644 -0.5977 -1.4943
   91SAPE  C311 8961   2.029   3.443   4.661 -0.0547 -0.6553 -0.0257
   91SAPE  H11X 8962   2.052   3.546   4.627  1.3175 -0.7534  0.5369
   91SAPE  H11Y 8963   1.920   3.422   4.664 -0.1924  0.1607  1.3576
   91SAPE  C312 8964   2.099   3.353   4.552  0.7856  0.3602 -0.1290
   91SAPE  H12X 8965   2.102   3.247   4.587  0.0187  0.2403 -0.4081
   91SAPE  H12Y 8966   2.201   3.394   4.542 -1.4857  7.2357  0.0881
   91SAPE  C313 8967   2.034   3.362   4.413 -0.0381 -0.1918  0.7321
   91SAPE  H13X 8968   2.016   3.463   4.370 -3.7427 -0.8403  0.4185
   91SAPE  H13Y 8969   1.932   3.318   4.415  0.2086 -0.7629  0.9080
   91SAPE  C314 8970   2.126   3.297   4.306  0.3942  0.3728 -0.3821
   91SAPE  H14X 8971   2.122   3.192   4.341  2.5521  1.6245  4.4307
   91SAPE  H14Y 8972   2.231   3.335   4.311  0.7007 -0.5856  1.3897
   91SAPE  C315 8973   2.085   3.321   4.163 -0.3541  1.0963  0.4946
   91SAPE  H15X 8974   2.079   3.432   4.152 -0.2402  1.0767  0.2196
   91SAPE  H15Y 8975   1.978   3.293   4.156 -0.5005  0.5532  3.5696
   91SAPE  C316 8976   2.175   3.256   4.060  0.6827 -0.3265  0.1708
   91SAPE  H16X 8977   2.166   3.146   4.068 -0.9567 -0.4417 -2.3117
   91SAPE  H16Y 8978   2.282   3.282   4.076  0.5867  0.1792  0.0056
   91SAPE  C317 8979   2.135   3.304   3.919  0.4592 -0.0222 -0.8441
   91SAPE  H17X 8980   2.133   3.415   3.908 -0.0978 -0.0228 -0.7988
   91SAPE  H17Y 8981   2.027   3.283   3.901  0.1163  1.6346 -0.9726
   91SAPE  C318 8982   2.219   3.232   3.812 -0.0643 -0.2426  0.2367
   91SAPE  H18X 8983   2.183   3.247   3.708 -2.1719  1.1049  1.0693
   91SAPE  H18Y 8984   2.216   3.125   3.843  0.4611 -0.4240 -0.3268
   91SAPE  H18Z 8985   2.326   3.260   3.817  0.2079 -1.2515  0.2207
   92SAPE     N 8986   3.296   6.061   6.006  0.2559  0.0051 -0.0629
   92SAPE   HN1 8987   3.327   6.143   5.951  2.9488 -0.3856  0.7244
   92SAPE   HN2 8988   3.205   6.080   6.052 -0.1136 -1.0962 -0.3210
   92SAPE   HN3 8989   3.366   6.034   6.078  0.6191 -0.7850 -0.7101
   92SAPE   C12 8990   3.280   5.941   5.922  0.4182  0.5086 -0.0838
   92SAPE  H12A 8991   3.355   5.932   5.840  1.4633  2.4342  0.5943
   92SAPE  H12B 8992   3.181   5.944   5.874  0.2481 -2.2995 -0.0436
   92SAPE   C11 8993   3.267   5.808   6.004 -0.3931  0.0049  0.9100
   92SAPE  H11A 8994   3.358   5.790   6.065  0.1752 -0.6025 -0.0855
   92SAPE  H11B 8995   3.263   5.725   5.930 -0.8820 -0.4194  1.4001
   92SAPE     P 8996   3.090   5.660   6.125 -0.0419  0.0252  0.3042
   92SAPE   O13 8997   3.196   5.564   6.160 -0.0615 -0.2615  0.7455
   92SAPE   O14 8998   2.978   5.677   6.220  0.6062 -0.2628  0.1420
   92SAPE   O12 8999   3.158   5.798   6.089  0.0562 -0.2336  0.0885
   92SAPE   O11 9000   3.029   5.623   5.991 -0.2887 -0.5090  0.3572
   92SAPE    C1 9001   3.068   5.514   5.900 -0.1908  0.1458  0.7691
   92SAPE    HA 9002   3.057   5.553   5.797 -2.6095 -1.9256  0.1345
   92SAPE    HB 9003   3.173   5.481   5.913  0.0692 -0.2590 -1.7982
   92SAPE    C2 9004   2.973   5.392   5.911  0.2117 -0.7838  0.0352
   92SAPE    HS 9005   3.016   5.316   5.979 -3.0000 -0.3558  2.8059
   92SAPE   O21 9006   2.938   5.341   5.777 -0.1004 -0.5096 -0.0404
   92SAPE   C21 9007   3.044   5.270   5.732 -0.1144 -0.1715  0.8083
   92SAPE   O22 9008   3.143   5.247   5.800  0.0465 -0.0730  0.4478
   92SAPE   C22 9009   3.042   5.244   5.584  0.0877  0.1023 -0.3051
   92SAPE   H2R 9010   2.978   5.156   5.563 -0.4587  0.5402 -0.4925
   92SAPE   H2S 9011   2.992   5.325   5.526 -2.7230 -1.0929  0.3013
   92SAPE    C3 9012   2.840   5.430   5.982 -0.9051  0.5876  0.0741
   92SAPE    HX 9013   2.871   5.466   6.082  0.5634 -4.4337  1.7474
   92SAPE    HY 9014   2.791   5.334   6.009  2.8897 -1.5054  0.1797
   92SAPE   O31 9015   2.752   5.527   5.918  0.3698 -0.1680 -0.1926
   92SAPE   C31 9016   2.651   5.478   5.853 -0.1131  0.1081  0.1601
   92SAPE   O32 9017   2.627   5.360   5.838 -0.2408  0.9501  0.3995
   92SAPE   C32 9018   2.586   5.595   5.775  0.0843 -0.2098 -0.7146
   92SAPE   H2X 9019   2.581   5.680   5.847  1.0241 -1.4367  0.8784
   92SAPE   H2Y 9020   2.481   5.578   5.742  0.2358  0.3815 -1.5162
   92SAPE   C23 9021   3.189   5.221   5.534  0.5531  0.2684 -0.2199
   92SAPE   H3R 9022   3.237   5.148   5.602  0.5669  0.9000  0.4582
   92SAPE   H3S 9023   3.237   5.320   5.554  1.1299 -0.5418  2.9027
   92SAPE   C24 9024   3.200   5.181   5.385  0.6105  0.7201  0.8063
   92SAPE   H4R 9025   3.139   5.252   5.325 -1.3233 -1.3772  0.1807
   92SAPE   H4S 9026   3.152   5.083   5.365 -1.1938  1.0132  3.2041
   92SAPE   C25 9027   3.344   5.176   5.341 -0.5333  0.1300 -0.0414
   92SAPE   H5R 9028   3.399   5.088   5.378 -2.0016 -1.0963 -0.6721
   92SAPE   C26 9029   3.404   5.254   5.253  0.3236 -0.2026  0.3268
   92SAPE   H6R 9030   3.510   5.241   5.229  0.9901  2.2847  1.4757
   92SAPE   C27 9031   3.340   5.370   5.184 -0.2261  0.1255 -0.8746
   92SAPE   H7R 9032   3.303   5.447   5.255 -0.6261 -0.6127 -0.2562
   92SAPE   H7S 9033   3.248   5.333   5.135 -1.7496  2.7904 -0.1952
   92SAPE   C28 9034   3.430   5.442   5.080  0.5104 -0.1496  0.0382
   92SAPE   H8R 9035   3.447   5.399   4.980  0.9682 -0.9019  0.4318
   92SAPE   C29 9036   3.498   5.556   5.098  0.3796 -0.2961 -0.4062
   92SAPE   H9R 9037   3.557   5.598   5.015 -1.5673  1.9164 -0.7788
   92SAPE  C210 9038   3.514   5.629   5.229  0.7752 -0.4516 -0.1991
   92SAPE  H10R 9039   3.419   5.633   5.286  1.4623  0.9966  0.9175
   92SAPE  H10S 9040   3.536   5.735   5.203  0.2303  0.3885  2.5054
   92SAPE  C211 9041   3.626   5.563   5.307 -0.0419  0.5511  0.3690
   92SAPE  H11R 9042   3.602   5.455   5.308  0.1637  0.4487 -1.6088
   92SAPE  C212 9043   3.727   5.616   5.365 -0.9585  0.6101 -0.5906
   92SAPE  H12R 9044   3.814   5.554   5.390  1.1369  3.0629 -1.3126
   92SAPE  C213 9045   3.758   5.766   5.355 -0.8492  0.4240  0.1906
   92SAPE  H13R 9046   3.678   5.825   5.405  0.6130  1.6141  1.2028
   92SAPE  H13S 9047   3.751   5.813   5.255 -2.0055  3.2103  1.4868
   92SAPE  C214 9048   3.889   5.808   5.427 -0.2619 -0.9802 -0.0157
   92SAPE  H14R 9049   3.907   5.765   5.527  0.3524  1.4431  0.9897
   92SAPE  C215 9050   3.992   5.883   5.378 -0.1290  0.4425  0.0321
   92SAPE  H15R 9051   4.074   5.892   5.450  0.8744 -1.0848 -0.8850
   92SAPE  C216 9052   4.009   5.957   5.248 -0.8189  0.8271 -0.3171
   92SAPE  H16R 9053   3.914   5.944   5.192 -0.7100  2.0071 -0.8139
   92SAPE  H16S 9054   4.095   5.916   5.191  0.3567  0.5119  1.5938
   92SAPE  C217 9055   4.021   6.102   5.274 -0.0032  0.4176 -0.2389
   92SAPE  H17R 9056   4.113   6.126   5.331 -1.0174 -1.0542  2.1739
   92SAPE  H17S 9057   3.937   6.138   5.337  0.2016 -0.6934  0.7195
   92SAPE  C218 9058   4.025   6.180   5.141 -0.5536  0.4959  0.0342
   92SAPE  H18R 9059   4.051   6.285   5.166  1.3855 -0.1171  0.7935
   92SAPE  H18S 9060   3.928   6.185   5.086 -0.1305  0.2219 -0.7509
   92SAPE  C219 9061   4.134   6.132   5.040  0.2370 -0.1112  0.2559
   92SAPE  H19R 9062   4.106   6.036   4.991  1.2074  0.4155 -1.4477
   92SAPE  H19S 9063   4.229   6.123   5.097  0.9922  3.7943 -0.0970
   92SAPE  C220 9064   4.162   6.218   4.918  0.1922  0.0436  0.2910
   92SAPE  H20R 9065   4.074   6.222   4.850 -1.6598  0.3385  2.5431
   92SAPE  H20S 9066   4.247   6.176   4.860  1.5283  1.9520  0.7549
   92SAPE  H20T 9067   4.189   6.320   4.955 -2.6696  0.5154  1.3726
   92SAPE   C33 9068   2.678   5.625   5.654  0.4670 -0.0169 -0.7779
   92SAPE   H3X 9069   2.783   5.590   5.666  1.0590  1.7037 -0.5604
   92SAPE   H3Y 9070   2.675   5.736   5.654 -0.7859 -0.0286 -1.7097
   92SAPE   C34 9071   2.633   5.561   5.517 -0.3434  0.6564  0.1589
   92SAPE   H4X 9072   2.644   5.633   5.433 -0.3357  0.6447  0.1497
   92SAPE   H4Y 9073   2.530   5.521   5.525  0.0498 -0.6035 -0.6285
   92SAPE   C35 9074   2.724   5.440   5.482  0.1637 -1.3164 -0.4917
   92SAPE   H5X 9075   2.716   5.368   5.567  3.9326 -0.5715  0.6520
   92SAPE   H5Y 9076   2.829   5.473   5.472 -0.0070 -0.5577  0.1581
   92SAPE   C36 9077   2.695   5.358   5.352 -0.3927  0.3228  0.6045
   92SAPE   H6X 9078   2.671   5.435   5.276 -0.7214  3.3849  3.5610
   92SAPE   H6Y 9079   2.612   5.288   5.374 -1.4775  1.0416 -1.0757
   92SAPE   C37 9080   2.821   5.286   5.287  0.3400  0.1645  0.0052
   92SAPE   H7X 9081   2.839   5.208   5.364 -3.3284 -0.3897  0.5210
   92SAPE   H7Y 9082   2.908   5.352   5.267 -0.4779  1.5969  0.9337
   92SAPE   C38 9083   2.778   5.193   5.169  0.3543 -0.6231 -0.2498
   92SAPE   H8X 9084   2.689   5.129   5.190  0.1364 -0.6768 -1.2768
   92SAPE   H8Y 9085   2.860   5.123   5.143  0.2187 -1.6087  1.7515
   92SAPE   C39 9086   2.753   5.277   5.042  0.0173  0.3666 -0.1931
   92SAPE   H9X 9087   2.842   5.343   5.038 -0.5902  1.4051  1.8654
   92SAPE   H9Y 9088   2.665   5.343   5.058 -1.3232 -1.3362 -0.1857
   92SAPE  C310 9089   2.749   5.178   4.918 -0.2064 -0.1097 -0.1417
   92SAPE  H10X 9090   2.665   5.106   4.927  0.7229 -0.9417  3.9494
   92SAPE  H10Y 9091   2.849   5.131   4.929  1.6677  2.7332 -3.1595
   92SAPE  C311 9092   2.748   5.245   4.784 -0.2810  0.1212  0.7580
   92SAPE  H11X 9093   2.832   5.317   4.782 -0.2082  0.0300 -0.0951
   92SAPE  H11Y 9094   2.651   5.296   4.767 -0.8828 -1.6272 -1.8035
   92SAPE  C312 9095   2.768   5.156   4.665  0.1783 -0.3725  0.0512
   92SAPE  H12X 9096   2.696   5.071   4.654  0.0360 -0.1494 -0.7778
   92SAPE  H12Y 9097   2.875   5.126   4.677  0.2637 -0.2583 -0.4162
   92SAPE  C313 9098   2.747   5.239   4.540 -0.3418  0.5722 -0.0630
   92SAPE  H13X 9099   2.774   5.346   4.555  0.1655  1.1069 -3.7995
   92SAPE  H13Y 9100   2.640   5.237   4.512 -1.0347 -0.1804  2.3736
   92SAPE  C314 9101   2.833   5.190   4.423  0.1305  0.6205  0.6592
   92SAPE  H14X 9102   2.842   5.080   4.437 -0.5263  0.6284  1.1871
   92SAPE  H14Y 9103   2.936   5.225   4.447  1.2948 -0.1212 -2.7038
   92SAPE  C315 9104   2.809   5.230   4.280  0.3209 -0.2721 -0.2240
   92SAPE  H15X 9105   2.713   5.187   4.243 -1.2086  1.9632  0.9120
   92SAPE  H15Y 9106   2.898   5.193   4.224  0.3556  0.0724 -0.3977
   92SAPE  C316 9107   2.773   5.380   4.272  0.2884 -0.3821 -1.0062
   92SAPE  H16X 9108   2.827   5.450   4.340 -3.0759  0.6563  0.8125
   92SAPE  H16Y 9109   2.667   5.396   4.301  0.8931  2.7059 -0.1121
   92SAPE  C317 9110   2.798   5.429   4.132  0.4427  0.3741  0.0134
   92SAPE  H17X 9111   2.755   5.344   4.075  3.3378 -1.7928  0.8613
   92SAPE  H17Y 9112   2.906   5.443   4.110  0.4027  1.6456  0.5192
   92SAPE  C318 9113   2.732   5.562   4.095  0.1463  0.4188  0.7441
   92SAPE  H18X 9114   2.743   5.574   3.985  0.2733  0.9426  0.8110
   92SAPE  H18Y 9115   2.775   5.650   4.147  2.6936  0.8954 -1.9226
   92SAPE  H18Z 9116   2.622   5.550   4.106  0.3749 -1.4947  1.1775
   93SAPE     N 9117   5.568   3.319   6.064 -0.0237  0.0262 -0.4885
   93SAPE   HN1 9118   5.498   3.334   5.988 -0.3659 -1.5302 -0.4986
   93SAPE   HN2 9119   5.521   3.361   6.147  0.6460 -0.6173  0.2203
   93SAPE   HN3 9120   5.657   3.372   6.058 -0.1479  1.3836  4.5869
   93SAPE   C12 9121   5.585   3.174   6.091 -0.0363 -0.2778  0.3366
   93SAPE  H12A 9122   5.481   3.136   6.100 -1.6594  3.1191 -2.0335
   93SAPE  H12B 9123   5.639   3.169   6.188  0.6362  1.7905  0.1158
   93SAPE   C11 9124   5.656   3.114   5.968  0.2753 -0.1301  0.3301
   93SAPE  H11A 9125   5.605   3.141   5.874  1.1127 -0.7611 -0.3189
   93SAPE  H11B 9126   5.658   3.003   5.975  2.7443 -0.0967  0.9546
   93SAPE     P 9127   5.899   3.128   5.870 -0.4197  0.2052  0.2331
   93SAPE   O13 9128   6.025   3.194   5.917 -0.0249  0.1999  0.1261
   93SAPE   O14 9129   5.902   2.978   5.876 -0.1447 -0.1603 -0.0953
   93SAPE   O12 9130   5.782   3.180   5.962  0.2391  0.2492  0.6509
   93SAPE   O11 9131   5.857   3.178   5.728 -0.1653 -0.1985  0.1289
   93SAPE    C1 9132   5.759   3.280   5.710  0.2681  1.0229 -0.1580
   93SAPE    HA 9133   5.673   3.225   5.665  0.7946 -0.6395  0.7514
   93SAPE    HB 9134   5.734   3.335   5.803 -1.9361  1.8454 -1.1778
   93SAPE    C2 9135   5.800   3.376   5.602  0.1566 -0.0121  0.0390
   93SAPE    HS 9136   5.727   3.461   5.600 -0.0992 -0.2512 -0.8072
   93SAPE   O21 9137   5.810   3.312   5.474 -0.0754 -0.4431 -0.4917
   93SAPE   C21 9138   5.695   3.291   5.422 -0.1896  0.1056  0.2996
   93SAPE   O22 9139   5.586   3.322   5.471  0.3084 -0.1875  0.6956
   93SAPE   C22 9140   5.720   3.222   5.285 -0.1998 -0.2701 -0.2401
   93SAPE   H2R 9141   5.799   3.281   5.234  2.5123 -1.3394  2.3835
   93SAPE   H2S 9142   5.757   3.121   5.314 -3.5687 -1.2050  1.3387
   93SAPE    C3 9143   5.939   3.432   5.645  0.2592  0.2166  0.4353
   93SAPE    HX 9144   6.009   3.348   5.660  3.4570  3.0274  2.8622
   93SAPE    HY 9145   5.929   3.483   5.743 -1.7668  0.4740  0.1503
   93SAPE   O31 9146   5.988   3.528   5.551 -0.4945 -0.3432 -0.2387
   93SAPE   C31 9147   6.089   3.500   5.470  0.6257  0.1356 -0.2902
   93SAPE   O32 9148   6.149   3.394   5.466  0.4190 -0.0496  0.0057
   93SAPE   C32 9149   6.128   3.624   5.395 -0.4602 -0.1978  0.5076
   93SAPE   H2X 9150   6.204   3.678   5.455 -0.4596  2.2515 -1.5156
   93SAPE   H2Y 9151   6.043   3.695   5.389  1.7206  2.5666  0.2731
   93SAPE   C23 9152   5.594   3.212   5.196  0.7357  0.3234  0.7567
   93SAPE   H3R 9153   5.553   3.309   5.161 -1.0779 -0.4437  0.6906
   93SAPE   H3S 9154   5.517   3.168   5.262  0.9758 -0.2464  0.6605
   93SAPE   C24 9155   5.606   3.132   5.068  0.4482  0.0161 -0.0676
   93SAPE   H4R 9156   5.618   3.025   5.093  2.2835  0.3651  0.7415
   93SAPE   H4S 9157   5.707   3.159   5.028  0.9664 -1.9070 -0.1844
   93SAPE   C25 9158   5.483   3.146   4.977 -0.5837 -0.4532  0.3111
   93SAPE   H5R 9159   5.389   3.106   5.017 -1.7417  0.4707 -1.3342
   93SAPE   C26 9160   5.484   3.172   4.849  0.3100  0.4889  0.0457
   93SAPE   H6R 9161   5.383   3.177   4.805  0.5519  1.0410 -0.4609
   93SAPE   C27 9162   5.597   3.200   4.748 -0.2687  0.0399 -0.2264
   93SAPE   H7R 9163   5.618   3.109   4.687 -0.5400 -0.9895  1.1432
   93SAPE   H7S 9164   5.693   3.216   4.802 -2.3515 -1.3288  4.3891
   93SAPE   C28 9165   5.573   3.322   4.659  0.3571 -0.2337 -0.5155
   93SAPE   H8R 9166   5.622   3.413   4.697 -0.3448  1.0887 -2.5742
   93SAPE   C29 9167   5.518   3.319   4.537 -0.6229  0.7607 -0.6984
   93SAPE   H9R 9168   5.504   3.416   4.488 -1.4314  0.6616 -0.6831
   93SAPE  C210 9169   5.472   3.185   4.472 -0.5208 -0.2090  0.2907
   93SAPE  H10R 9170   5.380   3.162   4.529 -1.5359  0.1490 -1.1522
   93SAPE  H10S 9171   5.539   3.096   4.470 -1.4894 -0.9400 -0.2024
   93SAPE  C211 9172   5.428   3.220   4.331 -0.7975  0.0377 -0.3410
   93SAPE  H11R 9173   5.505   3.266   4.268  2.4780 -0.0581  3.2305
   93SAPE  C212 9174   5.309   3.196   4.275 -0.3396  0.0520  0.6405
   93SAPE  H12R 9175   5.300   3.236   4.173  0.8191 -1.1916  0.0073
   93SAPE  C213 9176   5.184   3.136   4.332  0.3141 -0.0727 -0.0726
   93SAPE  H13R 9177   5.189   3.038   4.383 -0.5816 -0.4805 -0.7206
   93SAPE  H13S 9178   5.112   3.117   4.249 -0.7698  3.5177 -0.1217
   93SAPE  C214 9179   5.121   3.245   4.417 -0.0071 -0.0336 -0.0801
   93SAPE  H14R 9180   5.135   3.342   4.368  1.4965 -0.4685 -0.5783
   93SAPE  C215 9181   5.031   3.245   4.517 -0.4349  0.1277  0.1000
   93SAPE  H15R 9182   5.024   3.336   4.577  0.6561  0.3760 -0.1272
   93SAPE  C216 9183   4.978   3.126   4.595  0.0777 -0.3167 -0.9609
   93SAPE  H16R 9184   5.009   3.026   4.557  0.2880 -1.0948  1.1592
   93SAPE  H16S 9185   4.867   3.126   4.606  0.1620  1.0638  0.0367
   93SAPE  C217 9186   5.038   3.148   4.736  0.2940 -0.1160  0.3593
   93SAPE  H17R 9187   5.020   3.254   4.763  0.4194  0.0773 -0.2910
   93SAPE  H17S 9188   5.147   3.126   4.737  0.1737 -0.8351 -0.4200
   93SAPE  C218 9189   4.962   3.072   4.842  0.2024  0.2340 -0.1606
   93SAPE  H18R 9190   4.983   2.964   4.831 -0.7765  0.2515 -2.7965
   93SAPE  H18S 9191   4.852   3.088   4.844  0.1381 -0.2072  1.4138
   93SAPE  C219 9192   5.004   3.117   4.979  0.3880  0.1194 -0.3636
   93SAPE  H19R 9193   5.112   3.144   4.980  0.1495  1.1464  1.0760
   93SAPE  H19S 9194   4.995   3.034   5.051 -0.7647  0.6220  0.0882
   93SAPE  C220 9195   4.925   3.234   5.028 -0.2703  0.5776 -0.6596
   93SAPE  H20R 9196   4.940   3.320   4.959 -0.0266  0.8063 -0.3201
   93SAPE  H20S 9197   4.949   3.261   5.133 -4.4322  0.0333  0.5879
   93SAPE  H20T 9198   4.817   3.213   5.018 -0.1044  0.4819 -2.7141
   93SAPE   C33 9199   6.180   3.583   5.255 -0.5023 -0.2145 -0.1524
   93SAPE   H3X 9200   6.262   3.508   5.265 -1.7027 -1.3511  1.6200
   93SAPE   H3Y 9201   6.215   3.675   5.203  0.2175 -0.8466 -0.8321
   93SAPE   C34 9202   6.070   3.516   5.160 -0.4860 -0.0815 -0.3503
   93SAPE   H4X 9203   6.005   3.446   5.218 -1.4325  0.2140 -1.0233
   93SAPE   H4Y 9204   6.109   3.457   5.075 -2.0980  0.0160 -1.1924
   93SAPE   C35 9205   5.973   3.624   5.107  0.0136 -0.0252  0.4187
   93SAPE   H5X 9206   6.020   3.688   5.029  0.8105 -1.0155  0.0744
   93SAPE   H5Y 9207   5.934   3.684   5.192  0.5795  1.5506 -0.3891
   93SAPE   C36 9208   5.861   3.557   5.020  0.0188  0.6061  0.2473
   93SAPE   H6X 9209   5.778   3.631   5.015 -0.4785  0.1364  1.2519
   93SAPE   H6Y 9210   5.819   3.470   5.074  0.7000 -1.2701 -2.0689
   93SAPE   C37 9211   5.908   3.527   4.871  0.5852  0.7825  0.1322
   93SAPE   H7X 9212   5.843   3.444   4.834  1.9889 -0.4063  0.2468
   93SAPE   H7Y 9213   6.003   3.474   4.890 -0.3929 -1.4102 -0.7683
   93SAPE   C38 9214   5.920   3.641   4.766  0.1549  0.7259  0.0684
   93SAPE   H8X 9215   5.979   3.720   4.817  2.0542  1.3725 -2.8810
   93SAPE   H8Y 9216   5.829   3.700   4.739 -0.5786 -0.9615 -1.3791
   93SAPE   C39 9217   5.992   3.598   4.647 -0.5504  0.3645 -0.0232
   93SAPE   H9X 9218   6.071   3.524   4.671 -1.4050 -0.3385  0.7048
   93SAPE   H9Y 9219   6.042   3.686   4.601 -2.4831  1.8315  0.5540
   93SAPE  C310 9220   5.899   3.529   4.544  0.5107  0.4029  0.1490
   93SAPE  H10X 9221   5.846   3.610   4.488 -0.0791 -1.6136 -2.4061
   93SAPE  H10Y 9222   5.812   3.465   4.572  0.5265 -0.1926 -1.1049
   93SAPE  C311 9223   5.977   3.449   4.439 -0.0523  0.7682  0.6188
   93SAPE  H11X 9224   5.998   3.352   4.488  0.2010  1.0561  1.0841
   93SAPE  H11Y 9225   6.078   3.487   4.411  1.6606 -3.7528 -0.0972
   93SAPE  C312 9226   5.902   3.416   4.307 -0.4020  0.3432  0.5466
   93SAPE  H12X 9227   5.906   3.502   4.237 -0.2768  0.5627  0.8242
   93SAPE  H12Y 9228   5.791   3.407   4.314 -0.6611  2.3008 -0.3639
   93SAPE  C313 9229   5.959   3.296   4.231 -0.3884 -0.0201  0.3365
   93SAPE  H13X 9230   5.953   3.213   4.304  0.4022 -0.2163  0.1905
   93SAPE  H13Y 9231   6.064   3.318   4.201  0.0978 -2.1622  0.3399
   93SAPE  C314 9232   5.885   3.268   4.092 -0.7469  0.3786 -0.7949
   93SAPE  H14X 9233   5.965   3.227   4.027 -0.0050  2.4622 -1.2679
   93SAPE  H14Y 9234   5.858   3.360   4.037 -0.0632  0.0831 -1.6445
   93SAPE  C315 9235   5.779   3.169   4.104 -0.3190  0.3211 -0.1438
   93SAPE  H15X 9236   5.727   3.158   4.006  0.3733 -0.9226 -0.3848
   93SAPE  H15Y 9237   5.703   3.190   4.182 -3.1971 -1.2247 -2.3056
   93SAPE  C316 9238   5.826   3.031   4.133 -0.2384  1.1452  0.1410
   93SAPE  H16X 9239   5.890   3.023   4.223  1.1627 -0.4363 -0.9257
   93SAPE  H16Y 9240   5.899   3.004   4.053 -0.4777  1.5720 -0.2265
   93SAPE  C317 9241   5.728   2.925   4.111  0.2864  0.0113 -0.0689
   93SAPE  H17X 9242   5.697   2.936   4.005 -0.7826  0.2554  0.2568
   93SAPE  H17Y 9243   5.633   2.927   4.170  0.6153 -2.0875  0.6304
   93SAPE  C318 9244   5.799   2.793   4.134 -0.2497  1.0239 -0.2939
   93SAPE  H18X 9245   5.842   2.784   4.235 -0.5274  0.9931 -0.1766
   93SAPE  H18Y 9246   5.887   2.790   4.067 -0.4420  0.8453 -0.5410
   93SAPE  H18Z 9247   5.727   2.710   4.118  1.2423 -0.5971  1.0843
   94SAPE     N 9248   4.122   6.052   6.544 -0.0820  0.1439  0.4495
   94SAPE   HN1 9249   4.188   6.092   6.475 -2.0875  4.2377  0.6446
   94SAPE   HN2 9250   4.027   6.049   6.501  0.5777 -1.0295 -1.0365
   94SAPE   HN3 9251   4.123   6.113   6.628  0.5681 -0.1628  0.6701
   94SAPE   C12 9252   4.168   5.917   6.598  0.1063 -0.4896 -0.5065
   94SAPE  H12A 9253   4.071   5.864   6.610  0.3028 -0.5322  1.0435
   94SAPE  H12B 9254   4.208   5.939   6.699  0.3830 -1.3622 -0.4172
   94SAPE   C11 9255   4.278   5.851   6.523 -0.8187 -0.0589  0.0612
   94SAPE  H11A 9256   4.313   5.759   6.573 -1.8420 -1.5410 -1.7953
   94SAPE  H11B 9257   4.372   5.909   6.519 -1.6231  1.3681  0.9471
   94SAPE     P 9258   4.173   5.685   6.351 -0.1798 -0.5581  0.9001
   94SAPE   O13 9259   4.277   5.583   6.308 -0.1917 -0.1647  0.2139
   94SAPE   O14 9260   4.079   5.637   6.452 -0.0617 -0.7201  0.1588
   94SAPE   O12 9261   4.236   5.824   6.390 -0.0149 -0.5710  0.1044
   94SAPE   O11 9262   4.090   5.715   6.221  0.1795 -0.1341 -0.1090
   94SAPE    C1 9263   4.100   5.835   6.142 -0.3755 -0.4284 -0.3444
   94SAPE    HA 9264   4.032   5.915   6.177  0.6015  0.0960  0.4332
   94SAPE    HB 9265   4.208   5.863   6.137 -0.5961  0.2751 -1.2479
   94SAPE    C2 9266   4.056   5.816   5.994 -0.0614  0.3647  0.5442
   94SAPE    HS 9267   3.946   5.809   6.008 -0.0768 -2.1628 -0.3335
   94SAPE   O21 9268   4.099   5.690   5.934 -1.1116  0.0946  0.2781
   94SAPE   C21 9269   4.031   5.647   5.828  1.1889  0.4740 -0.0960
   94SAPE   O22 9270   3.928   5.710   5.793 -0.5846 -0.0242 -0.1832
   94SAPE   C22 9271   4.085   5.512   5.769  0.1263 -0.7947 -0.5719
   94SAPE   H2R 9272   4.194   5.522   5.785  0.1963  0.9359 -1.8980
   94SAPE   H2S 9273   4.034   5.429   5.823  1.4361  0.0132  2.1181
   94SAPE    C3 9274   4.095   5.930   5.900 -0.5099  0.2982 -0.0232
   94SAPE    HX 9275   4.084   6.011   5.975  0.4833  1.0843 -0.7117
   94SAPE    HY 9276   4.028   5.955   5.815 -1.9881 -0.8119  0.7625
   94SAPE   O31 9277   4.227   5.935   5.871 -0.5034  0.3195  0.8343
   94SAPE   C31 9278   4.264   5.912   5.750 -0.0737 -0.2852 -0.1429
   94SAPE   O32 9279   4.187   5.910   5.650 -0.5905  0.1326 -0.5435
   94SAPE   C32 9280   4.415   5.908   5.733 -0.4277 -1.0613  0.6831
   94SAPE   H2X 9281   4.466   5.940   5.827  0.6070  0.8547 -0.4710
   94SAPE   H2Y 9282   4.445   5.983   5.656 -0.7746 -0.0986  1.4705
   94SAPE   C23 9283   4.051   5.506   5.614  0.2709 -0.3639  0.0899
   94SAPE   H3R 9284   4.093   5.598   5.566  1.4873 -0.0365  1.6684
   94SAPE   H3S 9285   3.941   5.504   5.602  0.2180 -5.0845 -0.6274
   94SAPE   C24 9286   4.106   5.381   5.545  0.4428 -0.2064 -0.2130
   94SAPE   H4R 9287   4.216   5.381   5.562  0.5067  3.6603  0.1029
   94SAPE   H4S 9288   4.079   5.385   5.437 -2.5900 -1.6088  0.4020
   94SAPE   C25 9289   4.043   5.256   5.606 -0.1988  0.2530 -0.0196
   94SAPE   H5R 9290   4.104   5.229   5.693 -0.4298  0.9660  0.3659
   94SAPE   C26 9291   3.943   5.168   5.554 -0.8607 -0.9115 -0.2836
   94SAPE   H6R 9292   3.907   5.080   5.610  0.3433 -1.0077  0.3650
   94SAPE   C27 9293   3.861   5.201   5.430  0.4321  0.3405  1.0447
   94SAPE   H7R 9294   3.874   5.309   5.411 -1.1023  0.6168  1.4018
   94SAPE   H7S 9295   3.755   5.183   5.459  0.3905  1.8955  1.9719
   94SAPE   C28 9296   3.887   5.116   5.305  0.6509 -0.3800 -0.2872
   94SAPE   H8R 9297   3.913   5.010   5.321 -2.5824 -1.0368  1.5461
   94SAPE   C29 9298   3.891   5.165   5.180 -0.2946  0.6701  0.0882
   94SAPE   H9R 9299   3.914   5.101   5.094 -0.8466  0.1113  0.3432
   94SAPE  C210 9300   3.851   5.306   5.136 -0.1966  0.3878  0.3211
   94SAPE  H10R 9301   3.777   5.344   5.210  0.5200  1.5891  0.4414
   94SAPE  H10S 9302   3.793   5.287   5.043 -1.0408 -0.6819  1.0298
   94SAPE  C211 9303   3.971   5.394   5.122  0.3906  0.2274 -0.0117
   94SAPE  H11R 9304   4.065   5.364   5.170  0.7761  1.5977  0.1213
   94SAPE  C212 9305   3.986   5.488   5.033  0.3637 -0.7790  0.1449
   94SAPE  H12R 9306   4.078   5.549   5.027 -0.0987 -0.1941 -1.4318
   94SAPE  C213 9307   3.873   5.534   4.938 -0.2044  0.0043 -0.1384
   94SAPE  H13R 9308   3.779   5.521   4.996  0.8597 -1.5893  1.3269
   94SAPE  H13S 9309   3.875   5.479   4.842 -1.1697  0.4253 -0.4080
   94SAPE  C214 9310   3.888   5.677   4.907 -0.3762 -1.2942 -0.3454
   94SAPE  H14R 9311   3.872   5.752   4.986 -1.3435 -1.4910 -0.3407
   94SAPE  C215 9312   3.934   5.724   4.788 -0.4870 -0.9507 -0.2729
   94SAPE  H15R 9313   3.929   5.832   4.769 -2.9619 -0.9124  0.3697
   94SAPE  C216 9314   3.983   5.639   4.675 -0.1469  0.5944  0.4298
   94SAPE  H16R 9315   3.899   5.601   4.613 -0.9984  0.8380  1.4156
   94SAPE  H16S 9316   4.032   5.545   4.708  2.5225  1.7737  0.0830
   94SAPE  C217 9317   4.089   5.708   4.584  0.5110 -0.5496  0.2783
   94SAPE  H17R 9318   4.121   5.637   4.504  0.3658 -1.2787  0.8542
   94SAPE  H17S 9319   4.184   5.719   4.640  1.0236 -0.3433 -0.6103
   94SAPE  C218 9320   4.047   5.844   4.513 -0.5353  0.1352  0.4858
   94SAPE  H18R 9321   4.034   5.924   4.588 -0.6573  1.9901 -1.4183
   94SAPE  H18S 9322   3.956   5.822   4.452  0.9810 -2.2922 -1.0650
   94SAPE  C219 9323   4.168   5.869   4.412 -0.1872 -0.0751  0.1300
   94SAPE  H19R 9324   4.176   5.780   4.345 -0.7574 -1.1338  1.4287
   94SAPE  H19S 9325   4.262   5.880   4.470 -0.0084  0.7055 -0.3030
   94SAPE  C220 9326   4.135   5.999   4.329 -0.5269  0.3019  0.4578
   94SAPE  H20R 9327   4.216   6.040   4.265  1.7889 -2.5481  1.3170
   94SAPE  H20S 9328   4.104   6.068   4.411  1.2142  1.6842  0.0007
   94SAPE  H20T 9329   4.045   5.977   4.267  0.5418 -1.5189 -0.5540
   94SAPE   C33 9330   4.457   5.770   5.692  0.5835  0.4704 -0.0067
   94SAPE   H3X 9331   4.419   5.687   5.755  1.0991  1.3565  1.5302
   94SAPE   H3Y 9332   4.566   5.762   5.714  0.4549 -0.7130  0.2478
   94SAPE   C34 9333   4.432   5.737   5.540 -0.0136  0.0388 -0.5539
   94SAPE   H4X 9334   4.326   5.710   5.521  0.1184 -0.2123 -0.9411
   94SAPE   H4Y 9335   4.489   5.646   5.512  0.3340  0.1845 -0.3233
   94SAPE   C35 9336   4.469   5.851   5.446 -0.1093 -0.0271 -0.4366
   94SAPE   H5X 9337   4.568   5.896   5.467 -0.4892 -0.3166  2.3430
   94SAPE   H5Y 9338   4.385   5.923   5.454  0.3625  0.4319  0.5770
   94SAPE   C36 9339   4.465   5.802   5.293  0.2756  0.3357  0.0199
   94SAPE   H6X 9340   4.393   5.719   5.278 -0.2553  0.6702  0.6294
   94SAPE   H6Y 9341   4.566   5.758   5.281  1.6313  3.1734  0.0934
   94SAPE   C37 9342   4.453   5.912   5.184 -0.3556 -0.4142 -0.6015
   94SAPE   H7X 9343   4.530   5.990   5.199 -0.3167 -0.2890 -1.4053
   94SAPE   H7Y 9344   4.357   5.967   5.180 -0.0708  0.1471  0.0673
   94SAPE   C38 9345   4.467   5.851   5.043  0.1907  0.3606 -0.0455
   94SAPE   H8X 9346   4.392   5.769   5.035  1.0205 -0.3575 -0.6884
   94SAPE   H8Y 9347   4.565   5.800   5.033  0.9946  1.8921 -0.2809
   94SAPE   C39 9348   4.461   5.964   4.943 -0.0950  0.6411 -0.0471
   94SAPE   H9X 9349   4.489   6.056   4.999 -0.4442 -0.7382  2.5624
   94SAPE   H9Y 9350   4.358   5.980   4.904 -0.2786 -0.2175  0.0695
   94SAPE  C310 9351   4.559   5.938   4.828 -0.0260  0.1561 -0.3223
   94SAPE  H10X 9352   4.662   5.942   4.870  0.1094 -1.7263 -0.4094
   94SAPE  H10Y 9353   4.552   6.024   4.758 -1.7497 -1.6575 -2.5166
   94SAPE  C311 9354   4.536   5.809   4.751 -0.2048 -0.4647  0.3700
   94SAPE  H11X 9355   4.427   5.809   4.731  0.0040 -0.5500 -0.8635
   94SAPE  H11Y 9356   4.554   5.719   4.812  0.2450 -1.2738 -0.9084
   94SAPE  C312 9357   4.612   5.798   4.618 -1.4088  0.1251 -0.1949
   94SAPE  H12X 9358   4.720   5.794   4.641 -1.3674  1.0910 -0.1988
   94SAPE  H12Y 9359   4.580   5.884   4.556  0.0685  0.1002 -1.0336
   94SAPE  C313 9360   4.579   5.665   4.546  0.2782 -0.4772  0.1842
   94SAPE  H13X 9361   4.479   5.672   4.499  0.7089  1.9594 -0.5279
   94SAPE  H13Y 9362   4.576   5.588   4.626 -0.6984  0.3544  0.9845
   94SAPE  C314 9363   4.691   5.640   4.450  0.1294 -0.1904  0.4605
   94SAPE  H14X 9364   4.688   5.535   4.414 -0.7666  0.2699 -0.8847
   94SAPE  H14Y 9365   4.788   5.654   4.502 -1.2166 -0.0758  3.1435
   94SAPE  C315 9366   4.677   5.730   4.324  0.6016 -0.2536 -0.1707
   94SAPE  H15X 9367   4.760   5.707   4.254  1.0913  1.9781 -0.3975
   94SAPE  H15Y 9368   4.699   5.837   4.345  0.9738 -0.1403 -1.1040
   94SAPE  C316 9369   4.541   5.723   4.244  0.4679  0.0118  0.0658
   94SAPE  H16X 9370   4.460   5.763   4.309  0.1378 -1.3116  0.4840
   94SAPE  H16Y 9371   4.534   5.617   4.212  0.7045 -0.0933  0.3580
   94SAPE  C317 9372   4.531   5.809   4.123 -0.1006 -0.1377 -0.0354
   94SAPE  H17X 9373   4.565   5.908   4.162  0.4848 -0.3265 -0.0633
   94SAPE  H17Y 9374   4.428   5.819   4.084  1.0886  1.0141 -3.1773
   94SAPE  C318 9375   4.621   5.759   4.013 -0.5509 -0.6913 -0.1989
   94SAPE  H18X 9376   4.609   5.832   3.930  2.4128 -1.5951 -1.5893
   94SAPE  H18Y 9377   4.579   5.665   3.970  0.5132  0.1098 -3.2251
   94SAPE  H18Z 9378   4.723   5.735   4.051  0.2309 -0.9031 -2.2911
   95SAPE     N 9379   0.689   3.305   6.031 -0.5378  0.7793  0.4097
   95SAPE   HN1 9380   0.649   3.298   5.935 -1.1634  0.1330  0.7083
   95SAPE   HN2 9381   0.619   3.356   6.089 -0.7852 -1.0838  1.8288
   95SAPE   HN3 9382   0.771   3.368   6.024 -0.1459  0.1066 -1.8939
   95SAPE   C12 9383   0.742   3.163   6.077 -0.0998 -0.1982  0.6138
   95SAPE  H12A 9384   0.661   3.087   6.071  1.7248 -2.2445  0.5207
   95SAPE  H12B 9385   0.783   3.177   6.180 -1.8508 -1.0754  1.4744
   95SAPE   C11 9386   0.845   3.112   5.968 -0.6430  0.7983  0.2756
   95SAPE  H11A 9387   0.792   3.121   5.870 -0.7144  1.0947  0.3425
   95SAPE  H11B 9388   0.852   3.002   5.987 -0.6834  1.2947  3.7116
   95SAPE     P 9389   1.091   3.161   5.905 -0.0432 -0.2621 -0.0228
   95SAPE   O13 9390   1.184   3.277   5.915  0.2962 -0.1059  0.4285
   95SAPE   O14 9391   1.144   3.029   5.946  0.1855 -0.5945 -0.0291
   95SAPE   O12 9392   0.963   3.195   5.983  0.2772 -0.1323 -0.2596
   95SAPE   O11 9393   1.043   3.154   5.754 -0.3735  0.4263 -0.1997
   95SAPE    C1 9394   1.013   3.257   5.668 -0.0765 -0.1940  0.0941
   95SAPE    HA 9395   0.949   3.217   5.587 -1.7046 -0.7582  1.5812
   95SAPE    HB 9396   0.969   3.350   5.711 -0.0616  0.4366 -1.2073
   95SAPE    C2 9397   1.140   3.310   5.601  0.2389  0.4499  0.4869
   95SAPE    HS 9398   1.194   3.383   5.665 -1.7653  1.5641  0.9960
   95SAPE   O21 9399   1.096   3.374   5.485 -0.0014  0.1348 -0.4242
   95SAPE   C21 9400   1.143   3.488   5.451  0.8405  0.3887  0.1037
   95SAPE   O22 9401   1.229   3.548   5.513  0.1337  0.3155  0.4144
   95SAPE   C22 9402   1.093   3.530   5.315 -0.6435  0.7611 -0.2982
   95SAPE   H2R 9403   1.090   3.445   5.244 -2.0407  0.8151 -0.3446
   95SAPE   H2S 9404   0.990   3.569   5.328 -0.9035  0.0183 -0.0899
   95SAPE    C3 9405   1.235   3.190   5.561 -0.0400  0.0875  0.2093
   95SAPE    HX 9406   1.173   3.114   5.510  0.0717 -0.9010  1.5201
   95SAPE    HY 9407   1.276   3.151   5.656 -0.5230 -0.4639  0.1915
   95SAPE   O31 9408   1.334   3.234   5.469 -0.2751 -0.5973 -0.6273
   95SAPE   C31 9409   1.436   3.298   5.516 -0.4274 -0.2332  0.7414
   95SAPE   O32 9410   1.476   3.298   5.630 -0.1252  0.1544 -0.7238
   95SAPE   C32 9411   1.508   3.377   5.403 -0.3955 -0.0780  0.9157
   95SAPE   H2X 9412   1.431   3.395   5.324  0.5112 -3.9052 -1.1030
   95SAPE   H2Y 9413   1.591   3.318   5.360 -2.5450 -1.5837 -1.5305
   95SAPE   C23 9414   1.183   3.631   5.258 -0.1984  0.8051 -0.2742
   95SAPE   H3R 9415   1.275   3.571   5.240 -1.0633 -1.4593  2.1051
   95SAPE   H3S 9416   1.208   3.719   5.321  1.0117  1.3282 -1.4463
   95SAPE   C24 9417   1.124   3.673   5.121  0.2339 -0.0246  0.2261
   95SAPE   H4R 9418   1.153   3.780   5.114  0.2055  0.2757  3.2072
   95SAPE   H4S 9419   1.015   3.677   5.139  0.4110 -1.7813  2.0184
   95SAPE   C25 9420   1.169   3.574   5.019 -0.4679  0.1277 -0.2043
   95SAPE   H5R 9421   1.126   3.474   5.035  1.6919 -0.7547  0.4477
   95SAPE   C26 9422   1.229   3.593   4.900  0.0163 -0.5511  1.3879
   95SAPE   H6R 9423   1.266   3.511   4.837 -0.9143  1.2523 -1.7000
   95SAPE   C27 9424   1.259   3.729   4.840  0.0153  0.7263  1.0027
   95SAPE   H7R 9425   1.259   3.808   4.919 -0.1955 -1.5152  3.3832
   95SAPE   H7S 9426   1.184   3.754   4.763  1.4502 -0.1971 -0.7699
   95SAPE   C28 9427   1.387   3.733   4.761 -0.1539  0.3806 -0.1039
   95SAPE   H8R 9428   1.470   3.791   4.805  1.2811 -0.4116 -1.6556
   95SAPE   C29 9429   1.416   3.680   4.644  0.1886 -0.6822  0.6701
   95SAPE   H9R 9430   1.520   3.675   4.608 -0.4042 -2.5596 -0.9598
   95SAPE  C210 9431   1.325   3.591   4.563 -0.2172 -0.1385 -0.1985
   95SAPE  H10R 9432   1.230   3.644   4.540  0.5023  1.4310  0.2729
   95SAPE  H10S 9433   1.311   3.504   4.630 -2.5559 -0.6328 -1.2213
   95SAPE  C211 9434   1.391   3.538   4.434  0.0709 -0.3543 -0.2120
   95SAPE  H11R 9435   1.410   3.619   4.362 -0.8126  0.5005  0.4852
   95SAPE  C212 9436   1.420   3.411   4.401 -0.0192  0.1242 -0.2384
   95SAPE  H12R 9437   1.482   3.392   4.312 -1.1647  1.3691 -1.3596
   95SAPE  C213 9438   1.410   3.299   4.505  0.5462  0.7681  0.3144
   95SAPE  H13R 9439   1.361   3.207   4.466  0.9005  0.9162 -0.4949
   95SAPE  H13S 9440   1.340   3.328   4.586 -0.6309  1.8944 -1.0474
   95SAPE  C214 9441   1.542   3.269   4.553 -0.1152  0.5456  0.0702
   95SAPE  H14R 9442   1.607   3.199   4.498  1.5898 -1.2731  3.9961
   95SAPE  C215 9443   1.589   3.284   4.677 -0.5542  0.2450 -0.3776
   95SAPE  H15R 9444   1.697   3.268   4.691 -0.7937 -1.4538 -0.2475
   95SAPE  C216 9445   1.531   3.342   4.807 -0.1451 -0.1189 -0.2728
   95SAPE  H16R 9446   1.521   3.453   4.804  1.3620  0.1713  2.3113
   95SAPE  H16S 9447   1.609   3.327   4.885  0.1795 -1.7081 -0.8756
   95SAPE  C217 9448   1.405   3.280   4.879 -0.3730 -0.6043 -0.2511
   95SAPE  H17R 9449   1.330   3.272   4.797  1.0816  0.5893 -1.7642
   95SAPE  H17S 9450   1.376   3.348   4.961 -0.6409 -0.3539 -0.5518
   95SAPE  C218 9451   1.425   3.134   4.914 -0.5103 -0.5895  0.3437
   95SAPE  H18R 9452   1.466   3.085   4.822  2.1550  3.0684 -0.6523
   95SAPE  H18S 9453   1.329   3.094   4.951 -0.7991  1.0335  1.4610
   95SAPE  C219 9454   1.526   3.110   5.023  0.8660 -0.2533 -0.4771
   95SAPE  H19R 9455   1.625   3.157   5.004  0.8869 -0.8726 -1.9981
   95SAPE  H19S 9456   1.557   3.005   5.038  1.8351 -0.0918 -1.2170
   95SAPE  C220 9457   1.464   3.164   5.159 -0.4346 -0.4016  0.0183
   95SAPE  H20R 9458   1.471   3.275   5.162 -2.7563 -0.2120  0.5368
   95SAPE  H20S 9459   1.523   3.104   5.232  0.3472  0.6372  0.2768
   95SAPE  H20T 9460   1.359   3.132   5.175 -0.0154 -0.8217  2.3396
   95SAPE   C33 9461   1.567   3.515   5.448  0.3607  0.0704  0.2620
   95SAPE   H3X 9462   1.651   3.485   5.514  1.8893  1.7188 -0.8684
   95SAPE   H3Y 9463   1.486   3.575   5.494 -0.8792 -0.7396 -0.7880
   95SAPE   C34 9464   1.616   3.595   5.334 -0.4692 -0.6434 -0.0009
   95SAPE   H4X 9465   1.538   3.658   5.285  0.8225  2.2545  1.4157
   95SAPE   H4Y 9466   1.654   3.534   5.249 -1.3107 -1.1435 -0.0248
   95SAPE   C35 9467   1.739   3.682   5.367  0.0545  0.2337  0.0710
   95SAPE   H5X 9468   1.827   3.614   5.374  0.7920  1.2548  0.8498
   95SAPE   H5Y 9469   1.712   3.738   5.459 -0.8293  1.0133 -0.6380
   95SAPE   C36 9470   1.762   3.780   5.255  0.1433  1.1435 -0.3268
   95SAPE   H6X 9471   1.798   3.874   5.302 -0.0009  1.3381 -0.5999
   95SAPE   H6Y 9472   1.670   3.789   5.194  0.5668  3.4502 -0.7060
   95SAPE   C37 9473   1.864   3.730   5.148 -0.2481 -0.1396  0.1110
   95SAPE   H7X 9474   1.805   3.650   5.099 -1.4735 -0.4447  1.9687
   95SAPE   H7Y 9475   1.953   3.684   5.195 -1.4115 -1.0562  1.5141
   95SAPE   C38 9476   1.906   3.840   5.046  0.5547  0.5838 -0.2018
   95SAPE   H8X 9477   1.986   3.779   5.000 -1.2705 -1.4760 -0.8049
   95SAPE   H8Y 9478   1.949   3.935   5.083  2.0200 -0.6271  1.3387
   95SAPE   C39 9479   1.778   3.864   4.949 -0.4593 -0.1574 -0.0709
   95SAPE   H9X 9480   1.690   3.902   5.005 -1.5632 -0.8795 -1.2773
   95SAPE   H9Y 9481   1.755   3.765   4.904  0.7752 -2.0624  3.1331
   95SAPE  C310 9482   1.827   3.970   4.844  0.4607 -0.3684 -0.4745
   95SAPE  H10X 9483   1.934   3.949   4.824  1.0324  0.6353  1.3780
   95SAPE  H10Y 9484   1.820   4.067   4.898  4.8883 -0.1526  0.0381
   95SAPE  C311 9485   1.742   3.954   4.718 -0.0015 -0.2991  0.0323
   95SAPE  H11X 9486   1.744   4.052   4.666 -1.0650  0.6536  1.7288
   95SAPE  H11Y 9487   1.636   3.946   4.747 -0.5251  1.4037 -1.2221
   95SAPE  C312 9488   1.793   3.844   4.626  0.3843  0.1936  0.4837
   95SAPE  H12X 9489   1.779   3.746   4.675  2.3796 -0.1516  0.4395
   95SAPE  H12Y 9490   1.903   3.857   4.614  0.6365 -0.6596  1.7210
   95SAPE  C313 9491   1.740   3.836   4.486  0.2266 -0.7157 -0.1083
   95SAPE  H13X 9492   1.770   3.932   4.439  1.0634 -1.2157 -0.6218
   95SAPE  H13Y 9493   1.630   3.818   4.484  0.2729 -1.2527 -3.0606
   95SAPE  C314 9494   1.807   3.726   4.407 -0.1599 -0.4285  0.2122
   95SAPE  H14X 9495   1.791   3.629   4.459  2.8735 -1.4811 -0.6327
   95SAPE  H14Y 9496   1.917   3.739   4.406 -0.0760 -0.7980  1.5419
   95SAPE  C315 9497   1.749   3.702   4.271 -0.2575 -0.6587 -0.1662
   95SAPE  H15X 9498   1.729   3.804   4.232  1.4236  0.1426  0.9419
   95SAPE  H15Y 9499   1.644   3.669   4.285 -0.1639 -1.6511 -1.6479
   95SAPE  C316 9500   1.837   3.621   4.180  0.2965 -0.5943  0.4212
   95SAPE  H16X 9501   1.863   3.524   4.228 -0.4077 -0.0518  1.9562
   95SAPE  H16Y 9502   1.927   3.682   4.157 -1.1698  0.6033 -2.6465
   95SAPE  C317 9503   1.771   3.597   4.045  0.5611  0.2234  0.4749
   95SAPE  H17X 9504   1.740   3.696   4.006  0.2416 -0.2168 -0.4081
   95SAPE  H17Y 9505   1.682   3.532   4.059 -1.9770  3.4123  0.1882
   95SAPE  C318 9506   1.871   3.531   3.946  0.3100  1.2016  0.7855
   95SAPE  H18X 9507   1.830   3.555   3.845  0.6043  0.2752  0.4350
   95SAPE  H18Y 9508   1.883   3.421   3.950 -1.3278  0.9985  0.9901
   95SAPE  H18Z 9509   1.973   3.572   3.954  0.8399  0.0115  0.3496
   96SAPE     N 9510   3.821   5.577   6.227  0.6289  0.7381 -0.7229
   96SAPE   HN1 9511   3.879   5.490   6.220  0.4382  0.6681 -1.5240
   96SAPE   HN2 9512   3.883   5.660   6.224  1.1990  0.3280 -0.5718
   96SAPE   HN3 9513   3.761   5.583   6.311 -0.6902  0.9520 -1.6583
   96SAPE   C12 9514   3.715   5.565   6.117 -0.0535  0.3891  0.0908
   96SAPE  H12A 9515   3.654   5.477   6.147 -1.5759  2.3806  3.4979
   96SAPE  H12B 9516   3.765   5.541   6.021  0.7451  0.3022  0.5211
   96SAPE   C11 9517   3.623   5.688   6.097  0.3161  0.4394 -0.0610
   96SAPE  H11A 9518   3.538   5.686   6.168 -0.4708 -2.4153 -0.9178
   96SAPE  H11B 9519   3.582   5.670   5.995 -2.1038  1.0761  0.7547
   96SAPE     P 9520   3.639   5.942   6.073  0.1684  0.1066  0.4709
   96SAPE   O13 9521   3.528   5.975   6.166  0.4008 -0.4221 -0.5695
   96SAPE   O14 9522   3.755   6.034   6.063  0.0249 -0.0061 -0.3444
   96SAPE   O12 9523   3.701   5.809   6.103 -0.1750  0.0448  0.0856
   96SAPE   O11 9524   3.580   5.910   5.931  0.8930  0.0507 -0.1592
   96SAPE    C1 9525   3.654   5.926   5.811 -0.4271  0.0999  0.1511
   96SAPE    HA 9526   3.764   5.909   5.823 -0.3875 -0.3154 -0.7242
   96SAPE    HB 9527   3.626   5.852   5.734 -0.9263 -1.2927  1.6110
   96SAPE    C2 9528   3.642   6.064   5.740  0.3293  0.6995  0.0637
   96SAPE    HS 9529   3.664   6.148   5.810  0.7567 -0.3350  1.2051
   96SAPE   O21 9530   3.505   6.077   5.681  0.5971 -0.1184  0.0194
   96SAPE   C21 9531   3.482   6.207   5.647  0.2805 -0.5928  0.4895
   96SAPE   O22 9532   3.535   6.298   5.703 -0.6758  0.2703  0.0657
   96SAPE   C22 9533   3.375   6.215   5.536  0.5414  0.3689 -0.3169
   96SAPE   H2R 9534   3.273   6.207   5.580  0.5553 -0.5858 -0.4523
   96SAPE   H2S 9535   3.394   6.319   5.502  1.6493 -0.4813 -2.4765
   96SAPE    C3 9536   3.760   6.068   5.631 -0.9846 -0.1283 -0.1876
   96SAPE    HX 9537   3.748   5.975   5.572 -2.8488 -0.2184  0.2904
   96SAPE    HY 9538   3.853   6.067   5.693 -1.4488  0.6453  0.5364
   96SAPE   O31 9539   3.758   6.180   5.545  0.1818 -0.1161 -0.2185
   96SAPE   C31 9540   3.820   6.292   5.603 -0.3957  0.4800  0.5072
   96SAPE   O32 9541   3.864   6.295   5.717 -0.3677 -0.3284  0.6201
   96SAPE   C32 9542   3.793   6.418   5.517  0.1350  0.0527  0.0982
   96SAPE   H2X 9543   3.684   6.440   5.514  0.1568  0.0534 -1.1922
   96SAPE   H2Y 9544   3.824   6.389   5.415  2.9253 -1.1919  1.1905
   96SAPE   C23 9545   3.391   6.119   5.418  0.9469 -0.6726 -0.3570
   96SAPE   H3R 9546   3.363   6.020   5.460  3.0142 -0.3920  1.9510
   96SAPE   H3S 9547   3.492   6.106   5.374  0.7484  1.7325 -1.6685
   96SAPE   C24 9548   3.285   6.150   5.306  0.3872  0.2829  0.2705
   96SAPE   H4R 9549   3.192   6.192   5.351  0.5055  1.4260 -0.5289
   96SAPE   H4S 9550   3.247   6.055   5.261 -0.7238 -0.4562  2.5902
   96SAPE   C25 9551   3.338   6.251   5.208 -0.8151 -0.4648  0.1771
   96SAPE   H5R 9552   3.311   6.352   5.241  0.6249  0.6664 -1.9134
   96SAPE   C26 9553   3.378   6.228   5.086  0.3094  0.5020 -0.3836
   96SAPE   H6R 9554   3.405   6.318   5.029  0.5534  1.1380  0.7131
   96SAPE   C27 9555   3.397   6.096   5.005 -0.0204 -0.3527  0.8262
   96SAPE   H7R 9556   3.435   6.136   4.908  0.8793  2.0425  2.0832
   96SAPE   H7S 9557   3.308   6.033   4.986 -0.1263 -0.6275  2.1340
   96SAPE   C28 9558   3.504   5.997   5.058  0.8844 -0.2315 -0.7080
   96SAPE   H8R 9559   3.468   5.960   5.156  0.2288 -0.3969 -1.0084
   96SAPE   C29 9560   3.627   5.973   5.018 -0.0213  0.3021 -0.2075
   96SAPE   H9R 9561   3.675   5.877   5.045 -0.1902  0.3311  0.2102
   96SAPE  C210 9562   3.674   6.026   4.886 -0.6832  0.3797 -0.1566
   96SAPE  H10R 9563   3.599   5.997   4.809  1.4375  1.7397 -2.8739
   96SAPE  H10S 9564   3.766   5.967   4.868 -1.1100 -0.4917  0.4350
   96SAPE  C211 9565   3.699   6.171   4.862 -0.3461 -0.2548  0.5374
   96SAPE  H11R 9566   3.667   6.239   4.942  1.5929 -0.9369  1.9557
   96SAPE  C212 9567   3.756   6.223   4.751  0.6730  0.6402 -0.0948
   96SAPE  H12R 9568   3.789   6.328   4.754 -2.2964  1.6911  2.8879
   96SAPE  C213 9569   3.796   6.155   4.622 -0.1643  0.1477  0.2956
   96SAPE  H13R 9570   3.782   6.044   4.629 -0.7168  0.2839  1.7784
   96SAPE  H13S 9571   3.904   6.171   4.605 -0.8387  4.5305 -1.0900
   96SAPE  C214 9572   3.725   6.216   4.503 -0.3085 -0.3867  0.3997
   96SAPE  H14R 9573   3.728   6.326   4.494  1.1161 -0.5359 -1.4369
   96SAPE  C215 9574   3.652   6.152   4.409 -0.2912 -0.2001 -0.2728
   96SAPE  H15R 9575   3.612   6.222   4.333 -1.0203  1.9382  1.9438
   96SAPE  C216 9576   3.606   6.006   4.400 -0.2840 -0.4746  0.0353
   96SAPE  H16R 9577   3.497   6.015   4.384 -0.1250  0.8945 -0.4360
   96SAPE  H16S 9578   3.614   5.946   4.493 -1.7679 -0.9943 -0.1556
   96SAPE  C217 9579   3.675   5.940   4.283 -0.9156 -0.7342  1.1892
   96SAPE  H17R 9580   3.784   5.961   4.287 -1.3235  3.6446 -2.3324
   96SAPE  H17S 9581   3.637   5.988   4.190 -0.6997 -0.6803  1.1288
   96SAPE  C218 9582   3.651   5.785   4.275  0.0685  0.3146 -0.0439
   96SAPE  H18R 9583   3.691   5.736   4.367 -3.9070  1.0929  2.3101
   96SAPE  H18S 9584   3.718   5.742   4.198 -0.5283 -0.0530 -0.3621
   96SAPE  C219 9585   3.502   5.733   4.247 -0.0166 -0.2711  0.2917
   96SAPE  H19R 9586   3.455   5.803   4.175 -2.8979 -1.1240  1.1799
   96SAPE  H19S 9587   3.433   5.741   4.334  0.2831 -1.6566  0.6859
   96SAPE  C220 9588   3.494   5.592   4.189 -0.2548  0.5796  0.2121
   96SAPE  H20R 9589   3.565   5.577   4.105  0.0690 -0.1256  0.6091
   96SAPE  H20S 9590   3.397   5.555   4.150 -1.2069 -0.9053  3.5695
   96SAPE  H20T 9591   3.517   5.513   4.264  2.0861 -1.3000 -2.3107
   96SAPE   C33 9592   3.867   6.549   5.556 -0.1106  0.9094 -0.2800
   96SAPE   H3X 9593   3.863   6.563   5.666  0.4568  1.5477 -0.3354
   96SAPE   H3Y 9594   3.813   6.636   5.512  1.6972  3.3220  1.9666
   96SAPE   C34 9595   4.011   6.565   5.507  0.3836 -0.4144 -0.2559
   96SAPE   H4X 9596   4.068   6.470   5.519 -0.2568 -0.9556 -1.3356
   96SAPE   H4Y 9597   4.059   6.636   5.577  0.4639 -2.0310  1.4097
   96SAPE   C35 9598   4.028   6.595   5.360 -0.5513  0.0601  0.3725
   96SAPE   H5X 9599   4.013   6.704   5.342 -2.1874 -0.2509 -0.3130
   96SAPE   H5Y 9600   3.950   6.540   5.305 -0.6022  1.1367 -0.6653
   96SAPE   C36 9601   4.174   6.565   5.307  0.0068  0.2549  0.2647
   96SAPE   H6X 9602   4.178   6.455   5.293  2.7929  0.4989 -1.4066
   96SAPE   H6Y 9603   4.257   6.585   5.378  2.1282 -3.1790 -1.0570
   96SAPE   C37 9604   4.216   6.629   5.172 -0.2249 -0.2027 -0.0732
   96SAPE   H7X 9605   4.316   6.592   5.141  0.3423  0.8763  0.4352
   96SAPE   H7Y 9606   4.235   6.736   5.198 -0.4990 -0.2369  0.2800
   96SAPE   C38 9607   4.120   6.615   5.057 -0.3826 -0.7195 -0.1358
   96SAPE   H8X 9608   4.054   6.704   5.058  0.5345 -0.0118 -0.6937
   96SAPE   H8Y 9609   4.058   6.523   5.055 -0.7497 -0.4652 -0.8823
   96SAPE   C39 9610   4.199   6.623   4.930 -0.4451 -0.8708  0.3141
   96SAPE   H9X 9611   4.268   6.537   4.916 -1.6176 -1.7953  0.0290
   96SAPE   H9Y 9612   4.260   6.714   4.915 -0.7538 -0.7679 -0.3475
   96SAPE  C310 9613   4.107   6.616   4.807 -0.8503 -0.3781 -0.1192
   96SAPE  H10X 9614   4.036   6.701   4.818 -0.9411 -0.4760  0.0656
   96SAPE  H10Y 9615   4.052   6.519   4.799  0.9125 -1.3357 -1.4546
   96SAPE  C311 9616   4.188   6.623   4.672  0.6257 -1.1001  0.4410
   96SAPE  H11X 9617   4.268   6.546   4.673 -0.5997 -2.4015  0.5070
   96SAPE  H11Y 9618   4.238   6.722   4.677  0.0115 -0.7158 -0.5267
   96SAPE  C312 9619   4.104   6.605   4.538 -0.2427  0.0012  0.2499
   96SAPE  H12X 9620   4.177   6.620   4.455 -2.3458  0.7908 -1.5710
   96SAPE  H12Y 9621   4.017   6.674   4.527 -0.7978 -0.8626 -1.0135
   96SAPE  C313 9622   4.038   6.463   4.517 -0.3431  0.4203 -0.2141
   96SAPE  H13X 9623   3.991   6.452   4.417  0.8665  0.5474 -0.8168
   96SAPE  H13Y 9624   3.956   6.447   4.591  0.1882  0.9095  0.4985
   96SAPE  C314 9625   4.135   6.350   4.547  0.1019  0.7150  0.1731
   96SAPE  H14X 9626   4.076   6.261   4.519 -0.1238  1.0784 -0.5235
   96SAPE  H14Y 9627   4.152   6.352   4.657  0.8940 -0.5204  0.0883
   96SAPE  C315 9628   4.265   6.354   4.473 -0.4123 -0.1716  0.0539
   96SAPE  H15X 9629   4.302   6.453   4.437  0.4984 -1.1523 -1.8134
   96SAPE  H15Y 9630   4.248   6.303   4.376  0.2112 -0.4708  0.0965
   96SAPE  C316 9631   4.377   6.290   4.556 -0.0549  0.2975 -0.2178
   96SAPE  H16X 9632   4.327   6.198   4.592  0.5968  0.5327  1.3638
   96SAPE  H16Y 9633   4.396   6.356   4.643  1.8133 -0.0741 -0.2842
   96SAPE  C317 9634   4.515   6.272   4.487  0.1358 -0.5861  0.4445
   96SAPE  H17X 9635   4.585   6.242   4.567 -0.0745  2.4611  1.8965
   96SAPE  H17Y 9636   4.551   6.370   4.449  1.7161 -1.1899  0.3268
   96SAPE  C318 9637   4.528   6.183   4.364 -0.3674  1.1162 -0.2237
   96SAPE  H18X 9638   4.501   6.081   4.398 -1.5038  2.0652  1.8993
   96SAPE  H18Y 9639   4.630   6.201   4.323 -0.5510  3.4948  0.2018
   96SAPE  H18Z 9640   4.457   6.212   4.284  0.2912 -0.8830 -1.6026
   97SAPE     N 9641   6.262   2.628   6.511 -0.0954 -0.1256  0.0823
   97SAPE   HN1 9642   6.340   2.679   6.464 -2.2906  2.6077 -0.9324
   97SAPE   HN2 9643   6.187   2.700   6.501  1.6440  1.6729 -0.8397
   97SAPE   HN3 9644   6.280   2.608   6.611  1.6560  3.8641  0.7834
   97SAPE   C12 9645   6.229   2.517   6.412  0.5967  0.1301 -0.0311
   97SAPE  H12A 9646   6.130   2.481   6.447  1.4491 -2.9352 -0.5413
   97SAPE  H12B 9647   6.304   2.437   6.398 -1.2728 -1.4505 -1.4487
   97SAPE   C11 9648   6.223   2.570   6.267  0.7845  0.0532 -0.2061
   97SAPE  H11A 9649   6.127   2.627   6.257  0.5892 -0.4559 -1.5750
   97SAPE  H11B 9650   6.212   2.485   6.196  1.2874 -0.2751  0.1069
   97SAPE     P 9651   6.339   2.755   6.124 -0.0414  0.2881 -0.6036
   97SAPE   O13 9652   6.309   2.891   6.179 -0.7593  0.2769  0.6498
   97SAPE   O14 9653   6.467   2.742   6.045  0.7265 -0.1027 -0.2848
   97SAPE   O12 9654   6.337   2.647   6.239  1.3687  0.4453 -0.4262
   97SAPE   O11 9655   6.204   2.713   6.035 -0.1016 -0.5914  0.4299
   97SAPE    C1 9656   6.209   2.599   5.954  0.7054 -0.1797 -0.2262
   97SAPE    HA 9657   6.299   2.537   5.973 -0.7108 -1.4330  3.1316
   97SAPE    HB 9658   6.117   2.537   5.962 -0.1037  0.9322 -0.7200
   97SAPE    C2 9659   6.218   2.633   5.800  0.1635 -0.2019  0.1621
   97SAPE    HS 9660   6.199   2.543   5.738  0.6138 -0.4100  0.3277
   97SAPE   O21 9661   6.341   2.695   5.761 -0.1262  0.2793  0.2665
   97SAPE   C21 9662   6.439   2.608   5.741 -0.0569  0.0046  0.1024
   97SAPE   O22 9663   6.431   2.487   5.746  0.0924  0.1254  0.1323
   97SAPE   C22 9664   6.572   2.684   5.727 -0.2441 -0.1652 -0.6753
   97SAPE   H2R 9665   6.557   2.786   5.767 -0.6038 -0.1090 -0.9483
   97SAPE   H2S 9666   6.649   2.634   5.789  0.4654  0.1427 -1.2863
   97SAPE    C3 9667   6.108   2.732   5.766  0.0114 -0.2691  0.3647
   97SAPE    HX 9668   6.134   2.825   5.821  1.1575  1.0079 -2.1698
   97SAPE    HY 9669   6.015   2.695   5.814  0.1257 -1.8543 -0.5899
   97SAPE   O31 9670   6.097   2.765   5.623  0.4163  0.4188 -0.0901
   97SAPE   C31 9671   6.023   2.682   5.549  0.3041 -0.1087 -0.4170
   97SAPE   O32 9672   5.975   2.579   5.599  0.0924  0.2205 -0.6775
   97SAPE   C32 9673   6.016   2.734   5.406 -0.0408 -0.2311 -0.5846
   97SAPE   H2X 9674   6.120   2.744   5.368  1.7710 -0.8971  3.6004
   97SAPE   H2Y 9675   5.982   2.840   5.412 -2.3886 -0.9842  0.4586
   97SAPE   C23 9676   6.616   2.706   5.581 -0.0280 -0.4934 -0.0643
   97SAPE   H3R 9677   6.637   2.608   5.536  0.3249 -0.3843 -0.1378
   97SAPE   H3S 9678   6.720   2.746   5.580  0.1142 -0.8744 -0.5592
   97SAPE   C24 9679   6.524   2.802   5.506 -0.5097  0.0313  0.1960
   97SAPE   H4R 9680   6.500   2.897   5.560  1.6616  1.6831 -1.5836
   97SAPE   H4S 9681   6.428   2.747   5.493  0.4431 -1.3770 -1.2185
   97SAPE   C25 9682   6.574   2.829   5.369  0.3110 -0.3397  0.4311
   97SAPE   H5R 9683   6.672   2.788   5.343 -0.5791 -0.2255 -3.8784
   97SAPE   C26 9684   6.503   2.879   5.261  0.3242  0.3944  0.3544
   97SAPE   H6R 9685   6.554   2.883   5.163  1.0584 -1.2525  0.6334
   97SAPE   C27 9686   6.361   2.940   5.268 -0.7018  0.4356  0.8791
   97SAPE   H7R 9687   6.308   2.879   5.344 -1.6397 -0.4654 -0.4443
   97SAPE   H7S 9688   6.310   2.912   5.173 -1.2945  2.4730  0.5542
   97SAPE   C28 9689   6.358   3.087   5.285 -0.3652  0.3865 -0.0103
   97SAPE   H8R 9690   6.390   3.122   5.384 -0.9837  0.7085  0.0769
   97SAPE   C29 9691   6.333   3.175   5.183  0.0385  0.0008  0.7063
   97SAPE   H9R 9692   6.343   3.284   5.195  0.6744  0.2064 -1.2871
   97SAPE  C210 9693   6.270   3.140   5.046 -0.2136  0.3757  0.2568
   97SAPE  H10R 9694   6.181   3.206   5.046  0.4554  1.3678 -2.1452
   97SAPE  H10S 9695   6.226   3.038   5.044  2.6307 -0.9548 -0.0085
   97SAPE  C211 9696   6.363   3.163   4.929  0.1776 -0.3036  0.7838
   97SAPE  H11R 9697   6.438   3.085   4.908  0.9081 -0.3248  3.1420
   97SAPE  C212 9698   6.353   3.264   4.838  0.1201  1.0888  0.9964
   97SAPE  H12R 9699   6.421   3.264   4.752 -1.0379  0.2233  0.0374
   97SAPE  C213 9700   6.242   3.366   4.829  0.1968 -0.4225  0.0571
   97SAPE  H13R 9701   6.149   3.335   4.881 -2.5344  0.1666 -3.9945
   97SAPE  H13S 9702   6.202   3.353   4.726 -1.4023 -1.5695  0.7737
   97SAPE  C214 9703   6.273   3.507   4.853 -0.3128  0.0181 -0.2538
   97SAPE  H14R 9704   6.204   3.557   4.922 -0.0623  2.0161 -1.3728
   97SAPE  C215 9705   6.364   3.595   4.800 -0.4398  0.2526 -0.4554
   97SAPE  H15R 9706   6.363   3.700   4.830  2.4732  0.0074  0.7710
   97SAPE  C216 9707   6.462   3.551   4.693  0.7151 -0.9012  0.5822
   97SAPE  H16R 9708   6.426   3.461   4.639 -0.4123 -0.0932 -0.0663
   97SAPE  H16S 9709   6.558   3.529   4.744  1.4521  1.9670  0.5860
   97SAPE  C217 9710   6.484   3.668   4.590 -0.1810 -0.3093 -0.5915
   97SAPE  H17R 9711   6.583   3.650   4.542 -0.0767 -0.9382 -0.1440
   97SAPE  H17S 9712   6.507   3.764   4.642 -0.2342 -1.1166  0.9921
   97SAPE  C218 9713   6.362   3.687   4.501  0.5717 -0.5567 -0.3846
   97SAPE  H18R 9714   6.263   3.694   4.551  1.3724  0.6725  1.1095
   97SAPE  H18S 9715   6.360   3.611   4.420 -1.8616  1.0914 -2.0422
   97SAPE  C219 9716   6.381   3.826   4.431 -0.0958  0.1784  0.3162
   97SAPE  H19R 9717   6.402   3.905   4.506  2.1414 -0.6590  0.6529
   97SAPE  H19S 9718   6.285   3.847   4.380 -0.2807  1.4579  1.1539
   97SAPE  C220 9719   6.489   3.819   4.325  0.1194 -0.4898  0.3924
   97SAPE  H20R 9720   6.586   3.781   4.364  0.3389 -1.1093 -0.7177
   97SAPE  H20S 9721   6.494   3.913   4.267 -0.9322 -1.4620 -1.3849
   97SAPE  H20T 9722   6.468   3.739   4.250 -1.2131 -0.0825  0.3014
   97SAPE   C33 9723   5.920   2.659   5.314  0.0879  0.1324 -0.5128
   97SAPE   H3X 9724   5.902   2.558   5.357  0.6441  0.2795  0.0872
   97SAPE   H3Y 9725   5.968   2.654   5.214 -0.3538 -1.5117 -0.6650
   97SAPE   C34 9726   5.781   2.726   5.294  0.3408 -0.5032 -0.2107
   97SAPE   H4X 9727   5.794   2.831   5.259 -0.2745  0.0452  1.1309
   97SAPE   H4Y 9728   5.734   2.735   5.394 -1.4034  0.1439 -1.0468
   97SAPE   C35 9729   5.683   2.651   5.204  0.0309  0.1502  0.8507
   97SAPE   H5X 9730   5.589   2.710   5.199  0.2006  0.3463 -0.4009
   97SAPE   H5Y 9731   5.657   2.549   5.240 -1.0155 -0.6605 -1.9450
   97SAPE   C36 9732   5.709   2.630   5.052 -0.2168  0.0206 -0.0580
   97SAPE   H6X 9733   5.646   2.555   4.998  0.2936 -0.5784  0.1648
   97SAPE   H6Y 9734   5.813   2.591   5.050 -0.6362 -1.1434 -0.3160
   97SAPE   C37 9735   5.711   2.760   4.973  0.8800 -0.6962  0.2902
   97SAPE   H7X 9736   5.772   2.837   5.025 -0.0079 -0.0484  0.3965
   97SAPE   H7Y 9737   5.606   2.794   4.960  0.8934 -0.1950  1.4410
   97SAPE   C38 9738   5.764   2.736   4.828  0.5396  0.4217  0.0095
   97SAPE   H8X 9739   5.720   2.648   4.778  1.1791 -0.4462  0.9464
   97SAPE   H8Y 9740   5.873   2.717   4.831  0.5279  0.2657 -0.5373
   97SAPE   C39 9741   5.755   2.861   4.735  0.5956  0.2038  0.0830
   97SAPE   H9X 9742   5.766   2.955   4.794 -0.3748  0.4584 -0.1198
   97SAPE   H9Y 9743   5.650   2.881   4.705  0.5421 -0.0804  0.0829
   97SAPE  C310 9744   5.842   2.845   4.610  1.0440 -0.1712  0.3780
   97SAPE  H10X 9745   5.793   2.779   4.535  1.4866 -1.3371  1.0873
   97SAPE  H10Y 9746   5.936   2.799   4.645  2.5444  0.3350 -2.6850
   97SAPE  C311 9747   5.865   2.981   4.543  0.0907 -0.3894 -0.5069
   97SAPE  H11X 9748   5.771   3.032   4.515  0.4866  0.1778 -0.8402
   97SAPE  H11Y 9749   5.910   2.967   4.442 -0.1816 -0.3576 -0.6331
   97SAPE  C312 9750   5.959   3.071   4.627  0.5297  0.1940 -0.5628
   97SAPE  H12X 9751   5.901   3.096   4.719 -1.3769  1.5778 -2.0419
   97SAPE  H12Y 9752   5.978   3.167   4.575 -1.7942  0.2483 -1.4561
   97SAPE  C313 9753   6.096   3.008   4.666  0.4563 -0.2753  0.0016
   97SAPE  H13X 9754   6.069   2.924   4.733  2.1412 -0.2402  0.7795
   97SAPE  H13Y 9755   6.139   3.081   4.738 -3.0042  0.9060  1.0795
   97SAPE  C314 9756   6.176   2.960   4.539 -0.7815 -0.1642 -0.6484
   97SAPE  H14X 9757   6.117   2.879   4.490 -1.1246  0.7049 -1.7203
   97SAPE  H14Y 9758   6.268   2.917   4.585 -1.6896 -1.6497 -0.1425
   97SAPE  C315 9759   6.215   3.080   4.449 -0.1189  0.2505 -0.4295
   97SAPE  H15X 9760   6.201   3.177   4.501 -1.7295  1.2201 -2.5226
   97SAPE  H15Y 9761   6.135   3.090   4.373  0.7916 -1.0747 -1.6136
   97SAPE  C316 9762   6.355   3.061   4.390  0.6155 -1.0679 -0.4005
   97SAPE  H16X 9763   6.365   2.960   4.344  0.5422 -0.3942 -1.9826
   97SAPE  H16Y 9764   6.428   3.064   4.473 -0.2709 -0.4133  0.3732
   97SAPE  C317 9765   6.389   3.175   4.296  0.6422 -0.3843  0.1207
   97SAPE  H17X 9766   6.498   3.179   4.278  0.4778  3.9111 -1.1351
   97SAPE  H17Y 9767   6.361   3.279   4.326  2.4702  0.5813 -1.3273
   97SAPE  C318 9768   6.332   3.148   4.155 -0.2341 -0.0428  0.4278
   97SAPE  H18X 9769   6.364   3.048   4.120 -0.7961 -0.3260  0.7105
   97SAPE  H18Y 9770   6.378   3.216   4.081 -1.0558 -0.8856 -0.8910
   97SAPE  H18Z 9771   6.222   3.155   4.145 -0.2198 -1.5807 -1.3356
   98SAPE     N 9772   4.687   1.455   6.483  0.4803 -0.4685  0.3057
   98SAPE   HN1 9773   4.651   1.423   6.574  0.5110 -0.7107  0.2319
   98SAPE   HN2 9774   4.664   1.556   6.470 -1.1080 -0.7069  1.0681
   98SAPE   HN3 9775   4.635   1.410   6.405  0.4795  0.5116 -0.2876
   98SAPE   C12 9776   4.838   1.456   6.481 -0.3551  0.0020  0.0027
   98SAPE  H12A 9777   4.870   1.350   6.476  0.0073  0.1720 -2.2206
   98SAPE  H12B 9778   4.863   1.502   6.579 -0.3909  0.2968 -0.1242
   98SAPE   C11 9779   4.904   1.545   6.376  0.0242 -0.2520 -0.0420
   98SAPE  H11A 9780   4.874   1.506   6.276 -1.4476 -1.9932  1.0223
   98SAPE  H11B 9781   5.015   1.537   6.379  0.1867  1.6927  2.2700
   98SAPE     P 9782   4.845   1.779   6.268 -0.5672  0.1826  0.2099
   98SAPE   O13 9783   4.705   1.778   6.224  0.3131 -0.9659 -0.2509
   98SAPE   O14 9784   4.894   1.916   6.294  0.0802 -0.6289 -0.4057
   98SAPE   O12 9785   4.858   1.686   6.393  0.0015  0.5264 -0.1128
   98SAPE   O11 9786   4.934   1.705   6.160  0.0309  0.8749  0.0173
   98SAPE    C1 9787   4.890   1.735   6.018 -0.3716  0.5780  0.2949
   98SAPE    HA 9788   4.790   1.690   5.996 -0.5249  1.4833 -0.9761
   98SAPE    HB 9789   4.879   1.842   5.989 -2.8291  0.4150  0.3719
   98SAPE    C2 9790   4.986   1.663   5.920 -0.2056 -0.3761  0.5347
   98SAPE    HS 9791   4.953   1.663   5.814  0.8138 -0.1443  0.2016
   98SAPE   O21 9792   5.020   1.527   5.960  1.2109 -0.4064  0.3583
   98SAPE   C21 9793   4.929   1.438   5.941  0.1040 -0.3746  0.0791
   98SAPE   O22 9794   4.822   1.450   5.892 -0.1776  0.2931  0.1012
   98SAPE   C22 9795   4.995   1.314   6.002  0.0702  0.0383 -0.2522
   98SAPE   H2R 9796   5.104   1.334   6.009 -0.1195  0.9670  0.1290
   98SAPE   H2S 9797   4.957   1.324   6.106  1.5340  1.0329  0.2118
   98SAPE    C3 9798   5.120   1.745   5.910  0.2742  0.8878  0.5381
   98SAPE    HX 9799   5.174   1.737   6.007  1.9997 -0.6289 -0.4740
   98SAPE    HY 9800   5.088   1.850   5.895 -0.0685  0.5174 -1.7067
   98SAPE   O31 9801   5.200   1.711   5.792  0.0062 -0.0789 -0.1324
   98SAPE   C31 9802   5.152   1.750   5.682 -0.2192 -0.3284  0.0392
   98SAPE   O32 9803   5.050   1.817   5.663 -0.0465  0.4294  0.0908
   98SAPE   C32 9804   5.255   1.716   5.577 -0.2674  0.0013 -0.0895
   98SAPE   H2X 9805   5.342   1.779   5.606 -0.0804 -0.3477  0.1137
   98SAPE   H2Y 9806   5.214   1.757   5.482 -1.9968 -0.2384  0.5134
   98SAPE   C23 9807   4.965   1.171   5.939  0.9445  0.3242 -0.5806
   98SAPE   H3R 9808   4.859   1.164   5.905  0.7657 -0.2590  0.0664
   98SAPE   H3S 9809   4.968   1.093   6.018  2.5927  1.6475  0.7432
   98SAPE   C24 9810   5.065   1.153   5.827  0.4103  0.4389  0.6352
   98SAPE   H4R 9811   5.165   1.154   5.875  1.1514  1.4625 -0.8605
   98SAPE   H4S 9812   5.054   1.243   5.763 -1.6943  1.2645  2.0696
   98SAPE   C25 9813   5.048   1.026   5.747 -0.5763  0.4643 -0.1754
   98SAPE   H5R 9814   5.092   0.938   5.796  1.9385  2.5986  1.7200
   98SAPE   C26 9815   5.009   1.023   5.620 -0.2007  0.1118  0.8293
   98SAPE   H6R 9816   4.997   0.924   5.575  1.5927 -0.3106  1.1727
   98SAPE   C27 9817   4.945   1.137   5.551  0.2821  0.5604  0.0221
   98SAPE   H7R 9818   4.884   1.194   5.623 -1.0654 -1.2593  0.3762
   98SAPE   H7S 9819   4.876   1.110   5.469  1.8445 -0.3322 -1.0675
   98SAPE   C28 9820   5.048   1.226   5.479  0.7585  0.0153 -0.2611
   98SAPE   H8R 9821   5.098   1.302   5.540 -0.2221 -0.6901  1.4931
   98SAPE   C29 9822   5.081   1.212   5.351 -0.6406 -0.0890  0.4995
   98SAPE   H9R 9823   5.146   1.290   5.306 -1.5613  0.4271  0.0456
   98SAPE  C210 9824   5.025   1.114   5.257  0.4816 -0.0103 -0.5810
   98SAPE  H10R 9825   4.947   1.175   5.207 -1.1588 -1.3594  0.2440
   98SAPE  H10S 9826   4.972   1.036   5.315 -1.0252  0.6769 -0.9989
   98SAPE  C211 9827   5.129   1.059   5.170 -0.2604 -0.1294  0.4296
   98SAPE  H11R 9828   5.211   1.026   5.235  0.1444  1.0470  0.5511
   98SAPE  C212 9829   5.120   1.035   5.038 -0.0888 -0.1948 -0.5635
   98SAPE  H12R 9830   5.209   0.994   4.989  1.2748 -1.7191  2.9040
   98SAPE  C213 9831   5.007   1.077   4.950 -0.0718 -0.4514 -0.3839
   98SAPE  H13R 9832   5.049   1.089   4.848  0.3756  1.4894 -0.0129
   98SAPE  H13S 9833   4.968   1.178   4.975 -0.4843 -1.2456  2.5136
   98SAPE  C214 9834   4.892   0.978   4.958 -0.5996 -0.0436  0.4085
   98SAPE  H14R 9835   4.911   0.893   4.890 -1.2978 -1.4738  1.9358
   98SAPE  C215 9836   4.768   0.980   5.003  0.6318  0.3449  0.0387
   98SAPE  H15R 9837   4.705   0.889   4.997 -1.6057  1.7527  0.8147
   98SAPE  C216 9838   4.696   1.079   5.087 -0.4390 -0.1024  0.6871
   98SAPE  H16R 9839   4.591   1.107   5.062 -0.1777  0.2868 -0.0013
   98SAPE  H16S 9840   4.748   1.177   5.085 -0.6904  0.1156 -3.4067
   98SAPE  C217 9841   4.686   1.031   5.235  0.2931  0.2085 -0.3279
   98SAPE  H17R 9842   4.639   1.114   5.292  1.3184 -0.3650  1.4228
   98SAPE  H17S 9843   4.792   1.036   5.269  1.2528  2.2820 -3.2143
   98SAPE  C218 9844   4.620   0.897   5.256 -0.1472 -0.0536  0.0485
   98SAPE  H18R 9845   4.678   0.812   5.217  1.3291  0.0898  1.7940
   98SAPE  H18S 9846   4.520   0.888   5.209  0.2648 -1.7046 -0.5488
   98SAPE  C219 9847   4.613   0.867   5.409  0.8361 -0.7089  0.7920
   98SAPE  H19R 9848   4.721   0.853   5.430  0.3696 -0.6950  3.5596
   98SAPE  H19S 9849   4.561   0.769   5.418 -1.1309  0.2353  0.1808
   98SAPE  C220 9850   4.556   0.979   5.503  0.5705  0.5487 -0.0615
   98SAPE  H20R 9851   4.468   1.029   5.456  1.4208  1.0140 -1.2118
   98SAPE  H20S 9852   4.629   1.063   5.507  0.9408  0.4104 -2.4425
   98SAPE  H20T 9853   4.544   0.946   5.608 -0.2339  0.5416 -0.1465
   98SAPE   C33 9854   5.304   1.572   5.570  0.2770  0.5965  0.1321
   98SAPE   H3X 9855   5.241   1.495   5.621  2.5445 -1.8952 -0.5786
   98SAPE   H3Y 9856   5.401   1.568   5.625  0.2551  0.3634  0.1562
   98SAPE   C34 9857   5.340   1.514   5.432  0.3651 -0.3251  0.8523
   98SAPE   H4X 9858   5.399   1.593   5.380 -2.0098  1.9584  1.4010
   98SAPE   H4Y 9859   5.256   1.497   5.362  0.3746  3.1347 -0.1807
   98SAPE   C35 9860   5.418   1.378   5.440 -0.3464 -0.5647  0.5765
   98SAPE   H5X 9861   5.346   1.299   5.468 -0.5667  0.5491  3.5390
   98SAPE   H5Y 9862   5.484   1.397   5.528 -0.7551 -1.5193  1.0953
   98SAPE   C36 9863   5.489   1.347   5.305 -0.4814 -0.2891 -0.5689
   98SAPE   H6X 9864   5.551   1.255   5.309  0.8018  0.5877  1.3792
   98SAPE   H6Y 9865   5.565   1.428   5.297  0.2961 -0.5284  2.7443
   98SAPE   C37 9866   5.403   1.341   5.185  0.4225 -0.4564  0.0089
   98SAPE   H7X 9867   5.334   1.428   5.178 -0.4746 -1.2720 -2.0443
   98SAPE   H7Y 9868   5.351   1.244   5.191  0.7865 -0.5736  1.5220
   98SAPE   C38 9869   5.477   1.320   5.044  0.8010 -0.4574  0.0115
   98SAPE   H8X 9870   5.556   1.242   5.044  0.6054 -0.6958 -1.5035
   98SAPE   H8Y 9871   5.524   1.417   5.019  1.9132 -0.8877  0.3531
   98SAPE   C39 9872   5.384   1.282   4.932  0.3241  0.7564 -0.1582
   98SAPE   H9X 9873   5.301   1.354   4.916 -0.4864 -0.4548 -1.7345
   98SAPE   H9Y 9874   5.340   1.183   4.959  1.5030  0.1696 -0.3430
   98SAPE  C310 9875   5.467   1.271   4.798  0.7640 -0.7963  0.3208
   98SAPE  H10X 9876   5.555   1.206   4.811  0.3144 -1.6495 -0.7877
   98SAPE  H10Y 9877   5.504   1.374   4.777 -0.0922 -0.4754  0.2987
   98SAPE  C311 9878   5.384   1.228   4.670 -0.0023 -0.0750  0.2480
   98SAPE  H11X 9879   5.299   1.297   4.649  0.8760  0.4987 -1.7071
   98SAPE  H11Y 9880   5.335   1.130   4.688  1.1466 -0.7232 -0.0924
   98SAPE  C312 9881   5.476   1.206   4.556 -0.0215 -0.4185  0.1053
   98SAPE  H12X 9882   5.558   1.139   4.591  0.8421  0.4862 -0.1257
   98SAPE  H12Y 9883   5.525   1.300   4.522  0.7608 -1.3771 -1.5225
   98SAPE  C313 9884   5.408   1.132   4.435 -0.1184 -0.2674 -0.3639
   98SAPE  H13X 9885   5.325   1.198   4.405 -0.9741 -1.4664 -0.7188
   98SAPE  H13Y 9886   5.368   1.037   4.478  2.3725 -0.2806  2.2769
   98SAPE  C314 9887   5.510   1.104   4.323  0.9129  0.0583  0.2873
   98SAPE  H14X 9888   5.599   1.051   4.363 -0.3820 -2.4252  0.0726
   98SAPE  H14Y 9889   5.532   1.202   4.276  0.2645 -1.2311 -2.9269
   98SAPE  C315 9890   5.440   1.021   4.210  0.1485  0.5884  0.0162
   98SAPE  H15X 9891   5.338   1.062   4.189 -0.2967 -1.0393 -1.1335
   98SAPE  H15Y 9892   5.420   0.922   4.255  0.4695  1.3823  2.0041
   98SAPE  C316 9893   5.518   1.012   4.079 -0.6120 -0.1969 -0.2474
   98SAPE  H16X 9894   5.471   0.947   4.002 -0.1831 -1.4946  0.5418
   98SAPE  H16Y 9895   5.622   0.975   4.092  0.0953  2.1476  1.4392
   98SAPE  C317 9896   5.541   1.152   4.014 -0.0650 -0.1469 -0.4080
   98SAPE  H17X 9897   5.596   1.138   3.918  0.4482  0.1605 -0.1621
   98SAPE  H17Y 9898   5.609   1.217   4.073  0.2675 -0.1223 -0.8104
   98SAPE  C318 9899   5.415   1.243   3.985  0.0869 -0.0554  0.4719
   98SAPE  H18X 9900   5.339   1.192   3.921  1.7005 -1.9324 -0.0369
   98SAPE  H18Y 9901   5.461   1.332   3.937  3.2357 -2.7114 -1.8412
   98SAPE  H18Z 9902   5.374   1.263   4.086  0.4629  2.3732  0.2165
   99SAPE     N 9903   5.214   7.053   6.482 -0.0993  0.1739  0.0736
   99SAPE   HN1 9904   5.153   6.990   6.539 -1.2650 -0.9096 -2.2416
   99SAPE   HN2 9905   5.304   7.006   6.463  1.6139  2.8240  1.0682
   99SAPE   HN3 9906   5.227   7.137   6.542 -0.3344  0.3072 -0.0607
   99SAPE   C12 9907   5.137   7.079   6.357  0.1491  0.4777  0.4784
   99SAPE  H12A 9908   5.191   7.155   6.297  0.1874  0.7469  0.8505
   99SAPE  H12B 9909   5.039   7.130   6.371 -0.4902  0.3783 -2.8226
   99SAPE   C11 9910   5.111   6.941   6.283 -0.0568  0.3063 -0.3950
   99SAPE  H11A 9911   5.209   6.907   6.245 -0.5434 -0.8283 -0.6602
   99SAPE  H11B 9912   5.045   6.962   6.196 -2.6749  0.1176  1.4050
   99SAPE     P 9913   5.093   6.705   6.394 -0.0731 -0.1860 -0.0282
   99SAPE   O13 9914   5.224   6.708   6.467  0.0916 -0.2471 -0.6030
   99SAPE   O14 9915   4.979   6.636   6.458 -0.2767 -0.3763  0.3134
   99SAPE   O12 9916   5.052   6.856   6.382 -0.3386  0.1022 -0.0849
   99SAPE   O11 9917   5.107   6.648   6.249 -0.4150 -0.0124 -0.1014
   99SAPE    C1 9918   4.997   6.669   6.156 -0.7416  0.3276 -0.4035
   99SAPE    HA 9919   4.915   6.729   6.201 -0.2497  0.5479  0.2225
   99SAPE    HB 9920   5.040   6.708   6.062 -0.3276  0.7326 -0.0504
   99SAPE    C2 9921   4.927   6.535   6.114  0.1551 -0.5787 -0.3305
   99SAPE    HS 9922   4.880   6.500   6.208 -2.9311  2.9585 -0.3214
   99SAPE   O21 9923   5.021   6.436   6.061  0.0626  0.1404 -0.2812
   99SAPE   C21 9924   4.980   6.309   6.049 -0.2446  0.0391  0.2876
   99SAPE   O22 9925   4.877   6.269   6.105  0.2871 -0.1372  0.0046
   99SAPE   C22 9926   5.097   6.221   5.994  0.5631 -0.3092  0.0642
   99SAPE   H2R 9927   5.175   6.222   6.073  0.8130 -0.4586 -0.1770
   99SAPE   H2S 9928   5.079   6.112   5.983  1.3757 -0.5726  1.1336
   99SAPE    C3 9929   4.814   6.554   6.006  0.0175 -0.3844  0.5080
   99SAPE    HX 9930   4.747   6.638   6.036  0.2093  0.1093 -0.3977
   99SAPE    HY 9931   4.748   6.464   6.004  0.7507 -0.9179 -1.0870
   99SAPE   O31 9932   4.869   6.595   5.877  0.1100 -0.5301 -0.1515
   99SAPE   C31 9933   4.856   6.492   5.788  0.5127  0.4381 -0.8468
   99SAPE   O32 9934   4.835   6.375   5.816  0.4431 -0.4272  0.4147
   99SAPE   C32 9935   4.906   6.545   5.650 -0.4254 -1.6368  0.1482
   99SAPE   H2X 9936   4.901   6.464   5.575 -2.5011  0.6727 -2.4429
   99SAPE   H2Y 9937   5.011   6.579   5.661 -0.8595 -0.0386 -0.3231
   99SAPE   C23 9938   5.160   6.270   5.860 -0.5886 -0.1357  0.2641
   99SAPE   H3R 9939   5.198   6.371   5.887 -1.3319  0.3696 -0.5372
   99SAPE   H3S 9940   5.090   6.277   5.775 -1.5223 -1.1511  0.9199
   99SAPE   C24 9941   5.284   6.187   5.818 -0.5857  0.1953 -0.1410
   99SAPE   H4R 9942   5.245   6.083   5.806 -3.1465  0.6776  2.8063
   99SAPE   H4S 9943   5.353   6.185   5.905  0.2115  1.4815 -0.7034
   99SAPE   C25 9944   5.347   6.240   5.690 -0.0274 -0.5373  0.3141
   99SAPE   H5R 9945   5.410   6.330   5.702  0.5768 -0.7258 -1.2538
   99SAPE   C26 9946   5.341   6.186   5.567  0.2061 -0.6404 -0.0423
   99SAPE   H6R 9947   5.391   6.248   5.492 -0.8682  0.6077  0.2197
   99SAPE   C27 9948   5.276   6.066   5.509  0.1758 -0.0948  0.4023
   99SAPE   H7R 9949   5.291   6.067   5.399  1.7209  0.9755  0.5892
   99SAPE   H7S 9950   5.165   6.067   5.519  0.1047  1.7852 -0.1491
   99SAPE   C28 9951   5.322   5.938   5.575 -0.2292  0.8829  0.3982
   99SAPE   H8R 9952   5.379   5.956   5.667  0.2923  0.0342  0.2460
   99SAPE   C29 9953   5.292   5.808   5.524  1.0158  0.2850  0.1645
   99SAPE   H9R 9954   5.358   5.727   5.558 -0.0463 -1.1285 -1.0230
   99SAPE  C210 9955   5.211   5.781   5.398 -0.2079 -0.4593 -0.2032
   99SAPE  H10R 9956   5.269   5.799   5.306  0.4778 -1.5490 -0.0013
   99SAPE  H10S 9957   5.133   5.860   5.388  0.9393  0.7932  0.4721
   99SAPE  C211 9958   5.148   5.642   5.410  0.4638 -0.2887 -0.0966
   99SAPE  H11R 9959   5.183   5.593   5.502  1.3236 -0.5306 -0.5318
   99SAPE  C212 9960   5.047   5.589   5.338 -0.1293 -0.0946 -1.2876
   99SAPE  H12R 9961   5.002   5.497   5.377 -0.6042 -0.0814 -1.7850
   99SAPE  C213 9962   4.975   5.659   5.231  0.4228 -0.7851  0.5718
   99SAPE  H13R 9963   5.028   5.654   5.134  1.6316  0.1618  1.1441
   99SAPE  H13S 9964   4.976   5.762   5.274 -1.7651 -1.1512  1.6863
   99SAPE  C214 9965   4.832   5.612   5.234  0.4129 -0.1255  0.7187
   99SAPE  H14R 9966   4.788   5.594   5.333 -1.2031 -2.0917 -0.2650
   99SAPE  C215 9967   4.761   5.582   5.115 -0.2961 -0.4395 -0.1513
   99SAPE  H15R 9968   4.655   5.552   5.119 -1.0937  1.9263 -1.6507
   99SAPE  C216 9969   4.808   5.591   4.973 -0.7704 -0.0322  0.0926
   99SAPE  H16R 9970   4.918   5.595   4.968 -0.7474 -1.2934 -1.2439
   99SAPE  H16S 9971   4.760   5.674   4.917 -1.4280  0.5182  1.4344
   99SAPE  C217 9972   4.770   5.464   4.892  0.2007  0.4809  0.0524
   99SAPE  H17R 9973   4.660   5.453   4.888  0.3129 -0.4154 -1.2570
   99SAPE  H17S 9974   4.809   5.373   4.943  1.3415  0.1692 -1.3086
   99SAPE  C218 9975   4.846   5.471   4.761  0.4694  0.2018  0.2146
   99SAPE  H18R 9976   4.956   5.468   4.774  0.4442 -0.9805  0.3164
   99SAPE  H18S 9977   4.811   5.563   4.709 -0.0350 -0.4924 -0.7142
   99SAPE  C219 9978   4.806   5.350   4.676  0.6082  0.5528 -0.0960
   99SAPE  H19R 9979   4.697   5.348   4.656  0.0020 -1.6154  2.8186
   99SAPE  H19S 9980   4.824   5.257   4.733 -2.1655 -0.3883 -0.5968
   99SAPE  C220 9981   4.883   5.349   4.553  0.2493  0.4959  0.6109
   99SAPE  H20R 9982   4.849   5.275   4.477 -1.2972  2.1349 -0.3918
   99SAPE  H20S 9983   4.991   5.335   4.571 -0.0501 -1.2979  1.2484
   99SAPE  H20T 9984   4.876   5.447   4.502  4.1030  0.5150 -0.1583
   99SAPE   C33 9985   4.811   6.664   5.607 -0.6962  1.1412  0.7470
   99SAPE   H3X 9986   4.830   6.751   5.674 -0.4993  2.1760 -0.5962
   99SAPE   H3Y 9987   4.707   6.628   5.619 -0.4673  0.0217 -0.3866
   99SAPE   C34 9988   4.817   6.691   5.459  0.5875 -0.3551 -0.0518
   99SAPE   H4X 9989   4.826   6.597   5.400 -4.0026 -0.1939 -1.4457
   99SAPE   H4Y 9990   4.905   6.756   5.442  1.1678 -1.3922 -1.1438
   99SAPE   C35 9991   4.685   6.764   5.408 -0.0015  0.0972 -0.4752
   99SAPE   H5X 9992   4.675   6.865   5.452  0.7458 -0.0776  0.1057
   99SAPE   H5Y 9993   4.592   6.710   5.433 -1.2498  2.1079 -0.5974
   99SAPE   C36 9994   4.685   6.776   5.255 -0.0544 -0.1419 -0.2321
   99SAPE   H6X 9995   4.685   6.670   5.222  0.5259 -0.3437  0.3867
   99SAPE   H6Y 9996   4.765   6.839   5.211 -0.7046  1.2153  0.4722
   99SAPE   C37 9997   4.558   6.837   5.205  0.0222  0.7019 -1.1483
   99SAPE   H7X 9998   4.562   6.944   5.231  0.0534  0.4122  0.1151
   99SAPE   H7Y 9999   4.470   6.790   5.255  0.1775  1.2744 -0.3312
   99SAPE   C3810000   4.537   6.819   5.055  0.2729 -0.5205 -0.2086
   99SAPE   H8X10001   4.429   6.831   5.030  0.0533 -0.8278  0.5497
   99SAPE   H8Y10002   4.568   6.717   5.023 -0.1685  0.7175 -5.3468
   99SAPE   C3910003   4.604   6.931   4.969 -0.0885 -0.0067  0.5295
   99SAPE   H9X10004   4.713   6.926   4.991 -0.1744 -1.4361  0.7491
   99SAPE   H9Y10005   4.570   7.035   4.984 -2.1704 -0.9884  3.3748
   99SAPE  C31010006   4.595   6.913   4.816  0.0077  0.2819 -0.1689
   99SAPE  H10X10007   4.658   6.987   4.762 -1.9029  1.1327 -1.3289
   99SAPE  H10Y10008   4.493   6.924   4.773  0.6114  0.3750 -1.6315
   99SAPE  C31110009   4.633   6.776   4.773  0.2897  1.2151  0.4018
   99SAPE  H11X10010   4.559   6.704   4.813  1.7510 -0.3730  0.3644
   99SAPE  H11Y10011   4.724   6.738   4.824 -0.4680 -1.2393  0.0250
   99SAPE  C31210012   4.646   6.747   4.622 -0.2856  0.6631  0.2123
   99SAPE  H12X10013   4.564   6.782   4.555  0.4757 -1.4087 -1.9301
   99SAPE  H12Y10014   4.646   6.637   4.610 -2.0392  0.5319  1.0571
   99SAPE  C31310015   4.784   6.805   4.562 -0.1120  0.1853 -0.1843
   99SAPE  H13X10016   4.873   6.759   4.609  0.5797  0.2288 -1.4159
   99SAPE  H13Y10017   4.784   6.914   4.587 -0.4766 -0.0972  1.1644
   99SAPE  C31410018   4.789   6.813   4.409 -0.1765  0.3010  0.7503
   99SAPE  H14X10019   4.888   6.859   4.387  0.6569 -1.4533  0.5995
   99SAPE  H14Y10020   4.718   6.879   4.356  0.5668 -0.2463 -1.0030
   99SAPE  C31510021   4.779   6.674   4.348 -0.2432  0.5197  0.0726
   99SAPE  H15X10022   4.683   6.634   4.389  1.1769 -3.5026 -0.1051
   99SAPE  H15Y10023   4.864   6.610   4.380 -0.0367 -0.3095 -1.9727
   99SAPE  C31610024   4.770   6.681   4.194  0.1663  1.1795  0.1886
   99SAPE  H16X10025   4.857   6.737   4.153  0.3854  1.1459  0.6030
   99SAPE  H16Y10026   4.679   6.739   4.170 -0.3930  0.4643  0.5525
   99SAPE  C31710027   4.776   6.541   4.127  0.3351 -0.0489  0.6640
   99SAPE  H17X10028   4.859   6.484   4.174  0.8953 -0.3862 -0.6933
   99SAPE  H17Y10029   4.803   6.560   4.021  1.3966  3.2132  1.4019
   99SAPE  C31810030   4.644   6.463   4.136  0.3465 -0.4728 -0.6558
   99SAPE  H18X10031   4.656   6.358   4.102 -2.8046 -1.5828  1.2441
   99SAPE  H18Y10032   4.557   6.511   4.085  1.4471 -0.4161 -2.5820
   99SAPE  H18Z10033   4.629   6.448   4.245 -1.9942 -0.6790 -0.9376
  100SAPE     N10034   1.285   5.685   6.233  0.7101 -0.0980  0.0942
  100SAPE   HN110035   1.345   5.718   6.311 -1.2869 -0.0131  1.6465
  100SAPE   HN210036   1.200   5.650   6.281  0.4614  1.0507  0.5065
  100SAPE   HN310037   1.339   5.604   6.193  2.1874  0.8246  0.1275
  100SAPE   C1210038   1.251   5.791   6.138  0.1435  0.1583  0.8191
  100SAPE  H12A10039   1.186   5.868   6.184  0.4934  0.8324  0.2049
  100SAPE  H12B10040   1.207   5.744   6.047  1.0763 -0.4075  0.6406
  100SAPE   C1110041   1.373   5.860   6.082  0.3185  0.0388 -1.0246
  100SAPE  H11A10042   1.424   5.910   6.167  1.5472 -2.2576 -0.3171
  100SAPE  H11B10043   1.327   5.935   6.014 -1.0547 -0.7588 -1.0100
  100SAPE     P10044   1.425   5.704   5.873 -0.0333  0.1275 -0.2207
  100SAPE   O1310045   1.548   5.675   5.794  0.3812 -0.5664  0.1351
  100SAPE   O1410046   1.339   5.592   5.907  0.4821  0.5381 -0.0323
  100SAPE   O1210047   1.462   5.773   6.013  0.1370 -0.6032  1.3437
  100SAPE   O1110048   1.336   5.797   5.787 -0.2545  0.0057  0.0695
  100SAPE    C110049   1.391   5.917   5.738 -0.3250 -0.0251 -0.8809
  100SAPE    HA10050   1.455   5.958   5.818 -0.0674 -2.4876  0.2855
  100SAPE    HB10051   1.447   5.893   5.645  1.6246 -1.0331  0.4886
  100SAPE    C210052   1.274   6.021   5.713  0.0334  0.3606  0.0482
  100SAPE    HS10053   1.202   6.010   5.798  0.2028 -2.0709 -0.0554
  100SAPE   O2110054   1.214   5.988   5.591 -0.0889  0.3373 -0.3327
  100SAPE   C2110055   1.103   6.042   5.566 -1.1582 -0.4871  0.1206
  100SAPE   O2210056   1.045   6.125   5.637 -0.2205 -0.3368  0.3842
  100SAPE   C2210057   1.066   5.989   5.431  0.1231 -0.1169  0.3159
  100SAPE   H2R10058   1.161   5.962   5.380  0.7935  1.0375  0.9103
  100SAPE   H2S10059   1.010   5.893   5.437  0.4174 -0.2077  2.4810
  100SAPE    C310060   1.334   6.158   5.701  0.0767  0.7582 -0.9666
  100SAPE    HX10061   1.379   6.188   5.798  0.5243 -0.0452 -0.9172
  100SAPE    HY10062   1.253   6.233   5.687 -0.0389  0.8337  0.0578
  100SAPE   O3110063   1.437   6.162   5.597  0.3545 -0.5631 -0.5610
  100SAPE   C3110064   1.409   6.224   5.483 -0.4563  0.5586  0.3248
  100SAPE   O3210065   1.312   6.295   5.461 -0.0770 -0.2945 -0.4018
  100SAPE   C3210066   1.500   6.168   5.371  0.1924  0.5962  0.1482
  100SAPE   H2X10067   1.508   6.057   5.367 -1.5613  0.4686 -2.3518
  100SAPE   H2Y10068   1.596   6.220   5.392 -0.0969  1.5194 -0.7445
  100SAPE   C2310069   0.998   6.100   5.354  0.0787 -0.6451 -0.2924
  100SAPE   H3R10070   1.079   6.175   5.364  0.7945 -1.3271 -0.8302
  100SAPE   H3S10071   0.902   6.134   5.398  0.2628  0.1317 -0.4790
  100SAPE   C2410072   0.982   6.065   5.209 -0.4829 -0.3321  0.7477
  100SAPE   H4R10073   0.946   6.159   5.162 -0.1816  0.1169  1.3903
  100SAPE   H4S10074   0.901   5.991   5.192  0.7166 -1.3200 -0.8736
  100SAPE   C2510075   1.108   6.027   5.134  0.2771  0.8171 -0.2378
  100SAPE   H5R10076   1.177   6.108   5.106  1.1299  0.9062  1.9412
  100SAPE   C2610077   1.152   5.900   5.104  0.5723  0.2173 -0.2918
  100SAPE   H6R10078   1.253   5.883   5.062  0.4734  0.1628 -0.5108
  100SAPE   C2710079   1.073   5.771   5.122 -0.2167  0.1892 -0.2388
  100SAPE   H7R10080   0.971   5.791   5.162  0.2157  1.2657  0.3675
  100SAPE   H7S10081   1.130   5.717   5.201  0.9261  1.2648 -0.2895
  100SAPE   C2810082   1.065   5.698   4.992 -0.3160  0.0739 -0.4421
  100SAPE   H8R10083   1.167   5.675   4.956 -0.1026 -2.2608  1.4156
  100SAPE   C2910084   0.974   5.633   4.926  0.0910  0.9551 -0.0240
  100SAPE   H9R10085   1.007   5.580   4.835  1.0261 -1.2268  1.5027
  100SAPE  C21010086   0.831   5.600   4.968 -0.1437  0.6301 -0.4181
  100SAPE  H10R10087   0.779   5.685   5.018 -2.9332 -1.5256  0.6249
  100SAPE  H10S10088   0.850   5.524   5.047 -1.9396 -0.0134 -0.5350
  100SAPE  C21110089   0.741   5.545   4.859 -0.5405 -0.1931 -0.7427
  100SAPE  H11R10090   0.744   5.436   4.843 -1.2594 -0.4731  0.8696
  100SAPE  C21210091   0.656   5.623   4.789  0.3144  0.0957 -0.9592
  100SAPE  H12R10092   0.599   5.576   4.708 -0.4507  0.6207 -0.7431
  100SAPE  C21310093   0.652   5.773   4.808 -1.0515 -1.0763 -0.0224
  100SAPE  H13R10094   0.731   5.809   4.877 -0.4390  1.3529 -1.8659
  100SAPE  H13S10095   0.562   5.818   4.856 -0.9903  0.2012 -1.0314
  100SAPE  C21410096   0.670   5.849   4.674  0.2494  0.5948 -0.3595
  100SAPE  H14R10097   0.620   5.805   4.586  1.2606  2.5450 -2.0027
  100SAPE  C21510098   0.772   5.925   4.640  0.0600 -0.6556  0.3790
  100SAPE  H15R10099   0.776   5.969   4.540 -1.5133 -0.1244  0.5182
  100SAPE  C21610100   0.871   5.978   4.734 -0.5910 -0.2352 -1.3030
  100SAPE  H16R10101   0.961   5.914   4.747 -1.1858 -0.4512  3.6212
  100SAPE  H16S10102   0.826   5.980   4.836 -1.1812 -0.7186 -1.5448
  100SAPE  C21710103   0.921   6.120   4.694  0.4156 -0.5165  0.0439
  100SAPE  H17R10104   0.933   6.128   4.584 -0.4714 -1.7720 -0.1624
  100SAPE  H17S10105   1.021   6.147   4.735 -0.0233 -1.0189  1.5002
  100SAPE  C21810106   0.826   6.236   4.731  0.1115 -0.5505 -0.5062
  100SAPE  H18R10107   0.723   6.209   4.698  0.1797 -1.2922 -0.1481
  100SAPE  H18S10108   0.863   6.325   4.677  0.9415 -1.3282 -1.2481
  100SAPE  C21910109   0.831   6.276   4.880  0.0260 -0.5072 -0.4364
  100SAPE  H19R10110   0.934   6.317   4.892 -1.1123  2.1658  0.8785
  100SAPE  H19S10111   0.823   6.185   4.944  1.0199  0.8695  1.7506
  100SAPE  C22010112   0.735   6.383   4.919 -0.0198 -0.4183 -0.0192
  100SAPE  H20R10113   0.741   6.463   4.842 -0.4266 -1.5634 -1.2727
  100SAPE  H20S10114   0.764   6.423   5.019  1.1145  2.4429 -1.3849
  100SAPE  H20T10115   0.632   6.343   4.919 -0.4170  0.5692 -0.8141
  100SAPE   C3310116   1.451   6.225   5.236  0.4165 -0.2270 -0.7142
  100SAPE   H3X10117   1.433   6.335   5.244  1.2805 -0.1447  0.3389
  100SAPE   H3Y10118   1.358   6.184   5.192  0.4537  0.4822 -1.4733
  100SAPE   C3410119   1.556   6.201   5.123 -0.0851 -0.0607  0.4845
  100SAPE   H4X10120   1.554   6.091   5.105 -0.5769  0.3660 -2.6600
  100SAPE   H4Y10121   1.656   6.221   5.166  0.0026  0.4501  0.0519
  100SAPE   C3510122   1.533   6.280   4.992 -0.1926 -0.6341  0.0194
  100SAPE   H5X10123   1.530   6.389   5.014 -0.3845 -0.6645  0.1476
  100SAPE   H5Y10124   1.435   6.250   4.950  0.4826 -1.6654 -0.8557
  100SAPE   C3610125   1.646   6.260   4.891  0.3025 -0.6689 -0.5504
  100SAPE   H6X10126   1.682   6.156   4.905  2.5109  0.1456  0.3784
  100SAPE   H6Y10127   1.738   6.311   4.929  0.7023 -1.9575  0.3017
  100SAPE   C3710128   1.609   6.282   4.743  0.2625 -0.3684 -0.3445
  100SAPE   H7X10129   1.699   6.263   4.680  1.0872  0.9671  0.3864
  100SAPE   H7Y10130   1.587   6.390   4.727  0.9188 -0.4650 -2.1337
  100SAPE   C3810131   1.489   6.203   4.692 -0.3132  1.0008 -0.5381
  100SAPE   H8X10132   1.391   6.250   4.717 -2.3387 -2.0661 -2.0055
  100SAPE   H8Y10133   1.492   6.105   4.745 -0.0192 -0.5182 -3.2087
  100SAPE   C3910134   1.492   6.169   4.545  0.0405  0.6550  0.9335
  100SAPE   H9X10135   1.574   6.101   4.515 -0.7733  0.4535 -1.0653
  100SAPE   H9Y10136   1.500   6.257   4.477 -3.4051  0.9811  0.7582
  100SAPE  C31010137   1.353   6.106   4.502  0.2591  0.8252 -0.2783
  100SAPE  H10X10138   1.356   6.083   4.394 -1.0294  1.1548 -0.3934
  100SAPE  H10Y10139   1.276   6.176   4.541  2.9546  3.5216  0.6010
  100SAPE  C31110140   1.322   5.962   4.548 -0.0468  0.8346  0.3890
  100SAPE  H11X10141   1.318   5.957   4.659 -0.6723  1.6883  0.4151
  100SAPE  H11Y10142   1.404   5.896   4.512 -1.5278 -1.0292  0.2858
  100SAPE  C31210143   1.189   5.908   4.483 -0.2890  0.2690  0.7332
  100SAPE  H12X10144   1.208   5.887   4.375 -0.2961  0.8610  0.6131
  100SAPE  H12Y10145   1.115   5.990   4.488 -1.0017 -0.3413  0.4194
  100SAPE  C31310146   1.127   5.777   4.532 -0.0973  0.3382 -0.0284
  100SAPE  H13X10147   1.092   5.797   4.635  0.1403  0.8051 -0.0315
  100SAPE  H13Y10148   1.205   5.698   4.527 -0.6310 -0.1322 -1.8849
  100SAPE  C31410149   1.021   5.730   4.441  0.8353 -0.1158  0.0429
  100SAPE  H14X10150   1.041   5.740   4.332 -0.5707 -1.4858 -0.3796
  100SAPE  H14Y10151   0.925   5.784   4.459  0.6691  0.0262 -1.1671
  100SAPE  C31510152   0.977   5.583   4.470 -0.0861 -0.1298 -0.3121
  100SAPE  H15X10153   0.874   5.572   4.429 -0.4684 -1.3600  0.9127
  100SAPE  H15Y10154   0.962   5.566   4.578 -0.3921  2.3720  0.0961
  100SAPE  C31610155   1.066   5.465   4.425 -0.0936 -0.2611 -0.4146
  100SAPE  H16X10156   1.163   5.446   4.476  0.8189  1.5087 -1.4244
  100SAPE  H16Y10157   1.090   5.484   4.319  1.8458  2.9695  0.4662
  100SAPE  C31710158   0.994   5.334   4.440 -0.0459  0.2950 -0.2176
  100SAPE  H17X10159   0.885   5.345   4.425 -0.2279  3.4740  2.2960
  100SAPE  H17Y10160   0.998   5.313   4.549 -0.0438  3.1270  0.4183
  100SAPE  C31810161   1.050   5.216   4.356  0.4171  0.3223 -0.1638
  100SAPE  H18X10162   1.035   5.231   4.247 -2.1840  0.6570  0.1822
  100SAPE  H18Y10163   1.002   5.121   4.385  1.7315 -0.4164 -0.3256
  100SAPE  H18Z10164   1.159   5.203   4.374  0.2878 -0.9399 -0.2328
  101SAPE     N10165   1.315   1.259   6.588  0.1644 -0.1443  0.3037
  101SAPE   HN110166   1.266   1.286   6.501 -0.5892  0.1787  0.8113
  101SAPE   HN210167   1.286   1.322   6.666  2.6559  0.5710  0.7431
  101SAPE   HN310168   1.414   1.285   6.568 -0.3245  0.2463 -1.8350
  101SAPE   C1210169   1.291   1.117   6.619 -0.0103 -0.4772 -0.3935
  101SAPE  H12A10170   1.364   1.088   6.698 -1.0304 -2.1625 -0.0242
  101SAPE  H12B10171   1.316   1.056   6.529  1.5838 -0.7990  0.2220
  101SAPE   C1110172   1.147   1.083   6.666 -0.1800  0.4469 -0.5748
  101SAPE  H11A10173   1.135   1.139   6.762  0.7493  0.2654 -0.3415
  101SAPE  H11B10174   1.145   0.975   6.692  1.9587  0.0071 -1.9812
  101SAPE     P10175   0.943   1.218   6.585  0.0496 -0.4495 -0.1252
  101SAPE   O1310176   0.826   1.157   6.653  0.2102  0.4090 -0.0965
  101SAPE   O1410177   0.992   1.341   6.650 -0.2352 -0.3806  0.2079
  101SAPE   O1210178   1.051   1.106   6.567 -0.1378  1.0135 -0.3725
  101SAPE   O1110179   0.904   1.256   6.433 -0.3396  0.5148 -0.4349
  101SAPE    C110180   0.834   1.165   6.350  0.1984  0.4720 -0.1019
  101SAPE    HA10181   0.873   1.062   6.343 -0.3429  0.1176  1.6102
  101SAPE    HB10182   0.728   1.165   6.385  0.6264  0.7945  1.2479
  101SAPE    C210183   0.825   1.214   6.206  0.1683 -0.8077  0.4083
  101SAPE    HS10184   0.792   1.320   6.214  0.6790 -0.7421  1.7620
  101SAPE   O2110185   0.733   1.130   6.134  0.2432 -0.0483  0.0807
  101SAPE   C2110186   0.599   1.154   6.159  0.0442 -0.0102 -0.1257
  101SAPE   O2210187   0.560   1.243   6.236 -0.2776  0.0772  0.3637
  101SAPE   C2210188   0.510   1.053   6.089  0.5216  0.2667  0.6593
  101SAPE   H2R10189   0.552   1.048   5.987  0.0825 -1.2292  0.5263
  101SAPE   H2S10190   0.525   0.959   6.147  1.9967 -0.4972 -0.8736
  101SAPE    C310191   0.958   1.221   6.127  0.1103  1.0058 -0.2957
  101SAPE    HX10192   0.984   1.115   6.113 -1.1084  0.4323  1.4297
  101SAPE    HY10193   1.040   1.259   6.191  0.3164 -0.6194  0.4322
  101SAPE   O3110194   0.934   1.295   6.006 -0.2501  0.3685  0.1937
  101SAPE   C3110195   0.950   1.422   6.012 -0.3093 -0.3708  0.4335
  101SAPE   O3210196   0.977   1.491   6.107  0.6668  0.4185 -0.3706
  101SAPE   C3210197   0.921   1.481   5.869  0.3361 -0.6106 -0.0450
  101SAPE   H2X10198   0.837   1.428   5.819  0.0514  1.4626 -1.9530
  101SAPE   H2Y10199   1.012   1.463   5.809  1.1208  0.9004  0.6295
  101SAPE   C2310200   0.357   1.083   6.087  0.1986 -0.6809  0.5022
  101SAPE   H3R10201   0.319   1.104   6.190  0.2215  3.4894 -0.1675
  101SAPE   H3S10202   0.305   0.994   6.044 -0.6407 -1.5569  3.1136
  101SAPE   C2410203   0.319   1.200   5.994 -0.4416  0.2063  0.6029
  101SAPE   H4R10204   0.381   1.290   6.013  1.7444 -0.8248 -1.1287
  101SAPE   H4S10205   0.212   1.209   6.020 -0.8911 -2.1348 -0.1830
  101SAPE   C2510206   0.336   1.164   5.851  0.2556  0.1878 -0.5869
  101SAPE   H5R10207   0.256   1.106   5.802 -0.4491 -0.6834  1.4660
  101SAPE   C2610208   0.434   1.211   5.769 -0.1068  0.3039 -0.0875
  101SAPE   H6R10209   0.429   1.167   5.668 -1.6403  0.3138 -0.0503
  101SAPE   C2710210   0.561   1.283   5.812 -0.0555  0.4940  0.1544
  101SAPE   H7R10211   0.627   1.275   5.723 -0.1472 -0.6250  0.1695
  101SAPE   H7S10212   0.617   1.248   5.901 -1.1360  0.6033  0.9055
  101SAPE   C2810213   0.537   1.432   5.833  0.2853 -0.5387 -0.7941
  101SAPE   H8R10214   0.485   1.452   5.928 -1.5495  0.0973 -1.8761
  101SAPE   C2910215   0.562   1.531   5.751  1.1470  0.1719  0.0793
  101SAPE   H9R10216   0.556   1.637   5.778  1.3287  1.2680 -3.6489
  101SAPE  C21010217   0.617   1.511   5.612 -0.1569 -0.3685  0.1308
  101SAPE  H10R10218   0.567   1.433   5.551 -0.2655  0.4288 -0.8309
  101SAPE  H10S10219   0.728   1.503   5.620  0.0656  2.8999  2.2670
  101SAPE  C21110220   0.609   1.640   5.536 -0.0192 -0.0729 -0.1411
  101SAPE  H11R10221   0.511   1.687   5.552 -0.5220 -0.4423 -1.9329
  101SAPE  C21210222   0.704   1.703   5.457 -0.9573  0.0191 -0.7578
  101SAPE  H12R10223   0.693   1.802   5.411  0.7640 -0.0857 -1.4455
  101SAPE  C21310224   0.845   1.648   5.427  0.5833 -0.3160  0.0055
  101SAPE  H13R10225   0.832   1.589   5.334  0.1650  0.5747 -0.5088
  101SAPE  H13S10226   0.880   1.577   5.505 -0.3450  0.2302  0.9506
  101SAPE  C21410227   0.953   1.746   5.407  0.0506 -0.8931  0.2921
  101SAPE  H14R10228   1.003   1.771   5.502 -2.3543 -1.2568  1.7241
  101SAPE  C21510229   0.984   1.804   5.291  0.0598 -0.4335  0.3699
  101SAPE  H15R10230   1.078   1.860   5.292  0.0538 -0.4036  2.5698
  101SAPE  C21610231   0.925   1.795   5.154  0.0165  0.1377  0.6197
  101SAPE  H16R10232   0.867   1.888   5.130 -2.3203 -2.0161 -3.0598
  101SAPE  H16S10233   0.866   1.701   5.147  2.0511 -1.0749 -1.7565
  101SAPE  C21710234   1.042   1.800   5.052 -0.1733  0.2848 -0.0394
  101SAPE  H17R10235   1.142   1.781   5.095  0.1003  1.1758 -0.2667
  101SAPE  H17S10236   1.050   1.901   5.006  0.4650  0.2366 -0.0399
  101SAPE  C21810237   1.026   1.690   4.947  0.1120  0.5189  0.9689
  101SAPE  H18R10238   0.918   1.674   4.926 -0.1325 -0.0944  2.5526
  101SAPE  H18S10239   1.068   1.593   4.980 -0.5254  0.4833  1.7241
  101SAPE  C21910240   1.089   1.731   4.810  0.4480 -0.1330 -0.8482
  101SAPE  H19R10241   1.200   1.740   4.818  0.4286  1.8504 -2.0667
  101SAPE  H19S10242   1.055   1.835   4.790 -0.4301 -0.5939 -1.8514
  101SAPE  C22010243   1.058   1.628   4.695 -0.1080  0.2760  0.2741
  101SAPE  H20R10244   1.110   1.663   4.603 -0.9925  0.3993 -0.1888
  101SAPE  H20S10245   0.951   1.620   4.668  0.2938 -1.7557 -0.9044
  101SAPE  H20T10246   1.087   1.525   4.724 -0.7204  0.3238  1.0636
  101SAPE   C3310247   0.888   1.636   5.870 -0.0330  0.6499  0.4540
  101SAPE   H3X10248   0.803   1.645   5.942  0.4017  1.9351  0.8333
  101SAPE   H3Y10249   0.860   1.668   5.768 -1.4752  1.4296  1.0612
  101SAPE   C3410250   0.991   1.729   5.920 -0.4076 -0.3379 -0.2064
  101SAPE   H4X10251   1.043   1.683   6.008 -0.7031 -1.2913 -0.5202
  101SAPE   H4Y10252   0.937   1.817   5.959 -0.2487 -0.1941 -0.3116
  101SAPE   C3510253   1.099   1.774   5.821  0.6462  0.6543 -0.2252
  101SAPE   H5X10254   1.157   1.856   5.867 -1.1584  1.0401  1.4668
  101SAPE   H5Y10255   1.048   1.814   5.731  0.1725  1.9156  0.5905
  101SAPE   C3610256   1.197   1.660   5.783  0.3235 -0.9592 -0.2461
  101SAPE   H6X10257   1.159   1.586   5.709 -5.3151  0.9059  0.3280
  101SAPE   H6Y10258   1.210   1.600   5.875 -0.8769 -1.5374 -0.4363
  101SAPE   C3710259   1.332   1.719   5.726  0.6044  0.2065 -0.0667
  101SAPE   H7X10260   1.406   1.637   5.734 -0.3738 -0.6597  0.2805
  101SAPE   H7Y10261   1.371   1.804   5.786  1.4251 -0.4859  0.3955
  101SAPE   C3810262   1.312   1.759   5.571  0.0510 -0.1837 -0.7058
  101SAPE   H8X10263   1.250   1.850   5.583  1.1581  0.3631  1.1884
  101SAPE   H8Y10264   1.247   1.685   5.517 -0.9331  0.0272  0.1663
  101SAPE   C3910265   1.445   1.797   5.503 -0.1232  0.1222 -0.2991
  101SAPE   H9X10266   1.530   1.726   5.516 -0.7383 -0.7184 -0.8474
  101SAPE   H9Y10267   1.471   1.892   5.555  0.4870 -1.3290  2.2362
  101SAPE  C31010268   1.432   1.833   5.349  0.1414  0.0463  0.8852
  101SAPE  H10X10269   1.519   1.897   5.321 -1.6984  2.0235 -0.5786
  101SAPE  H10Y10270   1.349   1.903   5.327  0.9232  0.3670 -1.2460
  101SAPE  C31110271   1.437   1.706   5.262  0.3014  0.1212 -0.0411
  101SAPE  H11X10272   1.333   1.670   5.249 -0.2130  1.7193 -0.6003
  101SAPE  H11Y10273   1.497   1.624   5.307 -0.9995 -0.1609  1.2676
  101SAPE  C31210274   1.489   1.735   5.123 -0.2024  0.3697  0.1022
  101SAPE  H12X10275   1.588   1.783   5.138  0.1975 -0.1916 -0.6905
  101SAPE  H12Y10276   1.430   1.812   5.069  1.3709  1.1024 -0.6398
  101SAPE  C31310277   1.517   1.609   5.045 -0.4111  0.2849 -0.3290
  101SAPE  H13X10278   1.421   1.555   5.029 -0.5486 -0.0293  1.3174
  101SAPE  H13Y10279   1.582   1.553   5.116 -0.9289  0.5138  0.3362
  101SAPE  C31410280   1.598   1.617   4.908 -0.2740 -0.3373  0.2117
  101SAPE  H14X10281   1.610   1.513   4.868  1.8958 -0.4658  1.0449
  101SAPE  H14Y10282   1.694   1.669   4.929 -0.1928  0.1613 -1.2444
  101SAPE  C31510283   1.521   1.701   4.803 -0.7609 -0.0232 -0.3269
  101SAPE  H15X10284   1.508   1.802   4.847 -0.3980  0.1131 -0.5232
  101SAPE  H15Y10285   1.425   1.657   4.770  0.4922 -1.8512 -1.8015
  101SAPE  C31610286   1.600   1.726   4.666  0.2072  0.5131 -0.3456
  101SAPE  H16X10287   1.625   1.632   4.612 -1.9690  0.0791 -0.6840
  101SAPE  H16Y10288   1.696   1.779   4.687  0.3457  1.1412 -2.3175
  101SAPE  C31710289   1.514   1.813   4.569 -0.2666 -0.1462 -0.4448
  101SAPE  H17X10290   1.504   1.913   4.616  1.0415 -0.4015  0.4596
  101SAPE  H17Y10291   1.418   1.766   4.540  1.2100 -2.6712 -1.5693
  101SAPE  C31810292   1.595   1.847   4.443 -0.0405 -0.1690 -0.3987
  101SAPE  H18X10293   1.536   1.916   4.379 -0.9233 -0.2325  0.3225
  101SAPE  H18Y10294   1.621   1.749   4.398  0.0477 -1.3889  2.1190
  101SAPE  H18Z10295   1.692   1.898   4.461 -0.6710  0.7131  0.6062
  102SAPE     N10296   6.523   1.171   6.274 -0.7946  0.2299 -0.5731
  102SAPE   HN110297   6.536   1.258   6.330 -0.1021 -0.5211  0.4676
  102SAPE   HN210298   6.497   1.201   6.178  0.6810 -0.2101 -1.1323
  102SAPE   HN310299   6.441   1.126   6.321 -1.1921  1.2698 -0.2334
  102SAPE   C1210300   6.647   1.098   6.289  0.3129 -0.0803  0.3759
  102SAPE  H12A10301   6.690   1.092   6.186 -0.5830  3.5061 -0.3241
  102SAPE  H12B10302   6.614   0.997   6.322  1.6572 -0.5184  0.4157
  102SAPE   C1110303   6.741   1.168   6.388  0.2027 -0.2883 -0.1970
  102SAPE  H11A10304   6.769   1.274   6.368 -1.1607  0.1310  0.0179
  102SAPE  H11B10305   6.834   1.108   6.378 -1.5594 -3.0058 -1.3624
  102SAPE     P10306   6.780   1.106   6.643 -0.6167 -0.7965 -0.2916
  102SAPE   O1310307   6.890   1.202   6.670  0.3125  0.0963 -0.0113
  102SAPE   O1410308   6.698   1.081   6.757 -0.1060 -0.6438 -0.1394
  102SAPE   O1210309   6.692   1.166   6.525 -0.0386  0.7230  0.0491
  102SAPE   O1110310   6.844   0.980   6.582 -0.3010 -0.4996 -0.2350
  102SAPE    C110311   6.765   0.876   6.540  0.4684  0.1720 -0.1370
  102SAPE    HA10312   6.744   0.808   6.624  1.7595 -0.7912 -0.5627
  102SAPE    HB10313   6.667   0.915   6.504  1.4096  0.0358 -3.1986
  102SAPE    C210314   6.830   0.784   6.441  0.4121  0.7124  0.2291
  102SAPE    HS10315   6.926   0.746   6.481 -1.3753 -2.4271  1.9230
  102SAPE   O2110316   6.836   0.845   6.312  0.2347 -0.0482 -0.7407
  102SAPE   C2110317   6.911   0.772   6.226  0.8659 -0.0736 -0.3852
  102SAPE   O2210318   6.977   0.671   6.258 -0.7321 -0.7848 -0.5977
  102SAPE   C2210319   6.886   0.816   6.079 -0.0822 -0.8932  0.3969
  102SAPE   H2R10320   6.791   0.759   6.070 -1.3033  0.7830  1.9410
  102SAPE   H2S10321   6.856   0.922   6.063  0.3687 -1.1426 -2.6442
  102SAPE    C310322   6.732   0.660   6.435  0.3683  0.7616  0.2312
  102SAPE    HX10323   6.727   0.620   6.538  1.0730 -1.7574 -0.6500
  102SAPE    HY10324   6.774   0.574   6.378 -3.2355 -0.9992 -0.0228
  102SAPE   O3110325   6.596   0.703   6.390 -0.1124  0.3864  0.3455
  102SAPE   C3110326   6.568   0.649   6.265 -0.2852 -1.4554 -0.1544
  102SAPE   O3210327   6.646   0.587   6.200  0.9216 -0.0816  0.1004
  102SAPE   C3210328   6.433   0.695   6.218  0.1798  0.0402  0.0258
  102SAPE   H2X10329   6.402   0.792   6.262  1.9478  0.3853  0.5879
  102SAPE   H2Y10330   6.357   0.618   6.245 -2.1248  2.0003 -0.5506
  102SAPE   C2310331   6.993   0.761   5.986  0.3450  0.3151  0.0971
  102SAPE   H3R10332   6.965   0.743   5.880  1.3072 -0.4464 -0.0388
  102SAPE   H3S10333   7.041   0.666   6.017  0.1433 -0.3338 -1.5185
  102SAPE   C2410334   7.107   0.855   5.957 -0.1468 -0.3192 -0.6871
  102SAPE   H4R10335   7.179   0.802   5.891  0.5500 -0.7763  0.4156
  102SAPE   H4S10336   7.169   0.872   6.048  0.5660 -1.0978 -1.0191
  102SAPE   C2510337   7.062   0.987   5.893 -0.1007 -0.4435  0.1035
  102SAPE   H5R10338   6.970   1.034   5.931  0.9095  3.1545 -1.4429
  102SAPE   C2610339   7.090   1.019   5.761  0.0251  0.2183 -0.5991
  102SAPE   H6R10340   7.045   1.110   5.718 -1.6156 -0.4488 -0.3766
  102SAPE   C2710341   7.179   0.951   5.663 -0.3989  0.0787  0.3233
  102SAPE   H7R10342   7.258   0.888   5.709  0.3463 -0.4565 -1.6024
  102SAPE   H7S10343   7.236   1.023   5.602 -0.4023  0.8721  1.2214
  102SAPE   C2810344   7.093   0.849   5.591 -0.0268 -0.1679  0.2134
  102SAPE   H8R10345   7.023   0.799   5.660 -0.5347  2.4110  1.7358
  102SAPE   C2910346   7.096   0.816   5.464 -0.2727  0.2892  0.0320
  102SAPE   H9R10347   7.021   0.748   5.420  0.2415 -0.4756  0.3242
  102SAPE  C21010348   7.175   0.884   5.361 -0.4281  0.4018 -0.3153
  102SAPE  H10R10349   7.273   0.901   5.410 -0.8778 -0.9946  1.1641
  102SAPE  H10S10350   7.139   0.988   5.343  0.1125  0.5540 -0.5278
  102SAPE  C21110351   7.184   0.821   5.225  0.5321 -0.1847 -0.2315
  102SAPE  H11R10352   7.284   0.822   5.179  0.8906  2.1595  0.4846
  102SAPE  C21210353   7.080   0.820   5.137 -0.4764  0.0420 -0.5479
  102SAPE  H12R10354   7.082   0.749   5.054 -1.8640  0.6204 -1.1049
  102SAPE  C21310355   6.943   0.868   5.173 -0.5350 -1.1759  0.5985
  102SAPE  H13R10356   6.914   0.954   5.109 -2.4001 -1.2629  1.2596
  102SAPE  H13S10357   6.929   0.927   5.267 -0.5454 -0.0184 -0.1099
  102SAPE  C21410358   6.844   0.761   5.174 -0.0358  0.3564 -0.8433
  102SAPE  H14R10359   6.824   0.719   5.274  1.5328  2.9778  0.6837
  102SAPE  C21510360   6.763   0.719   5.077  0.1291 -0.4866  0.0045
  102SAPE  H15R10361   6.720   0.621   5.099  0.9219 -0.6637  0.8113
  102SAPE  C21610362   6.770   0.761   4.926 -0.3523  0.5048 -0.6349
  102SAPE  H16R10363   6.836   0.689   4.873 -0.7765 -0.5031  0.1566
  102SAPE  H16S10364   6.806   0.866   4.930 -1.0913  0.7436  1.9821
  102SAPE  C21710365   6.637   0.751   4.855  0.1273 -0.0681 -0.1298
  102SAPE  H17R10366   6.590   0.849   4.878  1.9144  1.4175 -2.2601
  102SAPE  H17S10367   6.572   0.670   4.894 -1.9215  1.7401  0.4063
  102SAPE  C21810368   6.658   0.735   4.704 -0.4301 -0.4413  0.9072
  102SAPE  H18R10369   6.554   0.740   4.664 -0.7627 -0.5073  1.7361
  102SAPE  H18S10370   6.693   0.632   4.683  1.4464 -0.2071  2.5871
  102SAPE  C21910371   6.756   0.831   4.639 -0.7667  0.0923  0.7087
  102SAPE  H19R10372   6.854   0.806   4.686 -0.1009  0.6372 -0.3454
  102SAPE  H19S10373   6.735   0.937   4.664  1.1634  0.4004  1.1835
  102SAPE  C22010374   6.761   0.811   4.486 -0.6534  0.0356  0.2706
  102SAPE  H20R10375   6.857   0.861   4.462  0.4424 -0.7679  2.6511
  102SAPE  H20S10376   6.676   0.860   4.434 -1.6746 -0.5633  1.3174
  102SAPE  H20T10377   6.777   0.708   4.448 -2.1453 -0.8292  1.8555
  102SAPE   C3310378   6.422   0.725   6.062  0.8416  0.9581 -0.1399
  102SAPE   H3X10379   6.317   0.745   6.029  1.4957  1.6825 -1.9279
  102SAPE   H3Y10380   6.445   0.634   6.002  0.7415 -0.0296  1.2877
  102SAPE   C3410381   6.503   0.837   6.011 -0.7959  0.3586  0.1288
  102SAPE   H4X10382   6.597   0.852   6.068  0.3965 -2.9882 -0.7172
  102SAPE   H4Y10383   6.441   0.928   6.025  1.0858  1.7669 -0.3065
  102SAPE   C3510384   6.537   0.824   5.863 -0.1035  0.3424  0.4738
  102SAPE   H5X10385   6.438   0.803   5.818 -0.6003 -0.0155  1.6929
  102SAPE   H5Y10386   6.607   0.740   5.843  0.4673  1.2000 -1.3480
  102SAPE   C3610387   6.591   0.952   5.799  0.3040  0.2228 -0.0924
  102SAPE   H6X10388   6.697   0.975   5.825 -0.0723  0.3677  1.3982
  102SAPE   H6Y10389   6.521   1.038   5.799 -0.7257 -0.5952 -0.0033
  102SAPE   C3710390   6.595   0.911   5.645 -0.2081 -0.1155  0.1280
  102SAPE   H7X10391   6.496   0.883   5.604 -1.4913 -1.2957  3.6722
  102SAPE   H7Y10392   6.667   0.827   5.642  1.1394  0.9653  0.9658
  102SAPE   C3810393   6.650   1.014   5.546  0.3715  0.2567 -1.6262
  102SAPE   H8X10394   6.761   1.014   5.552  0.3143  0.2610 -0.2805
  102SAPE   H8Y10395   6.615   1.114   5.579  3.3623  0.4048  1.5832
  102SAPE   C3910396   6.594   1.004   5.404  0.4389  0.6127  0.9018
  102SAPE   H9X10397   6.492   1.047   5.400 -0.6871 -1.6920  2.4268
  102SAPE   H9Y10398   6.592   0.901   5.362 -1.6423  1.5593 -1.5404
  102SAPE  C31010399   6.677   1.094   5.304 -0.0156  0.0823  1.0820
  102SAPE  H10X10400   6.784   1.063   5.304 -0.2726 -1.1772 -1.7484
  102SAPE  H10Y10401   6.669   1.203   5.319 -1.2988  0.1688 -0.0364
  102SAPE  C31110402   6.616   1.075   5.159 -0.4139 -0.0375 -0.0041
  102SAPE  H11X10403   6.506   1.091   5.154 -0.2377  2.1114  1.6977
  102SAPE  H11Y10404   6.627   0.968   5.132 -0.3073  0.5950 -2.8192
  102SAPE  C31210405   6.688   1.169   5.065  0.1953  0.4759  0.2554
  102SAPE  H12X10406   6.799   1.161   5.066  0.1579 -0.1424  1.7989
  102SAPE  H12Y10407   6.649   1.270   5.090 -2.6049  0.0163 -1.8288
  102SAPE  C31310408   6.647   1.144   4.924  0.4563  0.2261  0.0728
  102SAPE  H13X10409   6.536   1.129   4.924  0.5954 -0.8812 -0.8344
  102SAPE  H13Y10410   6.689   1.049   4.887  0.1655 -0.5519  1.6595
  102SAPE  C31410411   6.684   1.263   4.828 -1.0609  0.5074 -0.5778
  102SAPE  H14X10412   6.790   1.292   4.848 -0.9259 -0.8934  0.9677
  102SAPE  H14Y10413   6.618   1.343   4.868 -1.4390  0.9793 -2.0894
  102SAPE  C31510414   6.664   1.219   4.678  0.4886  0.5840  0.0953
  102SAPE  H15X10415   6.727   1.133   4.648  0.1532  0.3111  0.1706
  102SAPE  H15Y10416   6.692   1.307   4.617 -1.3714 -0.5426 -2.5567
  102SAPE  C31610417   6.526   1.182   4.641  0.4190 -0.0629 -0.8091
  102SAPE  H16X10418   6.463   1.270   4.668  0.0569 -0.5918  0.1392
  102SAPE  H16Y10419   6.496   1.094   4.702  1.9439  1.0025  1.6439
  102SAPE  C31710420   6.515   1.145   4.495  0.4820 -0.1149 -0.2373
  102SAPE  H17X10421   6.432   1.072   4.497 -1.5483  2.0041 -1.4097
  102SAPE  H17Y10422   6.612   1.108   4.455  1.8151  0.6038  2.1815
  102SAPE  C31810423   6.466   1.266   4.415 -0.4868 -0.1466  0.2340
  102SAPE  H18X10424   6.530   1.354   4.439  1.2127 -1.6149  1.4359
  102SAPE  H18Y10425   6.363   1.295   4.444 -0.6787 -1.0143  0.4610
  102SAPE  H18Z10426   6.473   1.246   4.306  1.2222  0.5683  0.1789
  103SAPE     N10427   3.138   3.664   1.850  0.3874  0.0095 -0.3017
  103SAPE   HN110428   3.238   3.692   1.848  1.1173 -2.2873  0.8579
  103SAPE   HN210429   3.134   3.586   1.919  2.0593  1.3849  1.4618
  103SAPE   HN310430   3.118   3.648   1.749  0.4635  0.0376 -0.3210
  103SAPE   C1210431   3.048   3.769   1.900  0.4239 -0.0951 -0.6818
  103SAPE  H12A10432   3.049   3.777   2.011 -0.8820 -0.7477 -0.5995
  103SAPE  H12B10433   2.943   3.742   1.877 -0.3384  0.7256  1.5792
  103SAPE   C1110434   3.090   3.913   1.855  0.5034 -0.1974 -0.5238
  103SAPE  H11A10435   3.121   3.925   1.749  0.3765  1.9316 -0.3718
  103SAPE  H11B10436   3.182   3.939   1.911  0.0785  0.4455 -0.1091
  103SAPE     P10437   2.892   4.081   1.777  0.0245  0.2095 -0.5889
  103SAPE   O1310438   2.921   4.223   1.755 -0.5101 -0.2625  0.2879
  103SAPE   O1410439   2.897   3.992   1.664  0.7896  0.0722 -0.2759
  103SAPE   O1210440   2.994   4.018   1.886  0.0806 -0.0809  0.0741
  103SAPE   O1110441   2.750   4.078   1.840 -0.2071 -0.3696 -0.0561
  103SAPE    C110442   2.728   4.132   1.973  0.2276 -0.0166  0.0801
  103SAPE    HA10443   2.789   4.223   1.991  1.1340 -0.7197  0.6315
  103SAPE    HB10444   2.624   4.169   1.984  0.0961  0.6473 -2.6274
  103SAPE    C210445   2.755   4.041   2.085 -0.4769 -0.1133 -0.1593
  103SAPE    HS10446   2.858   3.999   2.076  0.5244  2.2579 -0.5712
  103SAPE   O2110447   2.662   3.931   2.083 -0.0184  1.0847 -1.0091
  103SAPE   C2110448   2.673   3.831   2.181 -0.5081 -0.4541  0.4990
  103SAPE   O2210449   2.772   3.815   2.252 -0.9516 -0.0255  0.2429
  103SAPE   C2210450   2.547   3.740   2.190 -0.6399 -0.2615 -0.1222
  103SAPE   H2R10451   2.458   3.785   2.141 -1.0832  1.1281  1.8342
  103SAPE   H2S10452   2.555   3.645   2.132  0.5418  0.6629 -1.5542
  103SAPE    C310453   2.761   4.113   2.218  0.0518  0.1663 -0.5113
  103SAPE    HX10454   2.837   4.193   2.215 -1.0511  1.2071 -1.6322
  103SAPE    HY10455   2.781   4.044   2.302 -1.8150  2.5804  2.0881
  103SAPE   O3110456   2.642   4.184   2.250 -0.2159 -0.4596 -0.0917
  103SAPE   C3110457   2.659   4.260   2.363  0.2631 -0.1793  0.7328
  103SAPE   O3210458   2.769   4.271   2.418  0.2442  0.3978  0.6936
  103SAPE   C3210459   2.530   4.335   2.407  0.3073  0.1053 -0.1640
  103SAPE   H2X10460   2.458   4.266   2.456  0.3294  0.2611  0.0887
  103SAPE   H2Y10461   2.471   4.373   2.320 -1.8464  0.4906  1.3871
  103SAPE   C2310462   2.504   3.710   2.337  0.6098 -0.4591 -0.0974
  103SAPE   H3R10463   2.563   3.766   2.413 -2.0234  2.2231  0.1617
  103SAPE   H3S10464   2.534   3.606   2.360  0.0466 -0.7765 -0.7805
  103SAPE   C2410465   2.352   3.722   2.363 -0.5958  0.6708 -0.4543
  103SAPE   H4R10466   2.345   3.680   2.466  1.8308  1.8837  0.2995
  103SAPE   H4S10467   2.297   3.653   2.296 -2.4070  0.4941  1.1405
  103SAPE   C2510468   2.308   3.864   2.338 -0.2169  0.2264 -0.3454
  103SAPE   H5R10469   2.282   3.890   2.234  0.7356  1.8585 -0.2143
  103SAPE   C2610470   2.292   3.961   2.434 -0.3040 -0.3468  0.0938
  103SAPE   H6R10471   2.255   4.061   2.405 -3.1728 -1.5934 -0.9150
  103SAPE   C2710472   2.319   3.947   2.583  0.0038  0.6982  0.0357
  103SAPE   H7R10473   2.413   3.894   2.608 -1.9520 -2.5669  1.0210
  103SAPE   H7S10474   2.247   3.870   2.618  1.4532 -0.6125  0.2238
  103SAPE   C2810475   2.303   4.081   2.658 -0.0198  0.6521  0.1928
  103SAPE   H8R10476   2.345   4.173   2.616  2.3809 -0.2588  0.3937
  103SAPE   C2910477   2.263   4.089   2.782  0.2774 -0.3196  0.2984
  103SAPE   H9R10478   2.272   4.185   2.835 -1.7694  0.0586  0.0463
  103SAPE  C21010479   2.219   3.990   2.878  0.0630  0.1755  0.2384
  103SAPE  H10R10480   2.256   4.018   2.979 -1.5146  0.3220  0.7881
  103SAPE  H10S10481   2.250   3.887   2.852  0.1816  0.1201  0.5955
  103SAPE  C21110482   2.073   3.994   2.892  0.6461  0.7148 -0.3232
  103SAPE  H11R10483   2.022   3.963   2.799 -1.1734  1.7933  0.2698
  103SAPE  C21210484   1.997   4.015   3.000  0.5331  0.2677 -0.0099
  103SAPE  H12R10485   1.888   4.025   2.992  0.4454  0.4655  1.3514
  103SAPE  C21310486   2.049   4.040   3.137 -0.3168 -0.5784 -0.1346
  103SAPE  H13R10487   2.038   4.147   3.166  2.3314 -0.8313  2.1667
  103SAPE  H13S10488   2.159   4.037   3.146 -0.3333 -0.0517  0.2759
  103SAPE  C21410489   1.996   3.945   3.236  0.3396 -0.5626 -0.6510
  103SAPE  H14R10490   1.965   3.844   3.203  0.0005 -1.2993  1.6928
  103SAPE  C21510491   1.972   3.963   3.369  0.6430 -0.1768  0.4799
  103SAPE  H15R10492   1.914   3.884   3.418 -0.4213  1.1440  1.4132
  103SAPE  C21610493   1.988   4.091   3.453 -0.4464  0.4796  0.8326
  103SAPE  H16R10494   2.026   4.175   3.391 -0.0868 -0.6199 -0.4916
  103SAPE  H16S10495   2.061   4.067   3.533  1.1253 -1.6332 -1.1066
  103SAPE  C21710496   1.862   4.136   3.521  0.5874 -0.2451  0.0989
  103SAPE  H17R10497   1.788   4.169   3.445 -1.4368 -1.3132  1.5155
  103SAPE  H17S10498   1.896   4.213   3.593 -0.7153  0.4680 -0.0268
  103SAPE  C21810499   1.800   4.025   3.604 -0.3679 -0.2700  0.1120
  103SAPE  H18R10500   1.872   3.959   3.657  0.7996  1.1848  0.3806
  103SAPE  H18S10501   1.727   3.972   3.540  0.8586 -1.3033 -0.4750
  103SAPE  C21910502   1.700   4.082   3.705  0.7201  0.1088 -0.5187
  103SAPE  H19R10503   1.635   4.156   3.654 -0.8479 -1.6211 -1.1539
  103SAPE  H19S10504   1.754   4.130   3.790  2.6071  0.1808 -1.7138
  103SAPE  C22010505   1.614   3.966   3.765 -0.1777 -0.7090  0.1324
  103SAPE  H20R10506   1.679   3.898   3.824  2.3564  1.8431  0.5238
  103SAPE  H20S10507   1.564   3.910   3.683 -1.7319  0.4958  0.2169
  103SAPE  H20T10508   1.541   4.012   3.834 -1.1148  0.9715 -1.8664
  103SAPE   C3310509   2.565   4.452   2.488 -0.1724  0.0769 -0.3834
  103SAPE   H3X10510   2.468   4.506   2.488  0.2307  0.8421 -1.7657
  103SAPE   H3Y10511   2.637   4.523   2.442  0.5187 -1.4325 -1.7349
  103SAPE   C3410512   2.609   4.428   2.634  0.0776  0.3522 -0.0282
  103SAPE   H4X10513   2.694   4.358   2.647  1.9024  2.4289 -0.2352
  103SAPE   H4Y10514   2.518   4.390   2.686 -0.2940  0.9762 -0.2115
  103SAPE   C3510515   2.649   4.560   2.698 -0.7774 -0.7655  0.3425
  103SAPE   H5X10516   2.562   4.628   2.705  0.9545  1.4876  1.3465
  103SAPE   H5Y10517   2.725   4.608   2.634 -2.2256 -1.2559 -1.8372
  103SAPE   C3610518   2.716   4.528   2.831 -0.0317 -0.3442  0.0141
  103SAPE   H6X10519   2.774   4.616   2.867  0.0942 -0.0755 -0.8364
  103SAPE   H6Y10520   2.781   4.438   2.831  1.1930  0.5063  0.0915
  103SAPE   C3710521   2.600   4.507   2.933 -0.1567  0.0182 -0.0182
  103SAPE   H7X10522   2.543   4.413   2.915  1.8755 -0.8079 -2.9300
  103SAPE   H7Y10523   2.530   4.592   2.918 -1.8086 -1.0248  1.3885
  103SAPE   C3810524   2.644   4.496   3.079  0.2337 -0.8254  0.9353
  103SAPE   H8X10525   2.563   4.538   3.141 -0.6971  0.3016 -0.9649
  103SAPE   H8Y10526   2.734   4.558   3.100 -0.6860  0.5322  0.9308
  103SAPE   C3910527   2.673   4.351   3.127  0.4714 -0.0094  0.3574
  103SAPE   H9X10528   2.750   4.298   3.068 -1.1690  0.7362 -2.6498
  103SAPE   H9Y10529   2.587   4.284   3.108  0.5894 -0.1220  0.2164
  103SAPE  C31010530   2.713   4.340   3.275 -0.2958 -0.3429 -0.7573
  103SAPE  H10X10531   2.808   4.389   3.303  0.3061 -1.9287  0.1240
  103SAPE  H10Y10532   2.734   4.233   3.295 -0.5914 -0.2369  0.1600
  103SAPE  C31110533   2.597   4.386   3.369 -0.8768  0.5082 -0.3735
  103SAPE  H11X10534   2.503   4.331   3.345 -0.2439 -0.2097 -1.2923
  103SAPE  H11Y10535   2.585   4.492   3.340 -1.8060 -0.1096 -2.4508
  103SAPE  C31210536   2.620   4.364   3.512 -0.0392  1.1658 -0.1046
  103SAPE  H12X10537   2.653   4.261   3.536 -1.0668  1.1060  1.1763
  103SAPE  H12Y10538   2.522   4.379   3.564  0.0804  1.6867 -0.0188
  103SAPE  C31310539   2.727   4.449   3.579 -0.4811 -0.6710  0.0144
  103SAPE  H13X10540   2.699   4.552   3.547 -2.6751 -1.4422 -0.6818
  103SAPE  H13Y10541   2.831   4.431   3.545  0.2126  1.3115  0.9433
  103SAPE  C31410542   2.746   4.435   3.728 -1.2593 -0.5056  0.1267
  103SAPE  H14X10543   2.769   4.329   3.751 -2.5198 -1.2289 -1.7222
  103SAPE  H14Y10544   2.648   4.450   3.778 -1.0923 -0.5512  0.4724
  103SAPE  C31510545   2.850   4.540   3.787 -0.2183  0.0773  0.0116
  103SAPE  H15X10546   2.793   4.632   3.763 -0.9933 -0.0446  1.3415
  103SAPE  H15Y10547   2.947   4.548   3.733  0.2048  5.0786  1.0392
  103SAPE  C31610548   2.865   4.520   3.934 -0.2287  0.4867 -0.0032
  103SAPE  H16X10549   2.916   4.423   3.948 -4.1082 -1.9727 -1.4781
  103SAPE  H16Y10550   2.763   4.512   3.976 -0.2893  2.2941  0.2932
  103SAPE  C31710551   2.946   4.635   3.998 -1.0240  0.3354  0.3111
  103SAPE  H17X10552   2.885   4.728   4.003  0.7727  1.5640  0.4906
  103SAPE  H17Y10553   3.037   4.660   3.940 -1.7059  1.6252 -0.2417
  103SAPE  C31810554   2.982   4.622   4.142  0.1727  0.0751 -0.0430
  103SAPE  H18X10555   3.020   4.716   4.187 -0.3468 -0.0727  0.7326
  103SAPE  H18Y10556   3.042   4.531   4.166  3.6264  2.4052  0.8549
  103SAPE  H18Z10557   2.888   4.626   4.201  0.4126  2.2388  0.2575
  104SAPE     N10558   2.650   2.766   1.429 -0.3618 -0.4520 -0.6385
  104SAPE   HN110559   2.672   2.752   1.328 -1.2931  2.0220 -1.2565
  104SAPE   HN210560   2.579   2.842   1.437 -1.8628 -1.6689 -1.5525
  104SAPE   HN310561   2.736   2.782   1.484 -0.7256  1.5807 -0.5704
  104SAPE   C1210562   2.601   2.626   1.476 -0.2043 -0.6577 -0.7817
  104SAPE  H12A10563   2.682   2.553   1.457 -3.1819 -3.4532 -4.1142
  104SAPE  H12B10564   2.510   2.622   1.413 -0.7235 -1.5436  0.0096
  104SAPE   C1110565   2.555   2.636   1.628  0.7241  0.4545 -0.2334
  104SAPE  H11A10566   2.645   2.654   1.692  0.4594  1.5155 -0.1335
  104SAPE  H11B10567   2.520   2.537   1.663  1.7568  0.3288  0.5192
  104SAPE     P10568   2.499   2.868   1.735 -0.0778 -0.0065 -0.3358
  104SAPE   O1310569   2.644   2.895   1.727 -0.3522 -0.7808  0.0415
  104SAPE   O1410570   2.414   2.977   1.688  0.3151  0.8584  0.7890
  104SAPE   O1210571   2.463   2.746   1.641  0.9617 -0.2365 -0.5168
  104SAPE   O1110572   2.455   2.832   1.887  0.1247  0.6492  0.0981
  104SAPE    C110573   2.420   2.687   1.919 -0.5848 -0.3437 -0.3151
  104SAPE    HA10574   2.356   2.647   1.838  0.1919  1.1457 -1.7091
  104SAPE    HB10575   2.514   2.629   1.921 -0.2629  0.1752  0.3060
  104SAPE    C210576   2.364   2.672   2.061 -0.3266  0.0994  0.6247
  104SAPE    HS10577   2.293   2.758   2.063  0.1896  0.7286 -2.4300
  104SAPE   O2110578   2.475   2.690   2.153 -0.0570 -0.4812 -0.0599
  104SAPE   C2110579   2.441   2.767   2.257 -0.8326  0.4064 -0.8191
  104SAPE   O2210580   2.339   2.816   2.292 -0.1765  0.0346 -0.2879
  104SAPE   C2210581   2.564   2.767   2.351 -0.7338 -0.1126  0.1574
  104SAPE   H2R10582   2.641   2.698   2.310  0.2056  0.5234  0.7995
  104SAPE   H2S10583   2.601   2.872   2.352 -3.0739  0.7732  1.3290
  104SAPE    C310584   2.298   2.539   2.089  0.2667  0.3360  0.3983
  104SAPE    HX10585   2.370   2.462   2.055 -1.5489 -0.9138 -0.7853
  104SAPE    HY10586   2.211   2.524   2.021  1.7526  1.3497 -1.8249
  104SAPE   O3110587   2.268   2.506   2.229 -0.1501 -0.1223  0.8300
  104SAPE   C3110588   2.150   2.545   2.273 -0.4218 -0.4133 -0.5703
  104SAPE   O3210589   2.079   2.625   2.216  0.2517  0.1799 -0.4494
  104SAPE   C3210590   2.127   2.471   2.403  0.3902 -0.2249  0.3103
  104SAPE   H2X10591   2.132   2.363   2.378  2.6684 -0.0513 -0.1954
  104SAPE   H2Y10592   2.028   2.509   2.436 -1.1574 -2.3980 -1.5276
  104SAPE   C2310593   2.529   2.726   2.490 -0.3480  0.2118  0.3577
  104SAPE   H3R10594   2.495   2.620   2.481  0.6088  0.0023 -1.2276
  104SAPE   H3S10595   2.443   2.788   2.524 -0.2056  1.7314 -1.8299
  104SAPE   C2410596   2.652   2.738   2.583 -0.5580 -0.5566  0.2839
  104SAPE   H4R10597   2.732   2.676   2.537 -0.5606 -1.4211  1.4027
  104SAPE   H4S10598   2.616   2.686   2.674  2.8694 -1.3277  1.3613
  104SAPE   C2510599   2.685   2.886   2.610  0.2114 -0.0921  0.2296
  104SAPE   H5R10600   2.708   2.941   2.518 -2.5931 -0.8957 -1.0519
  104SAPE   C2610601   2.704   2.940   2.733 -0.6829  0.0135 -0.6935
  104SAPE   H6R10602   2.745   3.041   2.750 -0.6918 -0.1463  0.3535
  104SAPE   C2710603   2.689   2.861   2.871  0.2179 -0.3027  0.0133
  104SAPE   H7R10604   2.763   2.779   2.884 -0.6949 -1.0347  0.6441
  104SAPE   H7S10605   2.599   2.798   2.879  0.8507 -1.1885  0.2788
  104SAPE   C2810606   2.691   2.954   2.990 -0.9231  0.3757  0.2347
  104SAPE   H8R10607   2.692   3.062   2.968  0.4290  1.3080  4.0467
  104SAPE   C2910608   2.699   2.910   3.116 -0.2454 -0.5777 -0.1528
  104SAPE   H9R10609   2.704   2.985   3.196 -1.6566  0.8062 -1.2717
  104SAPE  C21010610   2.705   2.772   3.168 -0.1280  0.3123 -0.1448
  104SAPE  H10R10611   2.647   2.708   3.098  0.6683 -1.9968  1.2264
  104SAPE  H10S10612   2.656   2.766   3.267  1.0240 -1.9836  0.3554
  104SAPE  C21110613   2.845   2.726   3.163 -0.1425  0.9565 -0.3783
  104SAPE  H11R10614   2.893   2.744   3.065 -0.3042  0.5079 -0.5437
  104SAPE  C21210615   2.907   2.655   3.257 -0.1540  0.5090  0.0773
  104SAPE  H12R10616   3.008   2.617   3.238  0.2330 -0.4708  3.4963
  104SAPE  C21310617   2.862   2.617   3.399 -0.1200  0.3956  0.3786
  104SAPE  H13R10618   2.840   2.706   3.461  0.5659 -0.5763  2.0809
  104SAPE  H13S10619   2.953   2.570   3.442 -0.8735 -1.0112  0.5057
  104SAPE  C21410620   2.742   2.523   3.414  0.0281  0.1409  0.2885
  104SAPE  H14R10621   2.711   2.478   3.319 -2.1119  0.8901  0.5735
  104SAPE  C21510622   2.684   2.497   3.534  0.1618  0.3575 -0.2620
  104SAPE  H15R10623   2.617   2.410   3.541  1.1902 -0.5049 -0.9210
  104SAPE  C21610624   2.723   2.567   3.666 -0.3489  1.0014 -0.2037
  104SAPE  H16R10625   2.639   2.557   3.739 -1.5738 -0.1826 -1.7062
  104SAPE  H16S10626   2.740   2.673   3.639 -1.2494  1.0635 -0.5730
  104SAPE  C21710627   2.854   2.528   3.736  0.2336  0.3374  0.2639
  104SAPE  H17R10628   2.880   2.607   3.810  0.3125 -0.3110  0.9382
  104SAPE  H17S10629   2.935   2.534   3.660  0.1431  0.8646  0.2022
  104SAPE  C21810630   2.842   2.394   3.797  0.3895  0.3189  0.2023
  104SAPE  H18R10631   2.807   2.319   3.723 -0.1427  0.0628  0.7074
  104SAPE  H18S10632   2.765   2.400   3.876 -1.7876  0.5365 -1.8297
  104SAPE  C21910633   2.986   2.362   3.851  0.1991 -0.0421 -0.0182
  104SAPE  H19R10634   3.043   2.456   3.867  3.7057 -2.3137  2.1478
  104SAPE  H19S10635   3.052   2.316   3.775  0.5392 -0.9497  0.8123
  104SAPE  C22010636   2.992   2.280   3.984  0.4089 -0.2005 -1.1465
  104SAPE  H20R10637   2.986   2.169   3.984 -0.4663 -0.2304  1.6070
  104SAPE  H20S10638   2.925   2.322   4.063  0.4719  0.3024 -1.3624
  104SAPE  H20T10639   3.090   2.289   4.035  0.2160 -1.0334 -0.5926
  104SAPE   C3310640   2.233   2.515   2.507  0.6360  0.3760 -0.2741
  104SAPE   H3X10641   2.237   2.625   2.512 -1.9650  0.5955 -1.4495
  104SAPE   H3Y10642   2.332   2.481   2.470 -0.0187  0.2852 -2.0212
  104SAPE   C3410643   2.210   2.442   2.643 -0.0984 -0.3767 -0.0624
  104SAPE   H4X10644   2.270   2.350   2.662 -0.5781 -0.3511  1.7235
  104SAPE   H4Y10645   2.103   2.425   2.665  0.1473 -1.6535  0.2499
  104SAPE   C3510646   2.265   2.537   2.755  0.3425  0.0860 -0.1984
  104SAPE   H5X10647   2.243   2.640   2.719  0.8175 -0.2612 -1.5347
  104SAPE   H5Y10648   2.376   2.534   2.752  0.3636  1.1092 -1.4688
  104SAPE   C3610649   2.205   2.522   2.894  0.2957 -0.2837 -0.4302
  104SAPE   H6X10650   2.195   2.413   2.915  0.4933 -0.0087  1.2196
  104SAPE   H6Y10651   2.101   2.562   2.896  0.4459  0.1202 -0.7314
  104SAPE   C3710652   2.288   2.587   3.000 -0.6281 -0.2531 -0.4246
  104SAPE   H7X10653   2.309   2.688   2.959 -0.7776 -0.3903 -0.8391
  104SAPE   H7Y10654   2.392   2.552   3.017 -0.3239  1.3286  1.2305
  104SAPE   C3810655   2.225   2.587   3.135  0.3136 -0.5150  0.7598
  104SAPE   H8X10656   2.195   2.483   3.159 -1.8458 -0.1758 -0.1871
  104SAPE   H8Y10657   2.128   2.640   3.120  0.0690 -1.0941  0.2264
  104SAPE   C3910658   2.311   2.668   3.232 -0.1319  0.3084  0.4591
  104SAPE   H9X10659   2.314   2.769   3.185 -0.4126  0.7831  1.4448
  104SAPE   H9Y10660   2.414   2.626   3.231 -1.0169 -1.9776 -0.3716
  104SAPE  C31010661   2.275   2.671   3.380 -0.0580 -0.4288 -0.2124
  104SAPE  H10X10662   2.170   2.708   3.385  0.1860  0.6065 -1.9786
  104SAPE  H10Y10663   2.338   2.756   3.416 -1.1983  0.0862  0.6553
  104SAPE  C31110664   2.274   2.540   3.457  0.3932 -0.1614  0.6591
  104SAPE  H11X10665   2.372   2.493   3.434 -0.1848 -0.3395 -1.6433
  104SAPE  H11Y10666   2.185   2.484   3.423 -2.2145  3.3289  1.1856
  104SAPE  C31210667   2.274   2.548   3.616 -0.2709  0.3416  0.5136
  104SAPE  H12X10668   2.172   2.583   3.642 -0.4064  0.2480  0.1160
  104SAPE  H12Y10669   2.340   2.632   3.648  0.7885  0.2985 -1.3992
  104SAPE  C31310670   2.296   2.406   3.673 -0.2854  0.3856  0.8055
  104SAPE  H13X10671   2.399   2.388   3.637 -0.5252 -1.0888  0.7800
  104SAPE  H13Y10672   2.237   2.334   3.613  0.4329  1.5482 -1.4024
  104SAPE  C31410673   2.281   2.379   3.820 -1.3803  0.9895 -1.0206
  104SAPE  H14X10674   2.358   2.439   3.873  0.6064 -0.8224 -1.7289
  104SAPE  H14Y10675   2.314   2.275   3.839  0.7862  1.3933 -2.2037
  104SAPE  C31510676   2.149   2.412   3.879  0.2319  0.0347 -0.4222
  104SAPE  H15X10677   2.064   2.376   3.816  1.1755 -1.1242 -1.0671
  104SAPE  H15Y10678   2.139   2.522   3.876  0.5469  0.2140  2.5675
  104SAPE  C31610679   2.136   2.356   4.021 -0.3530 -0.2399 -0.2153
  104SAPE  H16X10680   2.230   2.388   4.071 -0.9402  1.4127 -0.0884
  104SAPE  H16Y10681   2.121   2.247   4.011 -3.0441  0.0104  0.4748
  104SAPE  C31710682   2.025   2.417   4.106 -0.8243  0.3653 -0.0598
  104SAPE  H17X10683   1.938   2.425   4.036  0.4456  0.3855 -1.7075
  104SAPE  H17Y10684   2.046   2.521   4.140 -1.8561  1.3096 -2.0735
  104SAPE  C31810685   1.978   2.339   4.231 -0.0984  0.2910  0.4980
  104SAPE  H18X10686   2.069   2.299   4.282  1.4856  1.4652 -1.2650
  104SAPE  H18Y10687   1.904   2.258   4.212  0.2513 -0.0747  0.6867
  104SAPE  H18Z10688   1.928   2.410   4.300  3.1830  0.7572  2.6200
  105SAPE     N10689   5.314   1.864   1.868 -0.2987  0.7537 -0.1130
  105SAPE   HN110690   5.335   1.766   1.896 -1.7046  0.4542 -0.0116
  105SAPE   HN210691   5.400   1.921   1.864  0.3220 -0.1078 -4.8125
  105SAPE   HN310692   5.248   1.892   1.944  0.2816  0.7679  0.3908
  105SAPE   C1210693   5.238   1.845   1.737  0.1247 -0.6240 -0.2452
  105SAPE  H12A10694   5.152   1.782   1.767 -0.2633 -0.1986 -0.4575
  105SAPE  H12B10695   5.300   1.790   1.663 -0.9612 -0.1952 -1.5011
  105SAPE   C1110696   5.188   1.973   1.680  0.3050 -0.1462 -0.1928
  105SAPE  H11A10697   5.128   1.944   1.591  1.8842 -1.8012 -0.7822
  105SAPE  H11B10698   5.271   2.040   1.650  2.3300 -2.1069  0.7105
  105SAPE     P10699   5.104   2.195   1.792  0.2583  0.0558 -0.1922
  105SAPE   O1310700   5.087   2.243   1.653  0.5076 -0.0985  0.7402
  105SAPE   O1410701   5.008   2.234   1.903 -0.4479 -0.2876  0.5047
  105SAPE   O1210702   5.105   2.042   1.781 -0.2030 -0.1695 -0.2329
  105SAPE   O1110703   5.253   2.226   1.836  0.9281 -0.7327 -0.3224
  105SAPE    C110704   5.290   2.211   1.974  0.1603 -0.2974 -0.0770
  105SAPE    HA10705   5.256   2.117   2.022  0.2480 -1.1950 -1.6828
  105SAPE    HB10706   5.401   2.210   1.970  0.1633 -0.1328 -0.0553
  105SAPE    C210707   5.264   2.330   2.061  0.2850 -0.2692  0.5145
  105SAPE    HS10708   5.156   2.354   2.071  0.6052  1.4531  0.1518
  105SAPE   O2110709   5.339   2.449   2.018  0.2275 -0.3865 -0.7251
  105SAPE   C2110710   5.277   2.572   2.043  0.3081  1.0485 -0.2964
  105SAPE   O2210711   5.169   2.588   2.090  0.2701 -0.3834  0.3133
  105SAPE   C2210712   5.383   2.674   1.999  0.0848 -0.7225  0.1913
  105SAPE   H2R10713   5.479   2.662   2.055 -0.9610  0.5342  2.4285
  105SAPE   H2S10714   5.397   2.659   1.890 -1.0652  0.3120 -0.1221
  105SAPE    C310715   5.307   2.295   2.204 -0.3085 -0.7740  0.3362
  105SAPE    HX10716   5.417   2.281   2.197 -0.3730 -0.7521 -0.9009
  105SAPE    HY10717   5.269   2.200   2.246  0.1709 -0.0146  2.6344
  105SAPE   O3110718   5.295   2.404   2.306  0.2264 -0.5659  0.4101
  105SAPE   C3110719   5.191   2.398   2.384  0.3178  0.6130 -0.7276
  105SAPE   O3210720   5.111   2.304   2.396  0.5866 -0.1104 -0.2802
  105SAPE   C3210721   5.181   2.535   2.450 -0.3306  0.1499  0.5536
  105SAPE   H2X10722   5.170   2.608   2.367  0.2769 -1.5775 -1.1135
  105SAPE   H2Y10723   5.279   2.561   2.495 -0.0321 -1.5943  0.9867
  105SAPE   C2310724   5.334   2.816   2.036  0.0082 -0.4151  0.9407
  105SAPE   H3R10725   5.226   2.836   2.016  0.2703  0.7417  0.6093
  105SAPE   H3S10726   5.398   2.890   1.983  0.4989 -1.9629 -0.7278
  105SAPE   C2410727   5.354   2.848   2.190  0.6668  0.2697  0.5718
  105SAPE   H4R10728   5.456   2.819   2.226  0.5933 -1.4117 -0.4425
  105SAPE   H4S10729   5.290   2.764   2.225  1.5688 -1.3962 -1.5213
  105SAPE   C2510730   5.304   2.979   2.242 -0.6281  0.0273  0.0476
  105SAPE   H5R10731   5.235   3.031   2.173  1.4232 -0.1176 -2.2852
  105SAPE   C2610732   5.329   3.049   2.353 -0.8992  0.0443  0.3303
  105SAPE   H6R10733   5.296   3.152   2.369 -0.8996 -0.0285  0.8323
  105SAPE   C2710734   5.427   3.013   2.462  0.0346  0.4500  0.2770
  105SAPE   H7R10735   5.472   3.105   2.504 -1.8218  0.7095  1.8179
  105SAPE   H7S10736   5.504   2.944   2.421  0.1957 -1.1531  3.0507
  105SAPE   C2810737   5.379   2.932   2.579 -1.2837 -0.3460 -0.5029
  105SAPE   H8R10738   5.310   2.850   2.552 -0.3614 -0.8747 -1.3484
  105SAPE   C2910739   5.417   2.940   2.706 -0.2614  0.6881  0.5938
  105SAPE   H9R10740   5.362   2.879   2.779  2.3566 -1.0982  1.2322
  105SAPE  C21010741   5.518   3.041   2.755  0.1476  0.2376 -0.0951
  105SAPE  H10R10742   5.453   3.131   2.752 -0.5767 -0.2726 -0.1091
  105SAPE  H10S10743   5.591   3.065   2.675  1.4551  2.4905  1.6818
  105SAPE  C21110744   5.581   3.025   2.886  0.4532  0.8347 -0.2561
  105SAPE  H11R10745   5.690   3.015   2.876  0.2681 -0.7962 -0.9903
  105SAPE  C21210746   5.523   3.036   3.007  0.1299 -0.0682 -0.3709
  105SAPE  H12R10747   5.591   3.022   3.093  2.1525  0.8676 -1.7362
  105SAPE  C21310748   5.376   3.066   3.027 -0.2071  0.4154  0.6605
  105SAPE  H13R10749   5.322   3.052   2.931  1.5488  2.2653 -0.6903
  105SAPE  H13S10750   5.364   3.169   3.065 -0.8614  0.5820  0.0170
  105SAPE  C21410751   5.317   2.970   3.136  0.1931  0.1127 -0.3741
  105SAPE  H14R10752   5.351   2.866   3.126  1.0669  0.2450  0.9471
  105SAPE  C21510753   5.238   3.000   3.246 -0.3919  0.6420  0.0462
  105SAPE  H15R10754   5.221   2.926   3.326  1.0842  3.3848  3.1354
  105SAPE  C21610755   5.194   3.131   3.301 -0.7134 -0.6587  0.2674
  105SAPE  H16R10756   5.090   3.151   3.269 -0.3481  0.7864 -0.0746
  105SAPE  H16S10757   5.264   3.210   3.266 -0.9534 -1.9672 -3.7543
  105SAPE  C21710758   5.201   3.135   3.457 -0.0218  0.5220  0.9057
  105SAPE  H17R10759   5.298   3.116   3.507  0.7252 -0.0444 -0.6750
  105SAPE  H17S10760   5.130   3.058   3.494  0.8472 -2.6554 -3.2026
  105SAPE  C21810761   5.141   3.263   3.505  0.2904  0.5947  0.2535
  105SAPE  H18R10762   5.062   3.298   3.436  0.5222 -0.0700 -0.3607
  105SAPE  H18S10763   5.214   3.347   3.508  0.4653  0.4116  1.8869
  105SAPE  C21910764   5.081   3.258   3.645  0.2148 -0.2728 -0.4244
  105SAPE  H19R10765   5.014   3.169   3.644 -0.5133  0.2648 -0.6223
  105SAPE  H19S10766   5.026   3.351   3.670 -0.2177 -0.7571  0.4850
  105SAPE  C22010767   5.183   3.243   3.759  0.0986 -0.1618 -0.3380
  105SAPE  H20R10768   5.135   3.254   3.859 -4.1293 -2.9592 -1.7852
  105SAPE  H20S10769   5.268   3.314   3.754  0.1607 -0.2048  0.0292
  105SAPE  H20T10770   5.233   3.144   3.762  3.9666  1.5464 -1.7989
  105SAPE   C3310771   5.066   2.542   2.550 -0.0961 -0.5701 -0.0482
  105SAPE   H3X10772   5.077   2.455   2.619  0.0844 -4.0238 -3.9984
  105SAPE   H3Y10773   4.966   2.543   2.501 -0.6046  0.7095  0.9308
  105SAPE   C3410774   5.086   2.675   2.621  0.2846 -0.2513  0.3049
  105SAPE   H4X10775   5.098   2.762   2.554 -1.3007 -0.1389  0.1273
  105SAPE   H4Y10776   5.175   2.667   2.686 -0.7220  0.7979  1.8904
  105SAPE   C3510777   4.963   2.706   2.715 -0.1076  0.7601 -0.4851
  105SAPE   H5X10778   4.914   2.609   2.738 -0.2522  1.3439  1.9195
  105SAPE   H5Y10779   4.882   2.762   2.663  0.9759  2.1603 -0.7160
  105SAPE   C3610780   5.002   2.777   2.846 -0.1700  0.3570 -0.0502
  105SAPE   H6X10781   5.053   2.874   2.829  0.0959  0.0863 -0.8548
  105SAPE   H6Y10782   5.061   2.722   2.923 -1.4105  2.0730  2.2487
  105SAPE   C3710783   4.870   2.801   2.925 -0.2611  0.3550  0.8540
  105SAPE   H7X10784   4.827   2.706   2.962  0.5037 -0.1751  0.3976
  105SAPE   H7Y10785   4.799   2.850   2.855  0.9410 -0.0821 -0.7165
  105SAPE   C3810786   4.881   2.895   3.049 -0.0892 -0.1186 -0.4463
  105SAPE   H8X10787   4.908   2.998   3.017  0.8698 -0.2072  0.0268
  105SAPE   H8Y10788   4.959   2.859   3.121  0.1839  0.8809 -0.2337
  105SAPE   C3910789   4.751   2.891   3.125 -0.1634  0.0503  0.1103
  105SAPE   H9X10790   4.711   2.790   3.148 -0.1078  0.0344  0.1395
  105SAPE   H9Y10791   4.683   2.952   3.062  2.3615  2.7004 -0.2835
  105SAPE  C31010792   4.759   2.972   3.253 -0.2774  0.3238  0.1683
  105SAPE  H10X10793   4.801   3.074   3.240  1.4715 -0.0827  2.0154
  105SAPE  H10Y10794   4.825   2.926   3.330 -0.9078 -1.9996 -0.5993
  105SAPE  C31110795   4.620   3.010   3.298  0.1621  0.0757  0.0705
  105SAPE  H11X10796   4.553   2.924   3.316  1.0106 -0.2431  1.8498
  105SAPE  H11Y10797   4.578   3.068   3.213  1.5487  1.3749  0.2316
  105SAPE  C31210798   4.621   3.095   3.425  0.2327  0.6350 -0.0352
  105SAPE  H12X10799   4.514   3.123   3.438  0.0764  0.7353 -1.3659
  105SAPE  H12Y10800   4.677   3.190   3.414 -1.7035  1.7288 -1.0597
  105SAPE  C31310801   4.654   3.019   3.549 -0.2658  0.5281 -0.0611
  105SAPE  H13X10802   4.759   2.985   3.543 -0.2011  0.6485  0.3731
  105SAPE  H13Y10803   4.591   2.927   3.560 -1.4938  1.4204  0.6224
  105SAPE  C31410804   4.621   3.099   3.677  0.2401 -0.2163  0.1442
  105SAPE  H14X10805   4.539   3.173   3.665  0.2481 -0.1726  0.3675
  105SAPE  H14Y10806   4.707   3.162   3.708 -1.5037  1.6673  1.4093
  105SAPE  C31510807   4.574   3.006   3.784 -0.1420  0.4718 -0.0207
  105SAPE  H15X10808   4.491   2.948   3.740  0.5824  0.9897 -2.1832
  105SAPE  H15Y10809   4.537   3.060   3.874 -0.1986 -0.5576  0.5918
  105SAPE  C31610810   4.685   2.893   3.823 -0.4663 -0.3961 -0.5257
  105SAPE  H16X10811   4.779   2.950   3.836 -0.5531 -0.0496 -1.3461
  105SAPE  H16Y10812   4.696   2.828   3.734 -0.0690 -0.7072 -0.2509
  105SAPE  C31710813   4.644   2.808   3.954 -0.1309  0.3049 -0.1213
  105SAPE  H17X10814   4.548   2.753   3.940  0.0390  0.0069 -0.1255
  105SAPE  H17Y10815   4.636   2.864   4.049 -1.1616  0.1003 -0.0740
  105SAPE  C31810816   4.756   2.702   3.972 -0.0787 -0.1308 -0.1980
  105SAPE  H18X10817   4.853   2.751   3.993  0.2017 -1.5314  2.0466
  105SAPE  H18Y10818   4.777   2.634   3.887  1.1668  0.3085 -0.2596
  105SAPE  H18Z10819   4.737   2.646   4.066  0.9695  0.0426  0.1321
  106SAPE     N10820   5.917   3.628   1.913  0.1032 -0.4437  0.1797
  106SAPE   HN110821   5.836   3.565   1.898 -0.6853  0.4501  0.6132
  106SAPE   HN210822   5.972   3.658   1.830  2.2935  1.0683  2.0252
  106SAPE   HN310823   5.977   3.566   1.972 -1.9393 -0.5494  2.3177
  106SAPE   C1210824   5.878   3.758   1.981  0.4362 -0.5123 -0.3938
  106SAPE  H12A10825   5.847   3.730   2.084 -1.8207  1.2634 -0.5129
  106SAPE  H12B10826   5.781   3.799   1.945 -0.7585 -2.7947  0.0197
  106SAPE   C1110827   5.985   3.861   1.981  0.3532 -0.9229 -0.0500
  106SAPE  H11A10828   5.955   3.959   2.025 -1.4640 -1.4448 -0.0269
  106SAPE  H11B10829   6.002   3.888   1.875 -0.7119 -0.8146 -0.2086
  106SAPE     P10830   6.243   3.876   2.030  0.4238  0.0562  0.0472
  106SAPE   O1310831   6.341   3.770   2.056  0.1222 -0.2009  0.4386
  106SAPE   O1410832   6.240   3.937   1.891  0.0479  0.4607  0.1363
  106SAPE   O1210833   6.102   3.813   2.042 -0.7367  0.2955  0.6542
  106SAPE   O1110834   6.241   3.985   2.143 -0.1909  0.7005  0.0630
  106SAPE    C110835   6.148   3.993   2.249 -0.5137 -0.0322  0.1485
  106SAPE    HA10836   6.077   3.907   2.251  1.5607 -1.8156  0.2025
  106SAPE    HB10837   6.211   3.980   2.340 -0.5780  0.3351  0.2450
  106SAPE    C210838   6.067   4.128   2.256 -0.5283 -0.1108  1.1357
  106SAPE    HS10839   6.038   4.157   2.153 -1.2428 -2.1027  0.7410
  106SAPE   O2110840   6.151   4.226   2.315 -0.0883 -0.6313 -0.2100
  106SAPE   C2110841   6.128   4.349   2.283 -0.7714 -0.1569 -0.4115
  106SAPE   O2210842   6.053   4.391   2.198 -0.4392  0.1053  0.0789
  106SAPE   C2210843   6.206   4.426   2.394  0.3474  0.3450 -0.0665
  106SAPE   H2R10844   6.263   4.516   2.362 -0.2110  0.2641 -1.3456
  106SAPE   H2S10845   6.125   4.464   2.458 -0.8756 -1.8369 -0.2124
  106SAPE    C310846   5.934   4.123   2.331 -0.3176 -0.2793  0.6809
  106SAPE    HX10847   5.871   4.048   2.279 -1.8466  2.2389 -1.3650
  106SAPE    HY10848   5.890   4.224   2.317 -1.9909 -1.0141  0.4730
  106SAPE   O3110849   5.932   4.090   2.471  0.1763  0.4233  0.1312
  106SAPE   C3110850   5.811   4.044   2.521 -0.1689  0.7868  0.3385
  106SAPE   O3210851   5.711   4.034   2.457  0.2950 -0.6157  0.0679
  106SAPE   C3210852   5.835   4.001   2.669 -0.3726 -0.1630  0.5440
  106SAPE   H2X10853   5.904   4.075   2.715  0.1758 -0.4750  0.2209
  106SAPE   H2Y10854   5.909   3.920   2.681 -1.8186 -1.5450  0.5543
  106SAPE   C2310855   6.304   4.352   2.487 -0.5304  0.0043 -0.1008
  106SAPE   H3R10856   6.399   4.407   2.507 -1.3644  1.2373  0.6607
  106SAPE   H3S10857   6.351   4.262   2.443 -1.7380 -1.3997  1.3589
  106SAPE   C2410858   6.254   4.314   2.629  0.5780 -0.7854  0.0223
  106SAPE   H4R10859   6.164   4.252   2.611 -0.2557  0.5660 -0.6210
  106SAPE   H4S10860   6.223   4.411   2.674 -0.1345 -1.2837  0.6243
  106SAPE   C2510861   6.353   4.248   2.729  0.4049 -0.0393  0.3995
  106SAPE   H5R10862   6.400   4.159   2.688  0.1201  0.2537 -0.5815
  106SAPE   C2610863   6.391   4.277   2.855  0.2976  0.3559 -0.3310
  106SAPE   H6R10864   6.455   4.206   2.909  0.9596  0.2462 -1.2508
  106SAPE   C2710865   6.372   4.394   2.947  0.5800  0.4910  0.4642
  106SAPE   H7R10866   6.466   4.453   2.961 -0.8403  2.7109  1.1127
  106SAPE   H7S10867   6.358   4.341   3.043 -0.3511  1.5377  0.9224
  106SAPE   C2810868   6.256   4.489   2.933  0.3170  0.2354  0.1888
  106SAPE   H8R10869   6.274   4.591   2.894 -0.9854  0.3149 -0.2426
  106SAPE   C2910870   6.136   4.480   2.989  0.4215  0.5097  0.1799
  106SAPE   H9R10871   6.069   4.566   2.971 -1.7748 -0.7704  1.8133
  106SAPE  C21010872   6.085   4.375   3.082  0.6616 -0.1623  0.1009
  106SAPE  H10R10873   6.165   4.328   3.143  1.7083  2.8338  1.2353
  106SAPE  H10S10874   6.045   4.288   3.026 -0.8927  2.1199 -2.6123
  106SAPE  C21110875   5.975   4.435   3.172 -0.2217 -0.0579  0.0502
  106SAPE  H11R10876   5.874   4.413   3.133  0.5179 -2.2983 -0.7308
  106SAPE  C21210877   5.991   4.478   3.294 -0.1139  0.1149 -0.3062
  106SAPE  H12R10878   5.901   4.512   3.348  0.0254  0.2846 -0.1843
  106SAPE  C21310879   6.130   4.498   3.363  0.2875  0.2502  0.2477
  106SAPE  H13R10880   6.209   4.537   3.296  1.5975 -1.1537  0.9124
  106SAPE  H13S10881   6.166   4.397   3.393 -0.4983 -0.0625  0.1577
  106SAPE  C21410882   6.110   4.589   3.485  0.2249  0.7147 -0.1004
  106SAPE  H14R10883   6.095   4.695   3.461 -0.5594  0.1899 -2.1537
  106SAPE  C21510884   6.111   4.549   3.616  0.0435 -0.7836  0.1860
  106SAPE  H15R10885   6.119   4.634   3.685  3.3227 -1.1844  0.4448
  106SAPE  C21610886   6.114   4.412   3.674  0.5881 -0.3863  0.7803
  106SAPE  H16R10887   6.168   4.424   3.770  1.7046  1.4130 -0.0289
  106SAPE  H16S10888   6.163   4.337   3.608 -0.9413 -1.9394  1.3190
  106SAPE  C21710889   5.971   4.370   3.689 -0.0244  0.6895 -0.2576
  106SAPE  H17R10890   5.928   4.359   3.587  2.2346  1.3280 -1.3446
  106SAPE  H17S10891   5.910   4.448   3.739 -3.4781 -1.1091 -1.3140
  106SAPE  C21810892   5.945   4.242   3.778  0.6210  0.2252  0.5948
  106SAPE  H18R10893   5.977   4.251   3.885  0.4816  0.0739  0.6495
  106SAPE  H18S10894   5.989   4.154   3.728  1.3572 -0.5565  2.4985
  106SAPE  C21910895   5.794   4.214   3.799 -0.0600 -0.2096 -0.1303
  106SAPE  H19R10896   5.743   4.161   3.716  2.1777 -1.9400 -0.4800
  106SAPE  H19S10897   5.738   4.308   3.820  0.0808 -0.2118  0.2584
  106SAPE  C22010898   5.780   4.120   3.922  0.3806 -0.6672  0.7828
  106SAPE  H20R10899   5.672   4.122   3.947 -0.1407 -1.6669 -1.1895
  106SAPE  H20S10900   5.829   4.157   4.014 -1.7639  3.5677  0.4619
  106SAPE  H20T10901   5.814   4.019   3.889 -2.1439 -0.4600 -3.1336
  106SAPE   C3310902   5.700   3.973   2.742  0.1461  0.0384  0.2926
  106SAPE   H3X10903   5.630   4.041   2.687 -1.2831 -1.4811  0.1661
  106SAPE   H3Y10904   5.705   3.991   2.852 -2.0742  1.2343  0.2698
  106SAPE   C3410905   5.653   3.833   2.708 -0.1807 -0.6295  0.2137
  106SAPE   H4X10906   5.723   3.755   2.748  1.1435 -1.5926 -3.5506
  106SAPE   H4Y10907   5.660   3.820   2.598  1.0033 -0.9177  0.3061
  106SAPE   C3510908   5.515   3.805   2.770 -0.1999  0.3500  0.2089
  106SAPE   H5X10909   5.512   3.802   2.881 -0.8313  0.3346  0.1988
  106SAPE   H5Y10910   5.483   3.705   2.734 -0.2973  1.0310 -1.7530
  106SAPE   C3610911   5.408   3.901   2.719  0.5035 -0.5002 -0.0081
  106SAPE   H6X10912   5.422   3.902   2.609  0.7486 -1.2995  0.0055
  106SAPE   H6Y10913   5.431   4.002   2.759  1.4602 -0.7883  0.2034
  106SAPE   C3710914   5.267   3.850   2.746  0.8356 -0.2427 -0.6599
  106SAPE   H7X10915   5.235   3.758   2.692  2.4976  0.0224 -2.2172
  106SAPE   H7Y10916   5.193   3.925   2.710  1.4680  1.4593  1.4022
  106SAPE   C3810917   5.242   3.824   2.898 -0.6926  0.5153 -0.3141
  106SAPE   H8X10918   5.329   3.768   2.940 -1.8063 -0.4991  0.7126
  106SAPE   H8Y10919   5.157   3.754   2.914 -0.5454  1.0059  3.5294
  106SAPE   C3910920   5.219   3.944   2.987 -0.3165 -0.5027 -0.1251
  106SAPE   H9X10921   5.110   3.965   2.993 -0.0566  0.6221  1.1395
  106SAPE   H9Y10922   5.268   4.031   2.937  0.5352 -1.8853 -1.7957
  106SAPE  C31010923   5.256   3.914   3.131 -0.1030 -0.4860 -0.4016
  106SAPE  H10X10924   5.358   3.871   3.143  0.0674  0.1657  0.5129
  106SAPE  H10Y10925   5.174   3.845   3.159  0.4185 -0.6836  0.6855
  106SAPE  C31110926   5.255   4.043   3.217 -0.5737  0.5535  0.4819
  106SAPE  H11X10927   5.332   4.115   3.180  0.5964  0.2275  2.1458
  106SAPE  H11Y10928   5.299   4.012   3.315 -0.0980 -0.2033  0.0406
  106SAPE  C31210929   5.117   4.117   3.226  0.0820  0.4967  0.2152
  106SAPE  H12X10930   5.050   4.048   3.282  0.1101  2.1965  2.4706
  106SAPE  H12Y10931   5.070   4.121   3.125  1.8399 -1.5581 -0.7740
  106SAPE  C31310932   5.123   4.254   3.283 -0.0615 -0.0239 -0.4330
  106SAPE  H13X10933   5.202   4.304   3.223 -1.5571  2.0820 -0.7462
  106SAPE  H13Y10934   5.163   4.236   3.385  2.7641 -0.9966 -1.5949
  106SAPE  C31410935   4.992   4.325   3.267  0.5110  0.1018 -0.4026
  106SAPE  H14X10936   4.924   4.290   3.348  0.0909  0.5276 -0.5655
  106SAPE  H14Y10937   4.937   4.278   3.182 -0.7309  1.0106 -0.1385
  106SAPE  C31510938   5.018   4.469   3.252  0.6879  0.2221 -0.0772
  106SAPE  H15X10939   5.088   4.482   3.167  0.8626  2.3432  0.3305
  106SAPE  H15Y10940   5.067   4.508   3.344 -0.0383 -0.4839  0.6260
  106SAPE  C31610941   4.882   4.544   3.223 -0.1734  0.4837  0.2762
  106SAPE  H16X10942   4.830   4.531   3.320  0.6127  2.2205  0.9599
  106SAPE  H16Y10943   4.830   4.491   3.140  0.1404  0.5683  0.0247
  106SAPE  C31710944   4.900   4.690   3.181 -0.4003 -0.6419 -0.0551
  106SAPE  H17X10945   4.987   4.722   3.242  0.6365 -2.6555 -0.3974
  106SAPE  H17Y10946   4.810   4.753   3.201  0.9138  1.2911  0.0302
  106SAPE  C31810947   4.918   4.708   3.026  0.3935 -0.1349 -0.2463
  106SAPE  H18X10948   4.987   4.626   2.996  0.4045 -0.2951  0.1989
  106SAPE  H18Y10949   4.952   4.807   2.990 -1.0101  0.6880  0.5771
  106SAPE  H18Z10950   4.828   4.679   2.967 -1.1420  0.6989  1.5680
  107SAPE     N10951   0.481   2.865   1.650  0.4990  0.1707  0.2166
  107SAPE   HN110952   0.390   2.912   1.667 -0.4548 -1.4758 -0.0709
  107SAPE   HN210953   0.464   2.766   1.622  2.9335 -0.2768  0.1086
  107SAPE   HN310954   0.531   2.858   1.740 -0.1419  1.3617  0.6806
  107SAPE   C1210955   0.567   2.951   1.559 -0.4555 -0.4881 -0.2399
  107SAPE  H12A10956   0.500   3.034   1.526  0.3673  0.9327  1.4345
  107SAPE  H12B10957   0.591   2.893   1.468  1.3260 -0.1647 -0.0168
  107SAPE   C1110958   0.690   3.012   1.628  0.2464  0.2688  0.3778
  107SAPE  H11A10959   0.744   3.075   1.554 -1.5921  1.0127 -0.3936
  107SAPE  H11B10960   0.754   2.930   1.668  0.7558  0.5733  0.1979
  107SAPE     P10961   0.695   3.243   1.755 -0.0831 -0.1560  0.0717
  107SAPE   O1310962   0.696   3.325   1.631  0.3333 -0.0340  0.7041
  107SAPE   O1410963   0.623   3.293   1.873 -0.2646 -0.4436 -0.5594
  107SAPE   O1210964   0.642   3.098   1.730  0.5794 -0.3522  0.2228
  107SAPE   O1110965   0.845   3.228   1.797 -0.4627  0.1597 -0.2486
  107SAPE    C110966   0.890   3.113   1.874 -0.3260  0.1066  1.0604
  107SAPE    HA10967   0.875   3.016   1.822  2.0935  0.6482 -0.8352
  107SAPE    HB10968   1.000   3.101   1.868 -0.1547  1.9185  0.0304
  107SAPE    C210969   0.837   3.100   2.013 -0.0926 -0.1940  0.8310
  107SAPE    HS10970   0.726   3.100   2.012 -0.1405 -2.2269  0.9718
  107SAPE   O2110971   0.876   3.210   2.095  0.1359 -0.2090  0.3943
  107SAPE   C2110972   0.801   3.232   2.198  0.5832  0.0352 -0.7115
  107SAPE   O2210973   0.689   3.185   2.223 -0.2296 -0.0646  0.2566
  107SAPE   C2210974   0.855   3.340   2.290  0.0937  0.3980 -0.4550
  107SAPE   H2R10975   0.914   3.290   2.370 -0.3442  0.5903 -0.0026
  107SAPE   H2S10976   0.929   3.393   2.227 -0.2284  0.1617 -1.0343
  107SAPE    C310977   0.889   2.971   2.070 -0.5648  0.1638  0.6945
  107SAPE    HX10978   0.999   2.970   2.052 -0.6575 -3.1034 -0.3631
  107SAPE    HY10979   0.855   2.885   2.009 -0.4906  1.3876 -1.1443
  107SAPE   O3110980   0.870   2.952   2.209  0.7827 -0.0755  0.1714
  107SAPE   C3110981   0.755   2.893   2.251 -0.9499 -0.8060  0.3430
  107SAPE   O3210982   0.663   2.843   2.184 -0.3279 -0.3909 -0.0454
  107SAPE   C3210983   0.759   2.905   2.404 -0.0066  0.2616 -0.2054
  107SAPE   H2X10984   0.807   3.005   2.413  0.3128 -0.0418  1.9256
  107SAPE   H2Y10985   0.824   2.825   2.444  0.3716  1.6686  2.1618
  107SAPE   C2310986   0.759   3.444   2.346  0.0015 -0.4785 -1.0647
  107SAPE   H3R10987   0.690   3.486   2.269 -1.9454  1.0070  1.3411
  107SAPE   H3S10988   0.820   3.528   2.385 -3.4273  1.8085 -0.1445
  107SAPE   C2410989   0.669   3.400   2.461 -0.4885  0.6357  0.6829
  107SAPE   H4R10990   0.744   3.396   2.544  1.5637 -1.7719 -1.1350
  107SAPE   H4S10991   0.628   3.297   2.455 -3.1282  1.5613  1.3533
  107SAPE   C2510992   0.551   3.493   2.479 -0.0664  0.1665 -0.3001
  107SAPE   H5R10993   0.552   3.584   2.417  0.4667  0.9039  0.7679
  107SAPE   C2610994   0.452   3.485   2.569  0.1660  0.5223 -0.5468
  107SAPE   H6R10995   0.393   3.577   2.583 -1.4609 -0.6972  0.9082
  107SAPE   C2710996   0.431   3.385   2.676 -0.6315 -0.0572 -0.2191
  107SAPE   H7R10997   0.441   3.437   2.773  0.3298 -2.5063  1.0751
  107SAPE   H7S10998   0.504   3.303   2.662  0.4970  1.2750 -2.9763
  107SAPE   C2810999   0.301   3.315   2.652 -0.4480 -0.3627  0.1519
  107SAPE   H8R11000   0.248   3.359   2.567 -0.1374  0.8818  0.5862
  107SAPE   C2911001   0.257   3.203   2.715 -0.1717 -0.4816  0.0572
  107SAPE   H9R11002   0.154   3.175   2.688 -1.0606  1.8538  0.7431
  107SAPE  C21011003   0.309   3.139   2.846  0.8189  0.0952  0.4621
  107SAPE  H10R11004   0.353   3.217   2.911  0.6298  0.0651  0.6271
  107SAPE  H10S11005   0.394   3.072   2.822  0.3675  0.5277 -2.8052
  107SAPE  C21111006   0.203   3.056   2.924 -0.3640 -0.3888 -0.3238
  107SAPE  H11R11007   0.154   3.111   3.005 -0.8653  1.9987 -2.1264
  107SAPE  C21211008   0.179   2.927   2.914  0.1993  0.1896 -0.6572
  107SAPE  H12R11009   0.099   2.882   2.973  0.0388 -0.1121 -1.1006
  107SAPE  C21311010   0.248   2.826   2.831  0.7851  0.4297  0.8650
  107SAPE  H13R11011   0.229   2.730   2.884 -2.6566 -1.5542 -3.3007
  107SAPE  H13S11012   0.359   2.837   2.828  0.8782 -0.4160  0.9961
  107SAPE  C21411013   0.184   2.794   2.696 -0.1106 -0.5297  0.5643
  107SAPE  H14R11014   0.099   2.859   2.669  0.5460 -0.3921 -1.3173
  107SAPE  C21511015   0.242   2.720   2.598 -0.4010 -0.6922  0.1036
  107SAPE  H15R11016   0.205   2.712   2.495  0.9252  2.9076 -0.7963
  107SAPE  C21611017   0.361   2.638   2.622 -0.1661  0.7474  0.2238
  107SAPE  H16R11018   0.399   2.626   2.725  1.1952  1.3750 -0.1669
  107SAPE  H16S11019   0.439   2.672   2.550 -0.9229  2.0702  0.0062
  107SAPE  C21711020   0.338   2.484   2.592 -0.1408  0.4842  0.3946
  107SAPE  H17R11021   0.440   2.440   2.583 -0.7355 -0.6774 -1.0708
  107SAPE  H17S11022   0.282   2.471   2.497  1.6529  2.6131 -1.0769
  107SAPE  C21811023   0.266   2.421   2.710 -0.4677 -0.3095 -0.7103
  107SAPE  H18R11024   0.161   2.459   2.713 -0.3641 -0.0415  0.8482
  107SAPE  H18S11025   0.312   2.461   2.803  2.3865 -2.9681 -0.8433
  107SAPE  C21911026   0.269   2.268   2.714 -0.3414  0.2311 -0.0146
  107SAPE  H19R11027   0.377   2.243   2.722 -0.6380 -0.8595  1.0487
  107SAPE  H19S11028   0.220   2.249   2.616  0.0745  1.6857 -0.5294
  107SAPE  C22011029   0.188   2.200   2.818 -0.5121  0.2730 -0.1374
  107SAPE  H20R11030   0.159   2.095   2.799 -1.5891  0.0924  2.0719
  107SAPE  H20S11031   0.093   2.258   2.827 -0.2099  1.0388 -1.5851
  107SAPE  H20T11032   0.231   2.203   2.920 -0.4527 -1.7320 -0.0700
  107SAPE   C3311033   0.619   2.900   2.460  0.1286 -0.2825 -0.4725
  107SAPE   H3X11034   0.580   2.796   2.462 -2.7536  0.7107  1.2265
  107SAPE   H3Y11035   0.541   2.946   2.396 -0.8237 -0.8126  0.2852
  107SAPE   C3411036   0.603   2.953   2.605 -0.2519 -0.5266 -0.1758
  107SAPE   H4X11037   0.498   2.953   2.641 -0.0346  0.2682  0.4904
  107SAPE   H4Y11038   0.626   3.062   2.614 -2.7481 -0.1044  2.5386
  107SAPE   C3511039   0.699   2.886   2.701  0.4932  0.1918 -0.3781
  107SAPE   H5X11040   0.805   2.913   2.682  0.9460 -0.2380  1.3500
  107SAPE   H5Y11041   0.695   2.775   2.700  0.1624  0.2049 -0.6717
  107SAPE   C3611042   0.680   2.925   2.850 -0.4295  0.3021 -0.2972
  107SAPE   H6X11043   0.592   2.874   2.895 -1.5446  0.4025 -2.2657
  107SAPE   H6Y11044   0.661   3.034   2.855 -2.9755  0.2070 -4.1409
  107SAPE   C3711045   0.810   2.894   2.924 -0.3523 -0.0601  0.3453
  107SAPE   H7X11046   0.898   2.894   2.858 -0.3229 -1.9830  0.3171
  107SAPE   H7Y11047   0.809   2.796   2.977 -1.8448  0.4515  1.3416
  107SAPE   C3811048   0.831   2.995   3.032 -0.0658 -0.3475 -0.2829
  107SAPE   H8X11049   0.823   3.090   2.975  0.0812  0.2176  0.6013
  107SAPE   H8Y11050   0.931   3.004   3.080  0.4271 -3.2119 -0.6131
  107SAPE   C3911051   0.732   2.998   3.151  0.0965 -0.2447 -0.4257
  107SAPE   H9X11052   0.631   2.993   3.106  1.1368 -1.0999 -2.8277
  107SAPE   H9Y11053   0.751   3.101   3.187  0.9431 -1.1998  2.1477
  107SAPE  C31011054   0.760   2.893   3.250 -0.6588  0.4364 -0.6831
  107SAPE  H10X11055   0.868   2.882   3.272 -1.0638  0.4039  1.4975
  107SAPE  H10Y11056   0.727   2.795   3.209  0.1673  0.3346 -1.1135
  107SAPE  C31111057   0.688   2.911   3.391 -0.1807  0.5085 -0.0161
  107SAPE  H11X11058   0.578   2.924   3.377 -0.3458 -0.6087  0.1934
  107SAPE  H11Y11059   0.733   2.996   3.447  0.6812 -1.2359  2.0576
  107SAPE  C31211060   0.707   2.779   3.481 -0.3371  0.1382 -0.0293
  107SAPE  H12X11061   0.812   2.773   3.516 -0.4570 -0.0222  0.3151
  107SAPE  H12Y11062   0.677   2.689   3.423 -3.1800  1.4213 -0.7410
  107SAPE  C31311063   0.617   2.785   3.605  0.2673  0.4773 -0.3618
  107SAPE  H13X11064   0.516   2.822   3.576  0.2049  2.1374  1.6799
  107SAPE  H13Y11065   0.660   2.867   3.667 -0.8690 -0.2107  1.4007
  107SAPE  C31411066   0.610   2.654   3.682  0.2802  0.3951  0.3810
  107SAPE  H14X11067   0.698   2.630   3.746  0.9078  1.3538 -0.1169
  107SAPE  H14Y11068   0.596   2.565   3.617 -0.4928  0.5644  0.3041
  107SAPE  C31511069   0.480   2.643   3.768 -0.2947 -0.2115 -0.3057
  107SAPE  H15X11070   0.478   2.539   3.809 -2.6291  0.5034  1.6201
  107SAPE  H15Y11071   0.386   2.659   3.712  0.1493 -1.4525 -1.4778
  107SAPE  C31611072   0.471   2.733   3.891  0.0546  0.1102 -0.0516
  107SAPE  H16X11073   0.474   2.842   3.869 -0.8979 -0.0025 -0.8335
  107SAPE  H16Y11074   0.562   2.716   3.952 -0.6417 -1.6920  0.5340
  107SAPE  C31711075   0.350   2.712   3.976  0.2608  0.2226  0.1573
  107SAPE  H17X11076   0.381   2.754   4.074 -1.5658 -0.3631  1.0135
  107SAPE  H17Y11077   0.329   2.604   3.989 -2.9613  0.6892 -0.3943
  107SAPE  C31811078   0.232   2.783   3.928 -0.2651  0.0226  0.6638
  107SAPE  H18X11079   0.258   2.891   3.922 -2.2289  0.7193  2.8889
  107SAPE  H18Y11080   0.153   2.781   4.006 -0.1581  4.3515  1.1551
  107SAPE  H18Z11081   0.209   2.742   3.827  2.1992  0.9903 -0.3543
  108SAPE     N11082   0.209   4.003   1.923  0.1264  0.2948  0.0191
  108SAPE   HN111083   0.153   3.998   1.835 -1.1014 -0.6112  0.8123
  108SAPE   HN211084   0.170   3.939   1.995 -0.7178  1.3782  0.5684
  108SAPE   HN311085   0.210   4.103   1.952 -2.4243  0.7147 -1.0265
  108SAPE   C1211086   0.345   3.968   1.900 -0.6288 -0.4253  0.4526
  108SAPE  H12A11087   0.389   4.050   1.839 -4.0009  0.3374 -1.1900
  108SAPE  H12B11088   0.353   3.881   1.830  2.2429  1.1020 -1.3483
  108SAPE   C1111089   0.426   3.905   2.016  0.0989  0.5399 -0.4120
  108SAPE  H11A11090   0.437   3.984   2.094 -1.1755  0.5881 -0.2576
  108SAPE  H11B11091   0.526   3.882   1.975  1.2511  0.4999  2.2325
  108SAPE     P11092   0.437   3.681   2.146  0.4958 -0.2427  0.0337
  108SAPE   O1311093   0.338   3.580   2.197 -0.4734  0.4997  0.2037
  108SAPE   O1411094   0.538   3.630   2.050 -0.0520  0.1667 -0.3371
  108SAPE   O1211095   0.358   3.795   2.070 -0.1548 -0.0848  0.0371
  108SAPE   O1111096   0.492   3.770   2.268 -0.3584 -0.0833  0.4160
  108SAPE    C111097   0.395   3.818   2.358  0.5123 -0.4225  0.5939
  108SAPE    HA11098   0.329   3.895   2.313  2.0348 -0.3143 -1.6187
  108SAPE    HB11099   0.333   3.733   2.395 -0.6046 -0.5442 -1.3526
  108SAPE    C211100   0.470   3.883   2.480 -0.1180 -0.1571 -0.8848
  108SAPE    HS11101   0.510   3.980   2.445 -2.4818  0.6658 -1.5270
  108SAPE   O2111102   0.575   3.794   2.529 -0.2185  0.2204 -0.0128
  108SAPE   C2111103   0.693   3.849   2.538  0.0594  0.4742 -0.6065
  108SAPE   O2211104   0.716   3.965   2.510 -0.1416 -0.0933  0.3103
  108SAPE   C2211105   0.794   3.755   2.609  0.3223 -0.5673  0.2273
  108SAPE   H2R11106   0.785   3.661   2.550 -0.3988 -0.2334 -0.2133
  108SAPE   H2S11107   0.894   3.798   2.588 -0.1378  0.4115  0.0170
  108SAPE    C311108   0.372   3.925   2.590 -0.0111  0.1849  0.0416
  108SAPE    HX11109   0.424   3.995   2.659  2.3600 -1.5161  0.0855
  108SAPE    HY11110   0.354   3.825   2.637  0.0710  0.3028  0.3284
  108SAPE   O3111111   0.248   3.983   2.539  0.1664  0.1491  0.1114
  108SAPE   C3111112   0.256   4.113   2.499  0.0481  0.7680  0.0573
  108SAPE   O3211113   0.357   4.181   2.492  0.8668  0.2927  0.0979
  108SAPE   C3211114   0.117   4.163   2.469  0.3759  0.0166 -0.2354
  108SAPE   H2X11115   0.046   4.077   2.466 -1.0935  1.1951 -0.4822
  108SAPE   H2Y11116   0.133   4.223   2.377  0.4503  0.9642  0.3870
  108SAPE   C2311117   0.757   3.737   2.755 -0.2713 -0.2269  0.4827
  108SAPE   H3R11118   0.649   3.718   2.773 -0.8871  0.8566 -1.7360
  108SAPE   H3S11119   0.770   3.831   2.812 -0.0227 -0.3327  0.6020
  108SAPE   C2411120   0.834   3.616   2.817  0.4687 -0.0741  0.2893
  108SAPE   H4R11121   0.940   3.620   2.782  0.6253  1.0204  0.8414
  108SAPE   H4S11122   0.791   3.520   2.780 -1.7896  1.0508 -0.1339
  108SAPE   C2511123   0.865   3.628   2.967 -0.3061  0.7514  0.1519
  108SAPE   H5R11124   0.934   3.711   2.990 -0.1129  0.1945  1.6929
  108SAPE   C2611125   0.834   3.547   3.070 -0.5964 -0.2371  0.1425
  108SAPE   H6R11126   0.881   3.580   3.164  0.4924 -0.8949 -0.1504
  108SAPE   C2711127   0.748   3.424   3.075  0.2853  0.6252 -0.0536
  108SAPE   H7R11128   0.741   3.391   3.181  0.0575 -0.8243 -0.4953
  108SAPE   H7S11129   0.800   3.343   3.019 -0.1483 -0.2464  0.7766
  108SAPE   C2811130   0.612   3.445   3.016  0.5951 -0.7642  0.6510
  108SAPE   H8R11131   0.607   3.516   2.932  2.3407 -1.2321  0.0896
  108SAPE   C2911132   0.502   3.399   3.059  0.9571 -0.1223  0.3472
  108SAPE   H9R11133   0.413   3.428   3.000  2.2270 -0.0974 -1.6409
  108SAPE  C21011134   0.478   3.295   3.172  0.1689  0.6149 -0.3312
  108SAPE  H10R11135   0.571   3.236   3.187 -2.6611 -3.5275  3.9875
  108SAPE  H10S11136   0.402   3.220   3.144  0.3802 -0.5071  1.8563
  108SAPE  C21111137   0.421   3.363   3.292  0.1315 -0.0863 -1.2952
  108SAPE  H11R11138   0.424   3.472   3.281 -0.3566 -0.0993 -1.5949
  108SAPE  C21211139   0.359   3.307   3.405  0.0236  0.4363  0.0851
  108SAPE  H12R11140   0.352   3.373   3.492  1.3942 -0.9849  1.3307
  108SAPE  C21311141   0.343   3.156   3.412  0.1521 -0.8909  0.0502
  108SAPE  H13R11142   0.310   3.144   3.518  0.5398 -0.1224  0.2685
  108SAPE  H13S11143   0.440   3.102   3.419 -0.5199 -2.0815  0.4790
  108SAPE  C21411144   0.245   3.088   3.312 -0.4811 -0.4125 -0.0156
  108SAPE  H14R11145   0.221   3.129   3.213 -0.7341 -1.0909 -0.2481
  108SAPE  C21511146   0.172   2.974   3.342  0.1790 -1.1957  0.2397
  108SAPE  H15R11147   0.113   2.946   3.253  2.7475 -0.6247 -1.7811
  108SAPE  C21611148   0.172   2.880   3.458 -0.0510 -0.8229 -0.1920
  108SAPE  H16R11149   0.180   2.944   3.548 -1.5202 -0.6662 -0.1411
  108SAPE  H16S11150   0.254   2.806   3.456 -0.4626 -1.3478  1.2326
  108SAPE  C21711151   0.042   2.798   3.473 -0.3094 -0.2373  0.8109
  108SAPE  H17R11152   0.048   2.732   3.384  0.7682 -0.1768  0.8266
  108SAPE  H17S11153  -0.048   2.862   3.462 -3.1568 -3.5275  2.7173
  108SAPE  C21811154   0.039   2.722   3.608  0.5736 -0.4829  0.6003
  108SAPE  H18R11155   0.059   2.786   3.697  1.2473 -0.5830  0.5199
  108SAPE  H18S11156   0.125   2.652   3.610 -0.7612 -2.2244 -0.0457
  108SAPE  C21911157  -0.091   2.636   3.615  0.5427 -0.3377 -0.0091
  108SAPE  H19R11158  -0.181   2.698   3.595 -0.2783 -0.5977  2.4789
  108SAPE  H19S11159  -0.108   2.598   3.718  1.7805  2.7275  1.4478
  108SAPE  C22011160  -0.099   2.516   3.510 -0.5074  0.1314 -0.2070
  108SAPE  H20R11161  -0.001   2.466   3.498 -2.1354 -3.1343 -1.2056
  108SAPE  H20S11162  -0.119   2.556   3.408 -0.8994 -0.0778 -0.2169
  108SAPE  H20T11163  -0.168   2.432   3.534  0.0551 -0.3867 -0.3906
  108SAPE   C3311164   0.074   4.262   2.576  0.1337 -0.4379 -0.3913
  108SAPE   H3X11165   0.152   4.336   2.604 -0.5603  0.1431  0.0896
  108SAPE   H3Y11166   0.047   4.195   2.660 -0.5757 -2.6164 -2.2486
  108SAPE   C3411167  -0.049   4.344   2.544  0.1695 -0.4115  0.0174
  108SAPE   H4X11168  -0.024   4.411   2.459 -0.6574  0.3472  0.3472
  108SAPE   H4Y11169  -0.071   4.424   2.619 -1.6836 -0.1225 -0.7861
  108SAPE   C3511170  -0.178   4.261   2.523 -0.0454 -0.4743  0.4481
  108SAPE   H5X11171  -0.258   4.319   2.472  1.8382  0.2958 -1.7728
  108SAPE   H5Y11172  -0.166   4.186   2.442  0.5692  0.8849 -0.7609
  108SAPE   C3611173  -0.229   4.186   2.650 -0.0981 -0.3873 -0.7207
  108SAPE   H6X11174  -0.248   4.258   2.732  3.3277  0.6539 -0.6807
  108SAPE   H6Y11175  -0.145   4.117   2.676 -0.4303 -0.3839  0.3977
  108SAPE   C3711176  -0.361   4.115   2.608 -0.3976 -0.5299 -0.4882
  108SAPE   H7X11177  -0.339   4.031   2.539 -0.8235 -0.8008 -0.2915
  108SAPE   H7Y11178  -0.433   4.190   2.567 -0.7648  0.1913  1.3787
  108SAPE   C3811179  -0.424   4.052   2.732  0.3042  0.5406  0.2742
  108SAPE   H8X11180  -0.515   3.991   2.715 -0.2828  1.3522  0.4461
  108SAPE   H8Y11181  -0.447   4.139   2.797  2.1218 -0.5380  2.5151
  108SAPE   C3911182  -0.322   3.968   2.814 -0.1660  0.2890  0.8064
  108SAPE   H9X11183  -0.231   4.023   2.845  1.3273 -0.4338 -1.9223
  108SAPE   H9Y11184  -0.287   3.890   2.742 -0.4636  1.2291 -0.3950
  108SAPE  C31011185  -0.385   3.909   2.938  0.3053  0.1312  0.1224
  108SAPE  H10X11186  -0.475   3.848   2.913 -0.1361  0.3449  1.1153
  108SAPE  H10Y11187  -0.437   3.986   3.000 -1.0277 -1.6251  1.2994
  108SAPE  C31111188  -0.290   3.828   3.027 -0.3372 -0.4930 -0.4007
  108SAPE  H11X11189  -0.211   3.903   3.050 -1.6369  1.0621 -0.8197
  108SAPE  H11Y11190  -0.255   3.731   2.985  0.7463 -0.6937  0.8917
  108SAPE  C31211191  -0.355   3.781   3.159 -0.2961  0.0631 -0.6775
  108SAPE  H12X11192  -0.438   3.712   3.134 -0.6321 -0.8768  2.5699
  108SAPE  H12Y11193  -0.401   3.861   3.220 -1.1525 -1.4483  0.7424
  108SAPE  C31311194  -0.251   3.706   3.253 -0.6443  0.7560 -0.2698
  108SAPE  H13X11195  -0.211   3.611   3.212 -2.9705  0.2002 -1.3894
  108SAPE  H13Y11196  -0.309   3.672   3.342 -1.5917 -1.0425 -1.5074
  108SAPE  C31411197  -0.131   3.790   3.306  1.1669  0.0091 -0.3514
  108SAPE  H14X11198  -0.054   3.796   3.226  4.1840 -0.9922  2.2751
  108SAPE  H14Y11199  -0.082   3.740   3.392  1.8756  1.0245 -0.1520
  108SAPE  C31511200  -0.168   3.932   3.364  0.4498 -0.1469  0.2726
  108SAPE  H15X11201  -0.207   3.932   3.468 -0.3609 -0.4195 -0.0254
  108SAPE  H15Y11202  -0.245   3.979   3.300  1.1490  1.1075  0.3270
  108SAPE  C31611203  -0.046   4.026   3.356  0.9923 -0.4634  0.0207
  108SAPE  H16X11204  -0.012   4.049   3.253 -1.8848  0.4936 -0.8083
  108SAPE  H16Y11205   0.045   3.986   3.406  1.9737  1.7493  0.1269
  108SAPE  C31711206  -0.089   4.173   3.398 -0.2885 -0.2362  0.0712
  108SAPE  H17X11207  -0.174   4.210   3.337  1.2596  1.5520 -1.1392
  108SAPE  H17Y11208  -0.002   4.238   3.374  0.3025 -0.9466  0.2459
  108SAPE  C31811209  -0.118   4.191   3.549  0.1544  0.0970 -0.5631
  108SAPE  H18X11210  -0.113   4.298   3.579  1.2315 -0.0971  0.0056
  108SAPE  H18Y11211  -0.052   4.128   3.612  1.6132  0.5449 -1.6077
  108SAPE  H18Z11212  -0.225   4.161   3.557  0.5335 -0.8637  1.5629
  109SAPE     N11213   4.405   1.773   1.950  1.0934 -0.4264  0.0375
  109SAPE   HN111214   4.366   1.703   1.884  2.7276 -2.7897  1.4097
  109SAPE   HN211215   4.320   1.796   2.006  0.3685 -2.1788 -0.2879
  109SAPE   HN311216   4.444   1.860   1.909  0.6289 -0.9549 -1.5991
  109SAPE   C1211217   4.497   1.704   2.049  0.2014  0.9216  0.8613
  109SAPE  H12A11218   4.514   1.773   2.135  3.4715  2.0954 -0.5426
  109SAPE  H12B11219   4.594   1.690   1.996 -0.8373  1.3523 -1.2865
  109SAPE   C1111220   4.431   1.575   2.097 -0.2212 -0.3254 -0.6043
  109SAPE  H11A11221   4.339   1.593   2.157 -0.1643 -0.8865 -0.3419
  109SAPE  H11B11222   4.502   1.532   2.170 -0.7215  1.2891  0.9041
  109SAPE     P11223   4.487   1.378   1.946  0.0945 -0.1070  0.0933
  109SAPE   O1311224   4.434   1.311   1.825 -0.1548  0.0644 -0.2133
  109SAPE   O1411225   4.621   1.433   1.935  0.6669 -0.2970 -0.3697
  109SAPE   O1211226   4.388   1.489   1.994  0.2369  0.7000  0.0164
  109SAPE   O1111227   4.478   1.278   2.065  0.5157 -0.1958  0.4819
  109SAPE    C111228   4.349   1.226   2.111 -0.5546  0.4008  0.3449
  109SAPE    HA11229   4.262   1.278   2.066 -0.7084 -0.9030 -0.9323
  109SAPE    HB11230   4.334   1.122   2.077  0.6884 -0.1624  1.4288
  109SAPE    C211231   4.333   1.216   2.263 -0.6178  0.5537  0.3692
  109SAPE    HS11232   4.331   1.318   2.307  2.4076  0.7345  0.2951
  109SAPE   O2111233   4.444   1.164   2.338 -0.1548 -0.1217 -0.3274
  109SAPE   C2111234   4.553   1.232   2.360 -0.1204 -0.0904 -0.8104
  109SAPE   O2211235   4.574   1.352   2.340 -0.1642 -0.2674 -0.1836
  109SAPE   C2211236   4.658   1.139   2.423 -0.0668  0.3880 -0.1036
  109SAPE   H2R11237   4.629   1.120   2.529  1.0147 -0.4322  0.0593
  109SAPE   H2S11238   4.674   1.047   2.362  4.5730  2.3395 -2.3449
  109SAPE    C311239   4.210   1.130   2.296  0.0446  0.0365 -0.4185
  109SAPE    HX11240   4.243   1.024   2.288  1.7862  0.3173  2.0190
  109SAPE    HY11241   4.137   1.141   2.213  1.2688 -1.3201 -1.7470
  109SAPE   O3111242   4.168   1.152   2.433 -0.1440 -0.1711  0.5169
  109SAPE   C3111243   4.188   1.067   2.529 -0.4186 -0.5501 -0.1333
  109SAPE   O3211244   4.231   0.957   2.514 -0.1360 -0.1550  0.2199
  109SAPE   C3211245   4.137   1.134   2.652  0.7000  0.4213 -0.5631
  109SAPE   H2X11246   4.050   1.200   2.632 -0.4847 -0.3294  1.7786
  109SAPE   H2Y11247   4.221   1.200   2.684  1.2913 -0.7424  0.3707
  109SAPE   C2311248   4.799   1.201   2.412  0.2242 -0.1411  0.3971
  109SAPE   H3R11249   4.805   1.304   2.453  0.0384  0.2784 -0.5819
  109SAPE   H3S11250   4.825   1.190   2.304 -4.1946 -0.3904 -0.8398
  109SAPE   C2411251   4.910   1.128   2.491  0.0953  0.2778 -0.1359
  109SAPE   H4R11252   5.002   1.139   2.429 -0.9198 -0.1349 -1.7808
  109SAPE   H4S11253   4.887   1.019   2.494  1.0750  0.0715  1.0351
  109SAPE   C2511254   4.940   1.181   2.625 -0.3587 -0.5491  0.0179
  109SAPE   H5R11255   4.866   1.160   2.704  1.9843 -2.1038  1.9409
  109SAPE   C2611256   5.050   1.259   2.659 -0.0560  0.1047  0.3114
  109SAPE   H6R11257   5.046   1.293   2.764  0.0187 -1.4484  0.8567
  109SAPE   C2711258   5.171   1.306   2.579  0.1382  0.3965 -0.8246
  109SAPE   H7R11259   5.212   1.395   2.632 -0.2467  0.5687 -0.8089
  109SAPE   H7S11260   5.134   1.342   2.480  1.1357  2.3892 -0.5381
  109SAPE   C2811261   5.273   1.198   2.554 -0.1249  1.1202 -0.0597
  109SAPE   H8R11262   5.232   1.120   2.489 -0.4892  1.6940 -0.5325
  109SAPE   C2911263   5.395   1.191   2.599 -0.2764 -0.6686 -0.9542
  109SAPE   H9R11264   5.460   1.103   2.582 -0.0237 -0.6326 -0.1923
  109SAPE  C21011265   5.457   1.304   2.684  0.5113 -0.2924 -0.4426
  109SAPE  H10R11266   5.447   1.281   2.792 -0.8470 -0.2739 -0.5491
  109SAPE  H10S11267   5.404   1.401   2.670  1.1037 -0.0896 -1.3354
  109SAPE  C21111268   5.599   1.344   2.650  0.1905 -0.5772 -0.2719
  109SAPE  H11R11269   5.610   1.386   2.549 -1.2790 -1.6018 -0.8870
  109SAPE  C21211270   5.708   1.323   2.732 -0.5576  0.5009 -0.3038
  109SAPE  H12R11271   5.811   1.309   2.698 -0.0850 -2.1545  1.8962
  109SAPE  C21311272   5.705   1.265   2.870 -0.0918  0.2504 -0.4269
  109SAPE  H13R11273   5.609   1.286   2.923  0.2911  1.6187 -0.2534
  109SAPE  H13S11274   5.770   1.335   2.927  0.7984 -1.0561  0.1971
  109SAPE  C21411275   5.753   1.124   2.902  0.6735  0.3345  0.0880
  109SAPE  H14R11276   5.838   1.096   2.837  0.4339 -2.3256  0.8313
  109SAPE  C21511277   5.714   1.034   2.997  0.0727 -0.7195 -0.4984
  109SAPE  H15R11278   5.770   0.939   2.988 -0.9608 -1.2970 -1.0033
  109SAPE  C21611279   5.609   1.056   3.107 -0.3717 -0.1328  0.1443
  109SAPE  H16R11280   5.532   0.976   3.102 -1.7673  1.0941  1.0798
  109SAPE  H16S11281   5.562   1.156   3.096 -0.2942 -0.1345 -0.2433
  109SAPE  C21711282   5.667   1.056   3.251 -0.3555 -0.2135  0.0641
  109SAPE  H17R11283   5.739   1.140   3.269  2.6626 -3.0198  2.6497
  109SAPE  H17S11284   5.729   0.965   3.263  0.1484  0.2337  1.0481
  109SAPE  C21811285   5.554   1.078   3.355  0.9994  0.1392 -0.2542
  109SAPE  H18R11286   5.481   0.998   3.331  0.3186  1.0854 -1.4608
  109SAPE  H18S11287   5.501   1.176   3.349 -0.1449 -0.4037  0.4610
  109SAPE  C21911288   5.616   1.055   3.493  0.4513  0.1363  0.0444
  109SAPE  H19R11289   5.713   1.110   3.490  0.4599  0.1192 -0.0031
  109SAPE  H19S11290   5.635   0.947   3.507  1.1574  0.4753  2.0444
  109SAPE  C22011291   5.536   1.104   3.616 -0.4631  0.1361 -0.5196
  109SAPE  H20R11292   5.435   1.058   3.609 -1.1748  1.6663 -0.6653
  109SAPE  H20S11293   5.518   1.213   3.627 -2.4615 -0.3076  1.3693
  109SAPE  H20T11294   5.589   1.069   3.708 -0.1107 -1.6581 -1.3527
  109SAPE   C3311295   4.080   1.029   2.758  0.2554 -0.7223  0.8104
  109SAPE   H3X11296   4.171   0.969   2.782  0.6386 -0.2582  0.5278
  109SAPE   H3Y11297   3.998   0.973   2.708  1.3032 -0.6879 -1.0328
  109SAPE   C3411298   4.038   1.100   2.890  0.4334  0.7316 -0.0308
  109SAPE   H4X11299   4.000   1.020   2.958 -0.6785  0.4125 -0.9965
  109SAPE   H4Y11300   3.954   1.170   2.871  1.3589  1.6815 -0.6983
  109SAPE   C3511301   4.161   1.150   2.972 -0.6502 -0.2391  0.8089
  109SAPE   H5X11302   4.216   1.234   2.924 -0.7825 -1.2003 -1.0931
  109SAPE   H5Y11303   4.225   1.060   2.980 -0.5090 -0.1378  0.8163
  109SAPE   C3611304   4.129   1.196   3.112  0.3727 -0.1293  0.8282
  109SAPE   H6X11305   4.063   1.121   3.161 -2.3296  1.8520  0.4410
  109SAPE   H6Y11306   4.050   1.273   3.099  1.0286  0.6825  1.6099
  109SAPE   C3711307   4.257   1.263   3.170  0.7074 -0.1759 -1.0176
  109SAPE   H7X11308   4.291   1.349   3.108 -0.2893  2.4771  1.8766
  109SAPE   H7Y11309   4.335   1.185   3.152 -0.1616 -0.7766 -2.3520
  109SAPE   C3811310   4.235   1.308   3.318  0.1013 -0.2496  0.4050
  109SAPE   H8X11311   4.149   1.377   3.335 -0.4371 -0.1887 -2.1666
  109SAPE   H8Y11312   4.321   1.370   3.354  1.4589 -1.0854 -1.2621
  109SAPE   C3911313   4.221   1.189   3.416 -0.0977 -0.0665 -0.4896
  109SAPE   H9X11314   4.288   1.109   3.378 -2.5430 -2.9246  0.8750
  109SAPE   H9Y11315   4.116   1.154   3.404 -0.1810  0.1835 -0.5011
  109SAPE  C31011316   4.258   1.201   3.564 -0.5743  0.1851 -0.1586
  109SAPE  H10X11317   4.179   1.250   3.625 -1.0891 -1.0330  0.1825
  109SAPE  H10Y11318   4.352   1.256   3.581 -0.0172 -1.4823  2.7377
  109SAPE  C31111319   4.272   1.070   3.649 -0.0410 -0.3345  0.3043
  109SAPE  H11X11320   4.360   1.008   3.619  0.4172  0.8463 -0.9080
  109SAPE  H11Y11321   4.182   1.005   3.647  2.3699 -4.1239  2.2197
  109SAPE  C31211322   4.282   1.101   3.800 -0.1706  0.8747  0.3206
  109SAPE  H12X11323   4.194   1.156   3.840 -0.5862 -0.6651  1.6489
  109SAPE  H12Y11324   4.372   1.166   3.807  0.4302  0.3290 -1.5949
  109SAPE  C31311325   4.309   0.973   3.878  0.3106 -0.0887 -0.8073
  109SAPE  H13X11326   4.376   0.903   3.825 -0.1023 -0.2579 -1.1091
  109SAPE  H13Y11327   4.210   0.924   3.887  0.9197 -1.1114  0.5897
  109SAPE  C31411328   4.347   0.990   4.031 -0.0603  0.8550 -0.5513
  109SAPE  H14X11329   4.455   1.016   4.030 -0.1054  1.0365 -0.9093
  109SAPE  H14Y11330   4.354   0.885   4.068  1.3357  1.3555  0.7133
  109SAPE  C31511331   4.265   1.080   4.116 -0.3572  0.2383  0.1607
  109SAPE  H15X11332   4.169   1.030   4.142  1.2600 -2.6305  1.0165
  109SAPE  H15Y11333   4.250   1.178   4.065  2.7778  0.9035  0.2855
  109SAPE  C31611334   4.326   1.116   4.250  0.4317  0.9303 -0.5104
  109SAPE  H16X11335   4.267   1.184   4.315  0.7556 -2.0776  3.2825
  109SAPE  H16Y11336   4.415   1.180   4.230  0.8959  0.1849 -0.8921
  109SAPE  C31711337   4.358   0.993   4.332  0.6389  0.1278  0.4224
  109SAPE  H17X11338   4.437   1.018   4.405  1.4484  1.9406 -0.9887
  109SAPE  H17Y11339   4.396   0.903   4.279  0.1390 -0.9207  1.7759
  109SAPE  C31811340   4.233   0.954   4.417 -0.4306 -0.0731  0.0294
  109SAPE  H18X11341   4.268   0.916   4.515  1.3887 -1.7346 -1.1897
  109SAPE  H18Y11342   4.172   0.875   4.367  0.3391  0.0951 -1.2425
  109SAPE  H18Z11343   4.168   1.041   4.440  1.2253  0.5581  2.8004
  110SAPE     N11344   3.066   6.763   1.709 -0.8705  0.2720 -0.3228
  110SAPE   HN111345   3.142   6.832   1.728  1.5589 -2.6738  1.5992
  110SAPE   HN211346   3.095   6.696   1.635  1.5279  0.2506  0.5408
  110SAPE   HN311347   2.974   6.808   1.691 -1.1690 -0.1776  0.0431
  110SAPE   C1211348   3.063   6.695   1.841  1.2027 -0.3375  0.1805
  110SAPE  H12A11349   2.977   6.625   1.840  0.6552  0.3190  0.5905
  110SAPE  H12B11350   3.041   6.764   1.925  1.0071 -1.4869  1.1074
  110SAPE   C1111351   3.200   6.624   1.868 -0.2608 -0.5596 -1.1587
  110SAPE  H11A11352   3.197   6.578   1.969 -3.0831  1.4634 -0.1829
  110SAPE  H11B11353   3.287   6.693   1.862 -0.7782  0.0190 -2.5076
  110SAPE     P11354   3.142   6.381   1.805 -0.3477  0.0017 -0.4900
  110SAPE   O1311355   3.048   6.369   1.694 -0.0357  0.3565 -0.7353
  110SAPE   O1411356   3.242   6.271   1.820  0.0504 -0.1845 -0.4589
  110SAPE   O1211357   3.217   6.521   1.779 -0.0499 -0.1563 -0.2495
  110SAPE   O1111358   3.049   6.392   1.933  0.2025  0.0232  0.6423
  110SAPE    C111359   3.021   6.269   2.003  0.0145  0.5063  0.2315
  110SAPE    HA11360   2.961   6.201   1.940 -1.4657  3.3439 -1.6648
  110SAPE    HB11361   3.116   6.220   2.034  0.1031  0.2285 -0.4855
  110SAPE    C211362   2.955   6.290   2.139  0.0476  0.1166  0.0113
  110SAPE    HS11363   2.865   6.354   2.127  1.4774  2.1950 -0.3921
  110SAPE   O2111364   3.044   6.354   2.231 -0.1539  0.6053  0.0415
  110SAPE   C2111365   3.047   6.486   2.223 -0.0754 -0.0298 -0.4870
  110SAPE   O2211366   2.991   6.554   2.139  0.1220  0.2041  0.4144
  110SAPE   C2211367   3.153   6.545   2.312  0.3437  0.0289 -0.3102
  110SAPE   H2R11368   3.245   6.485   2.305  1.9252  2.4011 -1.2338
  110SAPE   H2S11369   3.179   6.645   2.271 -0.3370 -0.0603 -0.9846
  110SAPE    C311370   2.904   6.154   2.196 -0.8593 -0.4957 -0.0805
  110SAPE    HX11371   2.867   6.092   2.111  1.4096  1.9135 -3.0626
  110SAPE    HY11372   2.997   6.106   2.231 -0.6196 -0.6737 -0.9441
  110SAPE   O3111373   2.817   6.181   2.307  0.2110  0.5257  0.4208
  110SAPE   C3111374   2.752   6.072   2.348 -0.3107 -0.4865  0.8894
  110SAPE   O3211375   2.770   5.961   2.292 -0.3991 -0.3293  0.0066
  110SAPE   C3211376   2.674   6.105   2.470  0.2236 -0.2261  0.2589
  110SAPE   H2X11377   2.591   6.032   2.473  0.5726 -0.5953  1.3300
  110SAPE   H2Y11378   2.638   6.208   2.449 -1.4325 -0.7362  0.4131
  110SAPE   C2311379   3.101   6.535   2.454  0.7649 -0.0232  0.2725
  110SAPE   H3R11380   3.184   6.559   2.523  1.6414 -1.1938 -0.3340
  110SAPE   H3S11381   3.058   6.436   2.481 -0.1631  0.6154  1.1974
  110SAPE   C2411382   2.986   6.638   2.484  1.1682 -0.1334 -0.3424
  110SAPE   H4R11383   2.953   6.608   2.586 -0.7865  2.3137 -0.1439
  110SAPE   H4S11384   2.903   6.621   2.412  0.1889 -0.7550  0.8971
  110SAPE   C2511385   3.026   6.782   2.490  0.3093 -0.6066  0.2085
  110SAPE   H5R11386   3.020   6.830   2.391  0.9186 -1.7277 -0.3987
  110SAPE   C2611387   3.051   6.846   2.604  0.6305  0.8076  0.3141
  110SAPE   H6R11388   3.060   6.956   2.599  1.6544  0.6962 -0.7203
  110SAPE   C2711389   3.054   6.797   2.750 -0.0961  0.9320  0.2446
  110SAPE   H7R11390   3.123   6.866   2.804 -0.4530  2.1504 -0.7952
  110SAPE   H7S11391   3.102   6.697   2.749 -2.0012 -0.0841  2.2487
  110SAPE   C2811392   2.922   6.777   2.817  0.2982 -0.2227 -0.0843
  110SAPE   H8R11393   2.842   6.740   2.751 -0.7952 -0.9240  1.5619
  110SAPE   C2911394   2.900   6.786   2.946 -0.0741 -0.6127 -0.1524
  110SAPE   H9R11395   2.802   6.759   2.990  0.4346 -1.3628  0.5480
  110SAPE  C21011396   3.001   6.820   3.058 -0.3841  0.5681  0.0857
  110SAPE  H10R11397   3.053   6.916   3.040 -0.2865  0.3283 -0.9703
  110SAPE  H10S11398   3.090   6.753   3.057 -0.4051  0.5398  0.1139
  110SAPE  C21111399   2.925   6.820   3.189 -0.0453  0.6112  0.3620
  110SAPE  H11R11400   2.820   6.788   3.181  0.0135  0.5421 -0.1410
  110SAPE  C21211401   2.975   6.854   3.308 -0.1625  0.2210  0.3348
  110SAPE  H12R11402   2.900   6.861   3.388 -1.5153  1.6001 -0.9875
  110SAPE  C21311403   3.121   6.885   3.345  0.1572 -0.3034 -0.6942
  110SAPE  H13R11404   3.131   6.992   3.372  2.6650 -0.2430 -1.5814
  110SAPE  H13S11405   3.190   6.874   3.258  0.9629 -1.1472  0.0353
  110SAPE  C21411406   3.175   6.825   3.476 -0.5457  0.1265 -0.1041
  110SAPE  H14R11407   3.220   6.727   3.455 -1.8823 -0.4231 -0.5534
  110SAPE  C21511408   3.172   6.865   3.605 -0.3168  0.5079  0.0433
  110SAPE  H15R11409   3.237   6.807   3.673  2.0207  1.2939 -1.3938
  110SAPE  C21611410   3.135   7.000   3.656  0.2717  0.3421 -0.2689
  110SAPE  H16R11411   3.119   7.069   3.570  1.4438 -0.3906 -1.1051
  110SAPE  H16S11412   3.219   7.046   3.712  2.6043 -2.7637 -0.8914
  110SAPE  C21711413   3.011   7.004   3.743 -0.0990 -0.3957 -0.4170
  110SAPE  H17R11414   2.925   6.950   3.698 -0.0271  0.2353 -1.3509
  110SAPE  H17S11415   2.978   7.110   3.756  0.5704 -0.1445 -0.7029
  110SAPE  C21811416   3.046   6.954   3.882  0.0291 -0.4538 -0.4679
  110SAPE  H18R11417   3.127   7.018   3.924 -0.7143 -0.2870  0.7518
  110SAPE  H18S11418   3.085   6.851   3.868  1.1765 -0.2495  0.9863
  110SAPE  C21911419   2.924   6.953   3.976 -0.3350 -0.0463 -0.3318
  110SAPE  H19R11420   2.840   6.909   3.918  0.0391  0.0402 -0.9415
  110SAPE  H19S11421   2.892   7.054   4.010  0.1381 -0.4521  1.3864
  110SAPE  C22011422   2.944   6.869   4.105  0.1456  0.4914 -0.0891
  110SAPE  H20R11423   2.921   6.763   4.078 -1.2140  1.0223 -1.1110
  110SAPE  H20S11424   2.868   6.895   4.182 -1.3266 -3.3465 -0.0013
  110SAPE  H20T11425   3.049   6.884   4.136 -0.0144  0.6595  0.3794
  110SAPE   C3311426   2.755   6.100   2.603  0.2402 -0.7724  0.2972
  110SAPE   H3X11427   2.678   6.126   2.679 -1.5149 -1.1047 -1.2980
  110SAPE   H3Y11428   2.832   6.180   2.610 -1.0477  0.4879  0.5775
  110SAPE   C3411429   2.813   5.963   2.633 -0.0065  0.3682  0.0635
  110SAPE   H4X11430   2.875   5.926   2.549 -0.1361 -0.1141  0.1797
  110SAPE   H4Y11431   2.731   5.890   2.648 -1.1038  1.7106  0.9027
  110SAPE   C3511432   2.916   5.982   2.749 -0.2234 -0.0986 -0.4674
  110SAPE   H5X11433   2.991   6.062   2.734  3.1149 -2.7679  0.6349
  110SAPE   H5Y11434   2.977   5.891   2.769  0.6003  0.8080  1.3913
  110SAPE   C3611435   2.849   6.022   2.887 -0.5301 -0.7417 -0.1955
  110SAPE   H6X11436   2.747   5.981   2.902  0.5315 -2.5757  2.9943
  110SAPE   H6Y11437   2.830   6.132   2.886  0.0865 -0.5681  2.0403
  110SAPE   C3711438   2.917   5.981   3.019  0.5360  0.4101  0.3387
  110SAPE   H7X11439   3.024   6.013   3.016  0.0099  2.3218  0.6052
  110SAPE   H7Y11440   2.920   5.870   3.024 -1.5406  0.2064 -1.3927
  110SAPE   C3811441   2.853   6.041   3.144 -0.0506  0.1470  0.5294
  110SAPE   H8X11442   2.743   6.026   3.137 -0.2611  1.6201  0.4002
  110SAPE   H8Y11443   2.856   6.152   3.138 -1.1315  0.1609  0.0092
  110SAPE   C3911444   2.928   5.999   3.274  1.0948  0.1414 -0.3204
  110SAPE   H9X11445   3.027   6.048   3.287  0.2816  1.6200  0.5126
  110SAPE   H9Y11446   2.948   5.890   3.281 -2.3242 -0.7139 -1.7014
  110SAPE  C31011447   2.838   6.032   3.396  0.7497 -0.0970  0.1815
  110SAPE  H10X11448   2.752   5.962   3.393  0.4374  0.2716  0.4367
  110SAPE  H10Y11449   2.798   6.134   3.380  0.7840 -0.1731 -0.4038
  110SAPE  C31111450   2.911   6.057   3.532  0.2662  0.2777 -0.0088
  110SAPE  H11X11451   2.999   6.120   3.507 -0.7060  1.0509 -1.5485
  110SAPE  H11Y11452   2.957   5.961   3.565 -1.2848 -0.5036 -0.0475
  110SAPE  C31211453   2.825   6.132   3.640 -0.0940 -0.3180 -0.9041
  110SAPE  H12X11454   2.723   6.088   3.641 -0.1503 -0.2838 -2.2296
  110SAPE  H12Y11455   2.806   6.238   3.614  0.0396 -0.3824 -1.2779
  110SAPE  C31311456   2.887   6.132   3.776 -0.1674 -0.1267 -0.0525
  110SAPE  H13X11457   2.817   6.169   3.853 -1.2993 -2.2707  0.0187
  110SAPE  H13Y11458   2.975   6.200   3.771 -1.3690  1.3908 -1.3251
  110SAPE  C31411459   2.930   5.993   3.823 -0.4788  0.1142  0.0028
  110SAPE  H14X11460   3.020   5.947   3.778 -1.5752 -0.9325 -1.1956
  110SAPE  H14Y11461   2.849   5.928   3.784 -0.2750 -0.2266  0.1491
  110SAPE  C31511462   2.933   5.984   3.975 -0.6544  0.0125 -0.5372
  110SAPE  H15X11463   2.946   5.876   3.997 -2.2112 -0.0360  0.2674
  110SAPE  H15Y11464   2.842   6.029   4.021 -0.1688  3.0284 -2.2495
  110SAPE  C31611465   3.047   6.064   4.039 -0.7973  0.0591  0.5757
  110SAPE  H16X11466   3.053   6.165   3.993  0.6824  0.0292  0.6722
  110SAPE  H16Y11467   3.140   6.015   4.004  0.0910  1.1592  1.3264
  110SAPE  C31711468   3.050   6.080   4.195 -0.3204  0.1084  0.4711
  110SAPE  H17X11469   3.021   5.978   4.228 -1.0692  0.6165  1.4613
  110SAPE  H17Y11470   2.969   6.148   4.230 -0.3715 -0.0115  0.5849
  110SAPE  C31811471   3.190   6.121   4.231  0.3937 -0.5774 -0.1361
  110SAPE  H18X11472   3.257   6.047   4.181 -3.3725 -2.7254 -2.4262
  110SAPE  H18Y11473   3.202   6.112   4.341 -3.2048 -1.4958  0.3087
  110SAPE  H18Z11474   3.207   6.225   4.196  0.8081 -0.1387  1.2924
  111SAPE     N11475   1.996   6.915   1.775  0.2638  0.2862 -0.0089
  111SAPE   HN111476   1.995   6.892   1.877 -2.3248  0.7304  0.1526
  111SAPE   HN211477   2.041   6.841   1.718  1.2310  1.5034 -0.8715
  111SAPE   HN311478   2.061   6.996   1.769  2.5716 -1.5641 -2.7489
  111SAPE   C1211479   1.867   6.960   1.719 -0.1062 -0.1989  0.3113
  111SAPE  H12A11480   1.791   6.878   1.726  0.8277 -0.9592  3.0566
  111SAPE  H12B11481   1.890   6.992   1.616  0.9187 -0.7628  0.3554
  111SAPE   C1111482   1.803   7.085   1.789  0.1162 -0.1667 -0.5284
  111SAPE  H11A11483   1.771   7.043   1.887 -0.9183 -1.3706 -1.3513
  111SAPE  H11B11484   1.713   7.124   1.737  0.1838  0.1917 -0.3743
  111SAPE     P11485   1.910   7.293   1.902 -0.0268  0.0549  0.1044
  111SAPE   O1311486   2.051   7.319   1.936  0.9801 -1.2079 -0.4589
  111SAPE   O1411487   1.832   7.396   1.827  0.0362 -0.2511  0.0102
  111SAPE   O1211488   1.911   7.173   1.815  0.0487  0.1301  0.3047
  111SAPE   O1111489   1.829   7.261   2.036 -0.4919  0.0150  0.3761
  111SAPE    C111490   1.865   7.169   2.133 -0.5228 -0.4220 -0.3964
  111SAPE    HA11491   1.786   7.132   2.201  1.7688 -2.1955  1.5005
  111SAPE    HB11492   1.906   7.076   2.088  0.7410  0.0342 -0.2249
  111SAPE    C211493   1.974   7.228   2.239  0.5879 -0.5825  0.3237
  111SAPE    HS11494   2.061   7.272   2.185  0.8760  0.8232  1.8504
  111SAPE   O2111495   1.997   7.131   2.340 -0.3994 -0.1440 -0.2567
  111SAPE   C2111496   2.132   7.114   2.366  0.6796  0.0857 -0.2140
  111SAPE   O2211497   2.224   7.181   2.324 -0.0446 -0.2897 -0.1995
  111SAPE   C2211498   2.147   6.998   2.469 -0.2879  0.2750  0.1252
  111SAPE   H2R11499   2.050   6.946   2.478 -0.0897 -0.1180  0.0141
  111SAPE   H2S11500   2.220   6.933   2.416  0.0075  1.3797 -0.8499
  111SAPE    C311501   1.896   7.348   2.303  0.0380  0.4932  0.3328
  111SAPE    HX11502   1.793   7.307   2.309  0.6211 -1.2749 -0.8540
  111SAPE    HY11503   1.904   7.439   2.241 -0.5197 -0.7050 -1.5923
  111SAPE   O3111504   1.947   7.386   2.430 -0.0717 -0.0823 -0.3340
  111SAPE   C3111505   2.052   7.457   2.434 -0.3902  0.1091 -1.1866
  111SAPE   O3211506   2.123   7.489   2.344  0.9535  0.0439  0.4385
  111SAPE   C3211507   2.078   7.485   2.587 -0.0341 -0.3263  0.4444
  111SAPE   H2X11508   2.062   7.390   2.642  1.0608 -0.5717  0.3632
  111SAPE   H2Y11509   2.002   7.561   2.615  2.0363  1.1886  2.3078
  111SAPE   C2311510   2.189   7.059   2.607 -0.1609 -0.1133 -0.5515
  111SAPE   H3R11511   2.127   7.145   2.640  0.0222 -0.6873  1.4187
  111SAPE   H3S11512   2.298   7.079   2.611 -0.1432 -0.3283  2.2833
  111SAPE   C2411513   2.158   6.957   2.728  0.1042  0.2997  0.1844
  111SAPE   H4R11514   2.214   6.862   2.711  0.0543  0.0379  1.4136
  111SAPE   H4S11515   2.049   6.935   2.722  0.3037 -2.0236  3.1006
  111SAPE   C2511516   2.173   7.023   2.859  0.6073 -0.4039  0.3487
  111SAPE   H5R11517   2.091   7.092   2.886 -0.2614 -1.1568 -0.3443
  111SAPE   C2611518   2.267   6.989   2.948  0.1198  0.7678  0.6716
  111SAPE   H6R11519   2.282   7.052   3.037 -1.3936  0.2759  1.3063
  111SAPE   C2711520   2.372   6.881   2.928  0.2036  0.1429  0.3402
  111SAPE   H7R11521   2.425   6.884   2.830  0.1039 -0.2657  0.2712
  111SAPE   H7S11522   2.326   6.780   2.938  0.1810  0.2934  2.2136
  111SAPE   C2811523   2.482   6.892   3.029  0.4575 -0.0763  0.8077
  111SAPE   H8R11524   2.568   6.949   2.989 -0.4303  1.6600  1.2620
  111SAPE   C2911525   2.492   6.847   3.158 -0.4984 -1.2832  0.5192
  111SAPE   H9R11526   2.588   6.867   3.207  0.5132 -2.4051 -0.9239
  111SAPE  C21011527   2.381   6.774   3.238 -0.8262  0.1800 -0.2471
  111SAPE  H10R11528   2.394   6.665   3.218  0.2869  0.5795 -1.8654
  111SAPE  H10S11529   2.290   6.794   3.176 -0.5684 -1.1209 -1.0780
  111SAPE  C21111530   2.373   6.812   3.382 -0.1215  0.5228 -0.4561
  111SAPE  H11R11531   2.362   6.917   3.410  1.0787 -0.1271  2.9016
  111SAPE  C21211532   2.360   6.722   3.485 -0.5419 -0.4543 -0.2031
  111SAPE  H12R11533   2.368   6.766   3.585  1.9558  1.6386 -1.2017
  111SAPE  C21311534   2.346   6.576   3.473  0.3490 -0.0031 -0.4453
  111SAPE  H13R11535   2.361   6.543   3.578  0.0796  0.5962 -0.2078
  111SAPE  H13S11536   2.426   6.539   3.405  2.2584  0.8929  1.1860
  111SAPE  C21411537   2.213   6.516   3.426  0.4126 -0.3325  0.7226
  111SAPE  H14R11538   2.145   6.594   3.388 -0.3106  0.0284  2.6620
  111SAPE  C21511539   2.190   6.386   3.393 -0.0808  0.2499 -0.4989
  111SAPE  H15R11540   2.094   6.345   3.359 -0.3100  1.4853 -1.3878
  111SAPE  C21611541   2.285   6.275   3.427  0.0318  0.2241  0.3694
  111SAPE  H16R11542   2.384   6.309   3.464 -0.8133  0.7718  2.2222
  111SAPE  H16S11543   2.314   6.230   3.329 -0.1740  1.1521 -0.1335
  111SAPE  C21711544   2.241   6.181   3.546 -0.6635 -0.0322  0.0861
  111SAPE  H17R11545   2.324   6.111   3.572 -0.7988  0.4010  1.7581
  111SAPE  H17S11546   2.150   6.130   3.508  0.0351  0.2442 -2.1302
  111SAPE  C21811547   2.210   6.266   3.667 -0.1152 -0.1495  0.7509
  111SAPE  H18R11548   2.121   6.332   3.652 -0.3514 -0.7569 -0.6728
  111SAPE  H18S11549   2.286   6.338   3.705 -0.3869  0.4308  0.2133
  111SAPE  C21911550   2.163   6.182   3.785 -0.4767 -0.1924 -1.1516
  111SAPE  H19R11551   2.235   6.100   3.804  0.0070  0.9573  3.1677
  111SAPE  H19S11552   2.064   6.138   3.759 -1.2464  0.6695  0.1782
  111SAPE  C22011553   2.143   6.261   3.916  0.0737  0.0904  0.5994
  111SAPE  H20R11554   2.062   6.337   3.909 -1.4440 -1.4661  0.6424
  111SAPE  H20S11555   2.235   6.308   3.959  0.1391 -1.6032  2.4558
  111SAPE  H20T11556   2.107   6.184   3.988 -0.3082 -0.7463 -0.4733
  111SAPE   C3311557   2.212   7.555   2.619  0.1760 -0.0215  0.5549
  111SAPE   H3X11558   2.191   7.617   2.709 -1.9974 -0.4698  0.4053
  111SAPE   H3Y11559   2.259   7.614   2.537  0.5488 -1.6589 -0.4420
  111SAPE   C3411560   2.335   7.457   2.650  0.5745 -0.5022  0.0501
  111SAPE   H4X11561   2.425   7.521   2.663 -0.6213  0.7866  2.8957
  111SAPE   H4Y11562   2.356   7.389   2.564 -1.5293  0.2048 -1.1086
  111SAPE   C3511563   2.312   7.379   2.777  0.3473  0.2948  0.2466
  111SAPE   H5X11564   2.405   7.320   2.793  1.0383  0.6910 -1.9930
  111SAPE   H5Y11565   2.223   7.313   2.776 -0.2527  1.0680 -1.6438
  111SAPE   C3611566   2.296   7.449   2.909 -0.5273  0.1073 -0.5581
  111SAPE   H6X11567   2.200   7.505   2.906 -0.0055  1.1416  0.8459
  111SAPE   H6Y11568   2.385   7.514   2.924 -1.2590  0.6774  1.6291
  111SAPE   C3711569   2.306   7.354   3.023 -0.3025  0.6321  0.3147
  111SAPE   H7X11570   2.412   7.320   3.032 -0.3235  0.0621 -1.2532
  111SAPE   H7Y11571   2.241   7.264   3.017  1.0792 -1.0011  5.0213
  111SAPE   C3811572   2.264   7.424   3.154  0.5155 -0.4324  0.3268
  111SAPE   H8X11573   2.156   7.447   3.143  0.3560 -1.0086  0.6422
  111SAPE   H8Y11574   2.317   7.520   3.171 -0.6550  0.1636  0.7627
  111SAPE   C3911575   2.292   7.333   3.269 -0.1403  0.0276  0.2880
  111SAPE   H9X11576   2.397   7.313   3.301 -0.5282  0.1413  1.7130
  111SAPE   H9Y11577   2.251   7.233   3.244  0.3071 -0.3452  0.9918
  111SAPE  C31011578   2.226   7.390   3.391  0.3126 -0.1543  0.1917
  111SAPE  H10X11579   2.118   7.405   3.370  0.4147 -1.0300 -1.0268
  111SAPE  H10Y11580   2.278   7.484   3.422  0.4812 -0.9126  2.3846
  111SAPE  C31111581   2.226   7.304   3.518  0.0062 -0.0483  0.3893
  111SAPE  H11X11582   2.215   7.361   3.613  0.7702  0.7362  0.0244
  111SAPE  H11Y11583   2.330   7.265   3.525  0.2086  0.2446 -0.7850
  111SAPE  C31211584   2.119   7.196   3.530 -0.6400  0.0844  0.0268
  111SAPE  H12X11585   2.134   7.122   3.449 -0.4336 -0.1528  0.2794
  111SAPE  H12Y11586   2.015   7.233   3.519 -1.1106 -1.2047  0.0265
  111SAPE  C31311587   2.144   7.123   3.659 -0.2232  0.1409 -0.2459
  111SAPE  H13X11588   2.114   7.188   3.744 -0.0937  1.0484 -0.8714
  111SAPE  H13Y11589   2.252   7.103   3.677 -0.2202  0.1282 -0.2794
  111SAPE  C31411590   2.058   6.993   3.678 -0.1633 -0.2908  0.3120
  111SAPE  H14X11591   2.066   6.917   3.597  1.9410  0.6441 -0.4375
  111SAPE  H14Y11592   1.951   7.019   3.688 -0.0478  0.2409  0.2014
  111SAPE  C31511593   2.092   6.917   3.810  0.0241 -0.5122  0.4719
  111SAPE  H15X11594   2.087   6.998   3.885  0.9902  2.0427 -2.0539
  111SAPE  H15Y11595   2.201   6.893   3.806  0.7005  2.1230  1.0246
  111SAPE  C31611596   2.010   6.786   3.844  0.4375 -0.5422  0.5346
  111SAPE  H16X11597   1.901   6.807   3.845  0.6108  0.8765 -2.3787
  111SAPE  H16Y11598   2.050   6.750   3.942  0.9524  2.7411  1.6555
  111SAPE  C31711599   2.024   6.675   3.737 -0.2069 -0.0385 -0.7858
  111SAPE  H17X11600   2.113   6.613   3.761 -0.0192  0.4174 -0.2638
  111SAPE  H17Y11601   2.039   6.718   3.636 -1.5102  2.3968 -0.0413
  111SAPE  C31811602   1.903   6.587   3.716 -0.3786 -1.2431 -0.0638
  111SAPE  H18X11603   1.822   6.658   3.693 -0.6522 -1.7541 -0.7146
  111SAPE  H18Y11604   1.870   6.519   3.797  0.2140 -1.4440  0.0126
  111SAPE  H18Z11605   1.912   6.529   3.621 -0.8348 -0.0101 -0.8759
  112SAPE     N11606   6.377   5.098   2.060  0.1010  0.0658  0.0988
  112SAPE   HN111607   6.423   5.007   2.040 -1.1304 -0.3534 -0.9994
  112SAPE   HN211608   6.298   5.085   2.126 -0.7677  0.7889 -0.7640
  112SAPE   HN311609   6.346   5.138   1.969  1.9527  0.6991 -0.3155
  112SAPE   C1211610   6.470   5.199   2.119  0.3916  0.6670 -0.7511
  112SAPE  H12A11611   6.490   5.157   2.220 -1.5495 -1.8445 -1.3181
  112SAPE  H12B11612   6.413   5.292   2.140 -2.1198 -1.3184  2.0259
  112SAPE   C1111613   6.608   5.216   2.037  0.0408 -0.0341 -0.1351
  112SAPE  H11A11614   6.665   5.121   2.023  2.3369  0.7429  2.8518
  112SAPE  H11B11615   6.672   5.278   2.103 -0.5206  1.5628 -1.0319
  112SAPE     P11616   6.568   5.431   1.893 -0.1833 -0.0605 -0.0356
  112SAPE   O1311617   6.653   5.513   1.984 -0.0095  0.2504  0.4327
  112SAPE   O1411618   6.570   5.471   1.748 -0.0165  0.4930  0.3493
  112SAPE   O1211619   6.595   5.275   1.911  0.2832  0.2393  0.0458
  112SAPE   O1111620   6.424   5.442   1.953  0.3407 -0.5330 -0.8077
  112SAPE    C111621   6.358   5.559   1.986 -0.1150  0.7825  0.0562
  112SAPE    HA11622   6.423   5.648   1.998 -0.8172  1.2676  0.3721
  112SAPE    HB11623   6.278   5.571   1.910 -1.2343 -2.8199  0.4437
  112SAPE    C211624   6.294   5.554   2.123  0.2961  0.8704  0.4490
  112SAPE    HS11625   6.246   5.652   2.143  0.4811  0.6384  2.1711
  112SAPE   O2111626   6.394   5.521   2.225 -0.5656 -0.7327  0.2001
  112SAPE   C2111627   6.459   5.630   2.261 -0.1314 -0.0418  0.7431
  112SAPE   O2211628   6.440   5.746   2.231 -0.5336  0.4493 -0.5884
  112SAPE   C2211629   6.554   5.586   2.367 -0.1486  1.3031  0.1088
  112SAPE   H2R11630   6.579   5.669   2.437  1.3406  0.6705  0.3772
  112SAPE   H2S11631   6.513   5.504   2.429 -1.6561 -0.3371 -2.8573
  112SAPE    C311632   6.174   5.449   2.129 -0.0991 -0.4345  0.3736
  112SAPE    HX11633   6.200   5.344   2.105 -1.1967 -0.8843  1.0472
  112SAPE    HY11634   6.100   5.490   2.056 -0.0615  1.6384  1.4143
  112SAPE   O3111635   6.119   5.451   2.262  0.1814 -0.2894  0.1160
  112SAPE   C3111636   6.158   5.358   2.352 -0.0653  0.0670  0.0069
  112SAPE   O3211637   6.229   5.256   2.327  0.3649  0.4199  0.2391
  112SAPE   C3211638   6.101   5.395   2.491  0.1270  0.2316  0.3098
  112SAPE   H2X11639   5.991   5.379   2.493  0.0379 -0.3579 -3.2717
  112SAPE   H2Y11640   6.133   5.498   2.517 -0.4452  0.7977 -1.1520
  112SAPE   C2311641   6.684   5.543   2.297 -0.0001  0.4280 -0.0447
  112SAPE   H3R11642   6.726   5.622   2.231  1.1155 -0.4462 -0.4160
  112SAPE   H3S11643   6.675   5.445   2.245  2.2010  0.1056  0.0941
  112SAPE   C2411644   6.799   5.523   2.396 -1.1635 -0.0126 -0.3703
  112SAPE   H4R11645   6.821   5.625   2.436 -3.5080  0.5390 -0.3190
  112SAPE   H4S11646   6.893   5.499   2.342 -0.3870 -0.8634  1.2962
  112SAPE   C2511647   6.776   5.425   2.503  0.1034 -0.2218 -0.7048
  112SAPE   H5R11648   6.814   5.324   2.485 -0.8657 -0.9085  0.8483
  112SAPE   C2611649   6.756   5.457   2.635  0.2178  0.1842  0.1701
  112SAPE   H6R11650   6.736   5.375   2.705 -2.4172 -0.6946 -1.4455
  112SAPE   C2711651   6.733   5.599   2.694  0.2936 -0.6092  0.4826
  112SAPE   H7R11652   6.661   5.604   2.778 -1.9676 -2.5590 -1.2109
  112SAPE   H7S11653   6.694   5.674   2.623  1.4030  0.9927  1.4961
  112SAPE   C2811654   6.873   5.649   2.726  0.5158  0.4960 -0.0974
  112SAPE   H8R11655   6.949   5.638   2.648  0.3470 -0.9030 -0.0844
  112SAPE   C2911656   6.911   5.686   2.851 -0.5350 -0.9002 -0.4429
  112SAPE   H9R11657   7.008   5.737   2.860 -0.8638 -0.4131  0.4387
  112SAPE  C21011658   6.828   5.684   2.976  0.1728 -0.1506 -0.0425
  112SAPE  H10R11659   6.779   5.586   2.989  1.0035 -0.4875  0.6312
  112SAPE  H10S11660   6.743   5.755   2.961 -0.9074 -1.4477 -0.1814
  112SAPE  C21111661   6.895   5.733   3.101  0.3461  0.2250 -0.5519
  112SAPE  H11R11662   6.958   5.823   3.095 -1.0602  1.2561 -0.3263
  112SAPE  C21211663   6.893   5.675   3.223 -0.2655 -0.0673  0.2369
  112SAPE  H12R11664   6.971   5.703   3.296 -2.4263  1.5425  2.0443
  112SAPE  C21311665   6.830   5.541   3.251 -0.1815  0.5372 -0.9032
  112SAPE  H13R11666   6.736   5.523   3.195 -0.3953  1.8234 -0.9852
  112SAPE  H13S11667   6.801   5.547   3.358  0.2761  1.8609 -0.8398
  112SAPE  C21411668   6.918   5.417   3.225 -0.2929  0.3052 -0.6034
  112SAPE  H14R11669   6.934   5.389   3.119  1.4469 -3.8868  0.5593
  112SAPE  C21511670   6.995   5.356   3.314  0.7938  0.1926  0.0924
  112SAPE  H15R11671   7.049   5.265   3.285 -2.1074 -1.7330  0.2495
  112SAPE  C21611672   7.006   5.396   3.462  0.3447  0.4209  0.3713
  112SAPE  H16R11673   6.991   5.300   3.515 -0.8811  1.0975  1.3112
  112SAPE  H16S11674   6.923   5.466   3.487 -0.1838  0.1503 -0.5531
  112SAPE  C21711675   7.153   5.446   3.507  0.0897 -0.0171 -0.7677
  112SAPE  H17R11676   7.182   5.542   3.460  0.1218  0.2484 -0.2157
  112SAPE  H17S11677   7.240   5.380   3.485  0.4665 -0.1599  0.9885
  112SAPE  C21811678   7.160   5.477   3.654 -0.4444 -0.3456  0.4503
  112SAPE  H18R11679   7.153   5.376   3.701 -0.5366  0.7837  3.0701
  112SAPE  H18S11680   7.075   5.534   3.698 -0.3522  0.6256 -0.6079
  112SAPE  C21911681   7.287   5.555   3.700  0.1559 -0.4344 -0.0913
  112SAPE  H19R11682   7.297   5.638   3.626 -1.8836 -1.0747 -1.1746
  112SAPE  H19S11683   7.374   5.490   3.681 -0.9292 -1.9203 -0.1790
  112SAPE  C22011684   7.283   5.599   3.844  0.0185  0.5912 -0.6185
  112SAPE  H20R11685   7.269   5.519   3.920 -0.4632  0.1645 -1.1523
  112SAPE  H20S11686   7.202   5.673   3.865 -0.7149  0.1721 -1.8751
  112SAPE  H20T11687   7.374   5.653   3.876 -0.9970  2.0098 -0.0051
  112SAPE   C3311688   6.139   5.317   2.613  0.1274  0.4784 -0.5331
  112SAPE   H3X11689   6.248   5.329   2.631  0.1292  3.3226 -2.0074
  112SAPE   H3Y11690   6.108   5.210   2.609  2.1999 -0.1281 -2.0209
  112SAPE   C3411691   6.073   5.353   2.740 -0.0667  0.2624  0.1144
  112SAPE   H4X11692   5.964   5.335   2.726 -0.0286  1.6770 -3.0105
  112SAPE   H4Y11693   6.082   5.461   2.763  1.2642 -0.0996  1.3957
  112SAPE   C3511694   6.124   5.278   2.860 -0.2366 -0.9606  0.1805
  112SAPE   H5X11695   6.233   5.302   2.868 -0.5769  0.4353  0.7930
  112SAPE   H5Y11696   6.119   5.167   2.857  2.2731 -1.1441  0.2492
  112SAPE   C3611697   6.050   5.327   2.984  0.3668 -0.2084 -0.0395
  112SAPE   H6X11698   5.958   5.265   2.979  0.1468  0.1156  0.0160
  112SAPE   H6Y11699   6.015   5.432   2.971  1.6024  0.5346  2.1149
  112SAPE   C3711700   6.141   5.307   3.106  0.3140 -0.1408  0.5106
  112SAPE   H7X11701   6.228   5.375   3.097 -0.9921  1.6075  0.6629
  112SAPE   H7Y11702   6.183   5.204   3.114 -1.4145 -0.7954  1.9265
  112SAPE   C3811703   6.060   5.325   3.237  0.3801 -0.1115 -0.0233
  112SAPE   H8X11704   5.978   5.250   3.241  0.0412  0.2235 -0.5699
  112SAPE   H8Y11705   6.027   5.431   3.245  1.8752  0.2372  2.5450
  112SAPE   C3911706   6.151   5.283   3.361 -0.4080  0.0647 -0.0776
  112SAPE   H9X11707   6.225   5.366   3.370 -0.4653 -0.0331  1.6262
  112SAPE   H9Y11708   6.191   5.181   3.347  0.2917  0.1283  1.2551
  112SAPE  C31011709   6.068   5.282   3.495 -0.7691  0.6902  0.1643
  112SAPE  H10X11710   5.976   5.220   3.490 -1.1233  1.2568 -0.3698
  112SAPE  H10Y11711   6.030   5.385   3.506  0.3847  1.1552 -0.0298
  112SAPE  C31111712   6.147   5.229   3.610 -0.6975  0.0867 -0.3165
  112SAPE  H11X11713   6.226   5.293   3.653 -0.1971 -2.2568  2.6189
  112SAPE  H11Y11714   6.208   5.140   3.582  0.5441  1.0569 -0.7772
  112SAPE  C31211715   6.058   5.180   3.726  0.4616  0.9931 -0.3128
  112SAPE  H12X11716   5.987   5.103   3.688  0.1654  0.7144  0.7656
  112SAPE  H12Y11717   5.999   5.265   3.767 -1.4042 -0.2191 -0.3642
  112SAPE  C31311718   6.142   5.109   3.841 -0.5665  0.4451 -0.2857
  112SAPE  H13X11719   6.206   5.028   3.800  0.0646  0.9332 -0.2746
  112SAPE  H13Y11720   6.065   5.070   3.912 -1.8077  1.1966 -1.1894
  112SAPE  C31411721   6.218   5.214   3.921 -0.1402  0.2337  0.4698
  112SAPE  H14X11722   6.188   5.317   3.893  1.8778  0.6712 -0.2755
  112SAPE  H14Y11723   6.323   5.218   3.886  0.2228 -0.3351  1.4622
  112SAPE  C31511724   6.207   5.214   4.081  0.0222  0.6061  0.2114
  112SAPE  H15X11725   6.290   5.152   4.120 -0.3742 -0.3646 -0.4386
  112SAPE  H15Y11726   6.115   5.165   4.117  0.2810 -0.0387  0.0047
  112SAPE  C31611727   6.231   5.356   4.144 -0.2297  0.2867 -0.3309
  112SAPE  H16X11728   6.146   5.375   4.214  0.5263  1.5378  0.2684
  112SAPE  H16Y11729   6.215   5.432   4.065 -1.2417  1.5164  0.9931
  112SAPE  C31711730   6.362   5.382   4.222  1.3781 -0.2976 -0.4240
  112SAPE  H17X11731   6.365   5.489   4.248  0.8670 -1.1560  3.9632
  112SAPE  H17Y11732   6.453   5.362   4.161  3.1102  1.6336  1.3725
  112SAPE  C31811733   6.358   5.297   4.353 -0.7925  0.6561 -1.4792
  112SAPE  H18X11734   6.267   5.325   4.410  0.0188 -1.1978  0.9658
  112SAPE  H18Y11735   6.448   5.326   4.412  0.4029 -1.3465 -2.2083
  112SAPE  H18Z11736   6.370   5.187   4.338 -1.5374  0.3992 -0.3608
  113SAPE     N11737   6.944   4.861   1.802  0.4408 -0.2860  0.5224
  113SAPE   HN111738   6.987   4.770   1.827  1.1537  0.5613  2.6368
  113SAPE   HN211739   6.842   4.853   1.786  0.9231 -1.9589 -2.5118
  113SAPE   HN311740   6.988   4.896   1.715 -0.0330 -0.7697  0.0817
  113SAPE   C1211741   6.975   4.953   1.919 -0.4820 -0.1893 -0.3187
  113SAPE  H12A11742   6.885   5.011   1.947 -1.5214 -2.6179  1.7890
  113SAPE  H12B11743   7.048   5.027   1.878 -0.5810  0.8839  1.3372
  113SAPE   C1111744   7.054   4.870   2.029 -0.4486 -0.2059  0.1392
  113SAPE  H11A11745   6.995   4.788   2.074 -0.0947 -0.1679  0.6853
  113SAPE  H11B11746   7.081   4.945   2.107  1.9806  1.1370 -1.8291
  113SAPE     P11747   7.212   4.686   1.939 -0.1347 -0.2935 -0.0422
  113SAPE   O1311748   7.096   4.638   1.863  0.4430 -0.1938 -0.5189
  113SAPE   O1411749   7.342   4.679   1.872 -0.0980  0.2716 -0.3451
  113SAPE   O1211750   7.184   4.837   1.972  0.3532  0.2195  0.8722
  113SAPE   O1111751   7.214   4.626   2.087 -0.0949  0.1971 -0.4239
  113SAPE    C111752   7.336   4.642   2.154  0.5401 -0.2657 -0.1822
  113SAPE    HA11753   7.414   4.586   2.098  2.0975  2.1895 -0.6414
  113SAPE    HB11754   7.365   4.748   2.138 -0.8621  0.2123  0.3003
  113SAPE    C211755   7.332   4.604   2.308 -0.0018  0.9292  0.1058
  113SAPE    HS11756   7.238   4.550   2.335 -0.1930  0.6970 -0.9693
  113SAPE   O2111757   7.344   4.718   2.388 -0.2911 -0.5728  0.4367
  113SAPE   C2111758   7.230   4.789   2.388 -0.0669 -0.6235 -0.4888
  113SAPE   O2211759   7.130   4.764   2.326 -1.0196 -0.1625 -0.2544
  113SAPE   C2211760   7.248   4.913   2.483  0.3614  0.1347 -0.6264
  113SAPE   H2R11761   7.320   4.888   2.563 -2.2282  0.4245  1.9482
  113SAPE   H2S11762   7.269   5.005   2.424  0.4259  0.7899  0.3936
  113SAPE    C311763   7.458   4.511   2.343  0.7762 -0.6375 -0.4389
  113SAPE    HX11764   7.539   4.577   2.305  0.1886  0.5315  0.2791
  113SAPE    HY11765   7.459   4.410   2.296  2.0133 -0.2017 -1.4161
  113SAPE   O3111766   7.453   4.499   2.489 -0.1283  0.2761 -0.1665
  113SAPE   C3111767   7.564   4.439   2.538 -0.0392 -0.7275 -0.6759
  113SAPE   O3211768   7.661   4.404   2.475 -0.1885  0.2545 -0.1857
  113SAPE   C3211769   7.545   4.416   2.690 -0.5365  0.6295 -0.1196
  113SAPE   H2X11770   7.437   4.393   2.692 -0.3399 -0.3373 -0.3644
  113SAPE   H2Y11771   7.590   4.497   2.753  0.9066  0.6778 -1.1530
  113SAPE   C2311772   7.110   4.951   2.552  0.1801  0.9701  0.7784
  113SAPE   H3R11773   7.018   4.929   2.494  0.8910  0.9310 -0.3588
  113SAPE   H3S11774   7.113   5.062   2.557 -0.3997  1.0951 -1.0211
  113SAPE   C2411775   7.088   4.898   2.696  0.3527 -0.0995  0.6167
  113SAPE   H4R11776   6.986   4.919   2.734 -0.0447 -0.3272 -0.3043
  113SAPE   H4S11777   7.171   4.946   2.753  0.3172  1.5706 -0.6277
  113SAPE   C2511778   7.078   4.747   2.699  0.2394  0.0880 -0.0693
  113SAPE   H5R11779   6.986   4.704   2.658 -0.9325  0.7856  1.7144
  113SAPE   C2611780   7.160   4.665   2.769  0.1808  0.2895  0.1625
  113SAPE   H6R11781   7.137   4.558   2.765 -1.4837  0.6354 -0.2806
  113SAPE   C2711782   7.279   4.708   2.860 -0.3581 -0.2862  0.4098
  113SAPE   H7R11783   7.346   4.774   2.802 -0.7317 -0.8742 -0.7132
  113SAPE   H7S11784   7.346   4.621   2.879 -0.6160 -0.1117  2.3102
  113SAPE   C2811785   7.242   4.772   2.985 -0.3876 -0.1505 -0.7412
  113SAPE   H8R11786   7.165   4.851   2.991 -0.9213 -0.7830  3.3671
  113SAPE   C2911787   7.297   4.749   3.107 -0.0932 -0.2853  0.2652
  113SAPE   H9R11788   7.248   4.793   3.195 -1.8498 -0.9996 -0.3132
  113SAPE  C21011789   7.399   4.640   3.146  0.0053 -0.4336 -0.5791
  113SAPE  H10R11790   7.414   4.561   3.069 -1.3902  0.5198 -1.8919
  113SAPE  H10S11791   7.363   4.581   3.233 -1.7972 -0.9100 -1.5941
  113SAPE  C21111792   7.533   4.692   3.202  0.0521 -0.4515 -0.2696
  113SAPE  H11R11793   7.565   4.792   3.168 -0.5064 -0.7752 -1.8429
  113SAPE  C21211794   7.606   4.632   3.296 -0.3678 -0.8685  0.4233
  113SAPE  H12R11795   7.699   4.684   3.325 -0.9853  0.1826  0.5893
  113SAPE  C21311796   7.578   4.508   3.366 -0.2804 -0.0554  0.3077
  113SAPE  H13R11797   7.494   4.532   3.435 -2.1736 -0.9584 -1.5883
  113SAPE  H13S11798   7.671   4.490   3.425  0.6486 -0.4437 -1.2258
  113SAPE  C21411799   7.541   4.370   3.302  0.0676 -1.0115  0.1259
  113SAPE  H14R11800   7.547   4.366   3.192  1.4413 -1.3730  0.1918
  113SAPE  C21511801   7.506   4.255   3.361 -0.2027  1.1716  0.9024
  113SAPE  H15R11802   7.469   4.170   3.301 -0.1121  1.2716  0.7036
  113SAPE  C21611803   7.495   4.236   3.511 -0.9273 -0.0473 -0.2688
  113SAPE  H16R11804   7.560   4.311   3.561  1.4874 -1.6384 -0.8346
  113SAPE  H16S11805   7.522   4.134   3.544  0.3980  0.0203 -1.0322
  113SAPE  C21711806   7.349   4.257   3.539  0.4692 -0.6943  0.5509
  113SAPE  H17R11807   7.273   4.195   3.487  0.7229  0.3175 -1.1035
  113SAPE  H17S11808   7.321   4.363   3.522  1.4043 -0.3539  1.0674
  113SAPE  C21811809   7.319   4.247   3.691  0.3632  0.2283 -0.3951
  113SAPE  H18R11810   7.347   4.144   3.723 -0.9377 -0.5164 -1.5608
  113SAPE  H18S11811   7.209   4.239   3.704  0.3227 -4.1978 -1.6307
  113SAPE  C21911812   7.382   4.356   3.779 -0.2277  0.3903 -0.3609
  113SAPE  H19R11813   7.376   4.451   3.722 -0.2055 -0.7795 -2.3923
  113SAPE  H19S11814   7.489   4.330   3.794 -0.1303  1.0783  0.2042
  113SAPE  C22011815   7.313   4.382   3.921 -0.2187 -0.4970 -0.3803
  113SAPE  H20R11816   7.373   4.453   3.983 -0.3443 -1.0678  0.4055
  113SAPE  H20S11817   7.317   4.295   3.990 -2.6716 -0.2073  0.2125
  113SAPE  H20T11818   7.209   4.412   3.899 -0.1487 -1.7819 -2.7000
  113SAPE   C3311819   7.621   4.292   2.742 -0.0438  0.9777 -0.3860
  113SAPE   H3X11820   7.728   4.299   2.715 -0.1711  1.0617 -0.8647
  113SAPE   H3Y11821   7.588   4.201   2.687 -1.2543  0.5647  0.9441
  113SAPE   C3411822   7.619   4.265   2.892  0.3425 -0.0313  0.4290
  113SAPE   H4X11823   7.512   4.254   2.919  0.2200 -1.1216 -0.4472
  113SAPE   H4Y11824   7.660   4.351   2.950 -3.1777  2.0454  0.1491
  113SAPE   C3511825   7.684   4.124   2.921  0.5685 -0.2408  0.0530
  113SAPE   H5X11826   7.789   4.134   2.886  0.8732 -0.3844  0.9206
  113SAPE   H5Y11827   7.625   4.047   2.866 -2.2002  2.1671 -0.5706
  113SAPE   C3611828   7.682   4.098   3.073  0.6218  0.5195 -0.3733
  113SAPE   H6X11829   7.575   4.121   3.094  0.7651  1.2579 -0.4427
  113SAPE   H6Y11830   7.761   4.157   3.124  2.4314 -0.2573 -2.1729
  113SAPE   C3711831   7.697   3.943   3.100 -0.4055  0.4404  0.2366
  113SAPE   H7X11832   7.801   3.926   3.062 -0.7092  1.1674 -0.9802
  113SAPE   H7Y11833   7.630   3.890   3.029  1.6297 -1.2809 -0.5343
  113SAPE   C3811834   7.665   3.916   3.247  0.0135 -0.3373  0.3248
  113SAPE   H8X11835   7.724   3.991   3.304  2.7869 -0.7822 -1.7025
  113SAPE   H8Y11836   7.556   3.932   3.255  0.4327  2.6239  1.3241
  113SAPE   C3911837   7.691   3.775   3.310  0.2606  0.7852  0.2897
  113SAPE   H9X11838   7.796   3.742   3.298  0.9899  2.9809  0.1134
  113SAPE   H9Y11839   7.639   3.699   3.247  2.0169 -1.3455  1.3020
  113SAPE  C31011840   7.654   3.758   3.459 -0.2916 -0.5045 -0.1301
  113SAPE  H10X11841   7.702   3.832   3.526 -0.5947 -1.6603  1.4362
  113SAPE  H10Y11842   7.693   3.662   3.499 -0.4973  0.3519  2.2667
  113SAPE  C31111843   7.505   3.762   3.486 -0.5148  0.5200  0.1636
  113SAPE  H11X11844   7.460   3.662   3.466 -1.4349  1.0949 -0.6908
  113SAPE  H11Y11845   7.451   3.834   3.422  1.3759 -1.7347 -4.4479
  113SAPE  C31211846   7.473   3.804   3.624 -0.1648  0.1247 -0.3035
  113SAPE  H12X11847   7.511   3.904   3.653  1.1164 -0.7163  1.0484
  113SAPE  H12Y11848   7.522   3.736   3.697  0.4259  0.2083 -0.6091
  113SAPE  C31311849   7.325   3.817   3.643  0.6623 -0.2880 -1.1361
  113SAPE  H13X11850   7.284   3.719   3.613 -1.8609 -0.7836  3.1557
  113SAPE  H13Y11851   7.278   3.892   3.575  0.2145 -2.0122 -2.8126
  113SAPE  C31411852   7.270   3.857   3.788  0.4636  0.1735  0.2291
  113SAPE  H14X11853   7.334   3.932   3.839 -2.4930  3.0256  0.1200
  113SAPE  H14Y11854   7.293   3.761   3.840 -0.1560  0.8871  1.8917
  113SAPE  C31511855   7.122   3.891   3.799 -0.4672 -0.5900  0.0553
  113SAPE  H15X11856   7.064   3.799   3.778 -0.4471 -0.8278  0.9924
  113SAPE  H15Y11857   7.093   3.949   3.709 -3.4763 -3.6047 -1.1250
  113SAPE  C31611858   7.084   3.954   3.932  0.0043  0.4357  0.4908
  113SAPE  H16X11859   6.973   3.956   3.936 -0.0971  2.5296 -1.5368
  113SAPE  H16Y11860   7.115   4.060   3.936  1.7071  0.0459 -1.0963
  113SAPE  C31711861   7.134   3.875   4.058 -0.6376 -0.5962 -0.5378
  113SAPE  H17X11862   7.095   3.929   4.147 -1.7860  0.3277 -1.5598
  113SAPE  H17Y11863   7.244   3.887   4.062 -0.3884 -2.7598  1.2740
  113SAPE  C31811864   7.097   3.726   4.063  0.0340  0.0933  0.2596
  113SAPE  H18X11865   7.141   3.679   4.153 -0.6557 -2.1076 -0.5046
  113SAPE  H18Y11866   7.150   3.671   3.983  2.8547  1.1938  1.2674
  113SAPE  H18Z11867   6.986   3.712   4.063 -0.0469  0.1491 -2.3616
  114SAPE     N11868   2.141   5.897   1.848 -0.4207  0.3692  0.3968
  114SAPE   HN111869   2.227   5.864   1.897  0.5153  0.0632 -1.3484
  114SAPE   HN211870   2.080   5.947   1.916  1.0238  0.2015  1.8850
  114SAPE   HN311871   2.081   5.821   1.811 -1.2237  0.7155  0.9546
  114SAPE   C1211872   2.167   5.993   1.733 -0.1358  0.0368  0.0824
  114SAPE  H12A11873   2.067   6.032   1.705 -0.6746 -1.4916 -0.2397
  114SAPE  H12B11874   2.207   5.942   1.642 -2.0544  0.5823 -1.1092
  114SAPE   C1111875   2.269   6.101   1.781  0.1035 -0.0354  0.7391
  114SAPE  H11A11876   2.283   6.164   1.691 -2.7861  0.3385  0.4385
  114SAPE  H11B11877   2.363   6.046   1.802  0.2584 -0.4058 -0.7725
  114SAPE     P11878   2.283   6.290   1.953  0.2132  0.1346 -0.0558
  114SAPE   O1311879   2.427   6.286   1.952  0.0677 -0.2692  0.3249
  114SAPE   O1411880   2.228   6.405   1.880  0.1894 -0.3728  0.0315
  114SAPE   O1211881   2.221   6.161   1.894  0.3344  0.1211 -0.8599
  114SAPE   O1111882   2.227   6.287   2.098  0.1744  0.0436  0.2914
  114SAPE    C111883   2.093   6.242   2.129 -0.7221 -0.2968  0.0231
  114SAPE    HA11884   2.045   6.174   2.055 -2.8347  0.5180  0.5539
  114SAPE    HB11885   2.104   6.175   2.217  0.4509  1.5191  1.3238
  114SAPE    C211886   1.996   6.358   2.151  0.0758 -0.0924 -0.3047
  114SAPE    HS11887   1.977   6.396   2.049 -1.5773 -0.6672 -0.2546
  114SAPE   O2111888   2.065   6.455   2.229 -0.7097  0.7219 -0.0208
  114SAPE   C2111889   1.999   6.566   2.266  0.4120 -0.3563  0.7090
  114SAPE   O2211890   1.901   6.612   2.214  0.2509 -0.2508  0.1000
  114SAPE   C2211891   2.086   6.633   2.372  0.2235  0.2403 -0.1302
  114SAPE   H2R11892   2.178   6.574   2.394  2.3244  3.2905 -0.0932
  114SAPE   H2S11893   2.121   6.725   2.320  0.1027  0.5981  0.4136
  114SAPE    C311894   1.868   6.306   2.218 -0.4674  1.1016 -0.3366
  114SAPE    HX11895   1.829   6.228   2.149 -0.3297 -1.6024  2.4568
  114SAPE    HY11896   1.790   6.384   2.231 -2.5120 -0.7822 -0.7356
  114SAPE   O3111897   1.889   6.249   2.349 -0.0033 -0.0708 -0.0774
  114SAPE   C3111898   1.858   6.118   2.370  0.0473  0.1881  0.0499
  114SAPE   O3211899   1.808   6.047   2.288 -0.0971  0.2170 -0.1288
  114SAPE   C3211900   1.899   6.078   2.516 -0.1008 -0.4576  0.4458
  114SAPE   H2X11901   2.002   6.116   2.527  0.2955 -1.2556 -0.3605
  114SAPE   H2Y11902   1.903   5.967   2.524  1.7174 -0.6698 -2.0487
  114SAPE   C2311903   2.010   6.667   2.502 -0.3281 -0.0150  0.0860
  114SAPE   H3R11904   1.921   6.730   2.480 -1.4984 -1.6730 -0.0952
  114SAPE   H3S11905   2.077   6.725   2.568 -0.5744 -2.3634  2.5460
  114SAPE   C2411906   1.973   6.537   2.572  0.8063 -0.4128 -0.2154
  114SAPE   H4R11907   1.905   6.474   2.511  1.7157 -1.2331 -0.3985
  114SAPE   H4S11908   1.916   6.562   2.665 -2.1955 -0.8708 -1.7992
  114SAPE   C2511909   2.086   6.443   2.615 -0.4112 -0.0392  0.4332
  114SAPE   H5R11910   2.117   6.375   2.535 -0.2810  0.3893  0.1167
  114SAPE   C2611911   2.160   6.454   2.725 -0.3223  0.4408 -0.4458
  114SAPE   H6R11912   2.232   6.375   2.749 -1.0562 -0.8317 -2.1700
  114SAPE   C2711913   2.147   6.563   2.833 -0.6063 -1.3850  0.8641
  114SAPE   H7R11914   2.063   6.631   2.807  1.3098  0.7091 -0.1777
  114SAPE   H7S11915   2.235   6.625   2.808 -2.4346  0.3300 -1.9722
  114SAPE   C2811916   2.147   6.508   2.968 -0.7131 -0.4200 -0.1961
  114SAPE   H8R11917   2.229   6.435   2.976 -0.5659 -0.1716  0.6254
  114SAPE   C2911918   2.077   6.551   3.071  0.1392  0.0490 -0.3124
  114SAPE   H9R11919   2.067   6.491   3.162  1.0395  0.0550 -0.1980
  114SAPE  C21011920   1.969   6.658   3.059  0.1894  0.0225 -0.9502
  114SAPE  H10R11921   1.875   6.619   3.102 -0.6864  2.6036 -0.3520
  114SAPE  H10S11922   1.948   6.700   2.958  1.3376  0.6110 -0.9620
  114SAPE  C21111923   2.008   6.779   3.141 -0.2250  0.3065  0.0265
  114SAPE  H11R11924   2.091   6.834   3.094 -0.1094 -0.1891 -0.3647
  114SAPE  C21211925   1.946   6.826   3.251  0.1938 -0.3688  0.7345
  114SAPE  H12R11926   1.986   6.919   3.296  0.5194 -0.9535  1.6757
  114SAPE  C21311927   1.824   6.770   3.325 -0.1209 -1.0983 -0.3546
  114SAPE  H13R11928   1.850   6.785   3.432 -0.1824  0.5519 -0.5413
  114SAPE  H13S11929   1.811   6.663   3.302  0.6351 -1.5217  1.0408
  114SAPE  C21411930   1.695   6.838   3.274  0.5317 -0.7689  0.3639
  114SAPE  H14R11931   1.686   6.845   3.164  1.0684  1.3155  0.4045
  114SAPE  C21511932   1.598   6.882   3.354  0.0289  0.5888  0.5799
  114SAPE  H15R11933   1.526   6.953   3.310 -0.9338 -1.0773 -0.6419
  114SAPE  C21611934   1.607   6.884   3.507 -0.2789 -0.0752 -1.0825
  114SAPE  H16R11935   1.668   6.802   3.550 -0.6779 -0.2593 -0.8600
  114SAPE  H16S11936   1.516   6.848   3.561  1.5944 -1.1616  1.5460
  114SAPE  C21711937   1.637   7.025   3.559  0.1533 -0.1648 -0.1142
  114SAPE  H17R11938   1.547   7.086   3.539 -0.0749 -0.4799 -0.0541
  114SAPE  H17S11939   1.724   7.071   3.507  1.7839  1.0694  3.3714
  114SAPE  C21811940   1.661   7.039   3.711 -0.0809 -0.1978 -0.2104
  114SAPE  H18R11941   1.752   6.980   3.737  0.4779  0.5649 -0.4020
  114SAPE  H18S11942   1.573   7.007   3.770 -2.1743  4.0754 -0.6742
  114SAPE  C21911943   1.692   7.185   3.750  0.3117  0.5489  0.0138
  114SAPE  H19R11944   1.612   7.240   3.695  0.1434  0.0217 -0.2740
  114SAPE  H19S11945   1.785   7.207   3.693 -0.7135  0.2313 -1.8760
  114SAPE  C22011946   1.686   7.221   3.897 -0.6098 -0.1393 -0.3685
  114SAPE  H20R11947   1.583   7.244   3.931 -0.4766  0.0267 -0.0720
  114SAPE  H20S11948   1.757   7.305   3.914 -0.0394 -0.5356 -0.7438
  114SAPE  H20T11949   1.732   7.138   3.955  0.0511  0.3615 -0.1663
  114SAPE   C3311950   1.820   6.148   2.629 -0.1385  0.3524 -0.0907
  114SAPE   H3X11951   1.713   6.121   2.618  0.3073 -1.0785 -1.2744
  114SAPE   H3Y11952   1.828   6.258   2.613 -2.0756  0.5273 -0.0558
  114SAPE   C3411953   1.871   6.099   2.763  0.0406 -0.5252 -0.0453
  114SAPE   H4X11954   1.976   6.134   2.773 -0.5724  1.6409 -0.5807
  114SAPE   H4Y11955   1.863   5.989   2.778 -1.1377 -0.0241  4.2003
  114SAPE   C3511956   1.792   6.155   2.878 -0.4399 -0.4848 -0.0987
  114SAPE   H5X11957   1.682   6.138   2.890 -0.8198  2.3447  1.2789
  114SAPE   H5Y11958   1.812   6.264   2.880  0.7819 -0.6943 -0.0473
  114SAPE   C3611959   1.855   6.114   3.016  0.5928  0.2460 -0.1463
  114SAPE   H6X11960   1.965   6.123   3.010  0.7177 -1.7484 -2.9798
  114SAPE   H6Y11961   1.828   6.007   3.028 -2.4773  0.7202 -1.7585
  114SAPE   C3711962   1.800   6.193   3.134  0.3651 -0.6181  0.4374
  114SAPE   H7X11963   1.694   6.224   3.123  0.8197  0.1448 -2.6573
  114SAPE   H7Y11964   1.856   6.289   3.138 -0.8281  0.0927  4.4574
  114SAPE   C3811965   1.812   6.106   3.263 -0.7298  1.0931  0.3396
  114SAPE   H8X11966   1.906   6.048   3.257 -2.9112 -2.6291 -1.4315
  114SAPE   H8Y11967   1.735   6.025   3.264  1.7539 -1.3866  1.2230
  114SAPE   C3911968   1.819   6.165   3.396 -0.2917 -0.5908 -0.0461
  114SAPE   H9X11969   1.744   6.246   3.403 -0.4431 -0.5532 -1.7571
  114SAPE   H9Y11970   1.920   6.210   3.412 -1.2334  0.9919  1.9275
  114SAPE  C31011971   1.792   6.069   3.517  0.9272 -0.5061  0.2694
  114SAPE  H10X11972   1.688   6.030   3.510  0.1374  1.3410  0.8498
  114SAPE  H10Y11973   1.814   6.127   3.610 -0.8759  0.0752  0.3815
  114SAPE  C31111974   1.885   5.947   3.528 -0.4223  0.2971 -0.3087
  114SAPE  H11X11975   1.993   5.964   3.511 -0.5726  2.2684  0.4503
  114SAPE  H11Y11976   1.860   5.871   3.450  1.1338  0.5582 -1.0990
  114SAPE  C31211977   1.852   5.874   3.658  0.3380  0.4282  0.4370
  114SAPE  H12X11978   1.745   5.851   3.674  0.5496  0.7505  2.5760
  114SAPE  H12Y11979   1.870   5.942   3.743 -1.6702  0.0686  1.2036
  114SAPE  C31311980   1.944   5.754   3.678  0.1325  1.0992 -0.1771
  114SAPE  H13X11981   1.955   5.687   3.591  1.1964  0.4418  0.4525
  114SAPE  H13Y11982   1.893   5.686   3.749 -1.5512  2.4631 -0.0023
  114SAPE  C31411983   2.079   5.790   3.730 -0.2052  0.1634 -0.0012
  114SAPE  H14X11984   2.073   5.840   3.829  1.1341 -0.1557  0.2557
  114SAPE  H14Y11985   2.123   5.863   3.659 -0.2011  0.3655  0.2058
  114SAPE  C31511986   2.185   5.671   3.736 -0.4386 -0.1370 -0.3161
  114SAPE  H15X11987   2.281   5.721   3.761  0.1961 -1.1482 -0.7062
  114SAPE  H15Y11988   2.186   5.631   3.633 -0.2045  1.4142 -0.9520
  114SAPE  C31611989   2.155   5.561   3.844 -0.2586 -0.4684 -0.5644
  114SAPE  H16X11990   2.063   5.505   3.820 -0.7102  0.7705 -1.8929
  114SAPE  H16Y11991   2.157   5.621   3.938  1.5222 -0.0415 -0.8353
  114SAPE  C31711992   2.275   5.467   3.855  0.1618  0.2959  0.3741
  114SAPE  H17X11993   2.238   5.400   3.935  0.6829  1.2153  1.4076
  114SAPE  H17Y11994   2.369   5.512   3.892  1.2974 -2.2709  0.8798
  114SAPE  C31811995   2.310   5.391   3.724  0.2302  1.4419  0.8676
  114SAPE  H18X11996   2.356   5.292   3.743 -1.5546  0.5463  0.7742
  114SAPE  H18Y11997   2.384   5.457   3.673 -0.5881  1.9209  0.2549
  114SAPE  H18Z11998   2.217   5.374   3.665 -0.6845  1.2444  2.3151
  115SAPE     N11999   0.276   6.026   2.064  0.1694  0.2183  0.1193
  115SAPE   HN112000   0.241   5.929   2.079 -0.3341  0.2600 -0.7065
  115SAPE   HN212001   0.288   6.039   1.961 -0.5234 -0.2950 -0.0339
  115SAPE   HN312002   0.365   6.034   2.117  0.0771 -0.4533  0.3855
  115SAPE   C1212003   0.193   6.138   2.114  0.0609  0.5575 -0.4733
  115SAPE  H12A12004   0.096   6.134   2.060  1.1080 -1.0490 -2.3637
  115SAPE  H12B12005   0.245   6.235   2.100 -1.0874  1.5010  1.4119
  115SAPE   C1112006   0.177   6.109   2.263 -1.1400  0.0455 -0.4738
  115SAPE  H11A12007   0.127   6.013   2.287 -0.6892  0.0331  0.4812
  115SAPE  H11B12008   0.096   6.170   2.309 -2.9876 -2.2974 -0.4600
  115SAPE     P12009   0.347   6.239   2.420  0.3830  0.2726 -0.0116
  115SAPE   O1312010   0.477   6.203   2.470  0.0259 -0.4763  0.3675
  115SAPE   O1412011   0.339   6.361   2.332 -0.3211  0.3842  0.0429
  115SAPE   O1212012   0.292   6.112   2.342 -0.3461 -0.9652 -0.4260
  115SAPE   O1112013   0.235   6.246   2.530  0.0046  0.4157  0.0992
  115SAPE    C112014   0.242   6.191   2.664  0.2790 -0.4107  0.5937
  115SAPE    HA12015   0.340   6.145   2.686  0.1517 -0.5550  0.8624
  115SAPE    HB12016   0.224   6.279   2.729  0.8774 -1.1131  1.7277
  115SAPE    C212017   0.141   6.073   2.690 -0.4720 -0.3174  0.3481
  115SAPE    HS12018   0.149   6.009   2.599 -2.1568 -0.1439  0.0390
  115SAPE   O2112019   0.011   6.121   2.701 -0.1775  0.3451  0.2802
  115SAPE   C2112020  -0.093   6.050   2.688  0.1348  0.9148  0.1099
  115SAPE   O2212021  -0.088   5.929   2.654  0.2102  0.1962 -0.0854
  115SAPE   C2212022  -0.219   6.121   2.731 -0.0008 -0.2272 -0.1133
  115SAPE   H2R12023  -0.188   6.218   2.775 -0.7314 -0.4775  0.9892
  115SAPE   H2S12024  -0.270   6.131   2.632  2.6590  1.3225 -1.4499
  115SAPE    C312025   0.179   5.995   2.817  0.7394 -0.4254  0.0774
  115SAPE    HX12026   0.278   5.945   2.804  1.5345  1.0818  0.0381
  115SAPE    HY12027   0.118   5.904   2.832  0.0965 -0.2226 -1.1904
  115SAPE   O3112028   0.194   6.077   2.936  0.4118 -0.3410 -0.1983
  115SAPE   C3112029   0.077   6.085   3.004  0.0653  0.5305 -0.0172
  115SAPE   O3212030  -0.021   6.014   2.982 -0.1791  0.4299  0.0470
  115SAPE   C3212031   0.079   6.196   3.109 -0.1046 -0.0288 -0.2861
  115SAPE   H2X12032   0.084   6.287   3.045 -0.3640 -0.8925 -1.5882
  115SAPE   H2Y12033   0.172   6.178   3.166  0.3829 -0.1194 -1.0967
  115SAPE   C2312034  -0.302   6.039   2.835 -0.0760  0.0296  0.3327
  115SAPE   H3R12035  -0.247   5.993   2.920  0.1301 -0.9022 -0.2824
  115SAPE   H3S12036  -0.345   5.962   2.768  0.8436 -0.7795  0.6325
  115SAPE   C2412037  -0.422   6.126   2.891 -0.5750 -0.4372 -0.8910
  115SAPE   H4R12038  -0.495   6.056   2.937  0.3526 -0.5398  0.4572
  115SAPE   H4S12039  -0.467   6.181   2.806  0.7978  1.0480 -0.6829
  115SAPE   C2512040  -0.369   6.242   2.977  0.3744  0.2436 -0.2770
  115SAPE   H5R12041  -0.314   6.316   2.916 -1.4811  0.3245 -1.9469
  115SAPE   C2612042  -0.411   6.270   3.105 -0.1302  0.2486  0.5057
  115SAPE   H6R12043  -0.365   6.363   3.143  1.2327 -0.1894  0.0087
  115SAPE   C2712044  -0.489   6.178   3.192  0.3995 -0.7911 -0.6141
  115SAPE   H7R12045  -0.469   6.075   3.155 -0.9000 -1.5652  0.7076
  115SAPE   H7S12046  -0.600   6.179   3.183  0.2334  1.9737  0.6501
  115SAPE   C2812047  -0.485   6.205   3.342  0.9626 -0.3983 -0.1100
  115SAPE   H8R12048  -0.515   6.306   3.372  1.3322 -1.0122  2.6348
  115SAPE   C2912049  -0.442   6.123   3.433  0.1307 -0.5806 -0.2913
  115SAPE   H9R12050  -0.459   6.157   3.536  1.5972 -0.9026  0.0761
  115SAPE  C21012051  -0.400   5.978   3.406  0.0296 -0.8403  0.7695
  115SAPE  H10R12052  -0.382   5.964   3.297 -1.5762  2.3601 -0.0523
  115SAPE  H10S12053  -0.490   5.920   3.433 -0.9476  0.5150  0.5272
  115SAPE  C21112054  -0.285   5.938   3.491  1.2264  0.2688  0.5709
  115SAPE  H11R12055  -0.192   5.992   3.469  0.2345  1.7217 -0.2177
  115SAPE  C21212056  -0.277   5.824   3.568 -0.0038  0.4051  1.0126
  115SAPE  H12R12057  -0.186   5.805   3.627  0.8076 -0.1561 -0.3695
  115SAPE  C21312058  -0.385   5.721   3.581 -0.9839 -0.6724  0.3358
  115SAPE  H13R12059  -0.317   5.635   3.592  1.0218  0.1185 -3.9068
  115SAPE  H13S12060  -0.441   5.705   3.486 -1.2223 -0.7314  0.4848
  115SAPE  C21412061  -0.474   5.728   3.695 -0.1476 -0.0462 -0.3799
  115SAPE  H14R12062  -0.423   5.759   3.787  0.1434 -0.4179 -0.4147
  115SAPE  C21512063  -0.605   5.700   3.695 -0.2884 -0.4775  0.4310
  115SAPE  H15R12064  -0.665   5.713   3.786 -0.2671  1.0322  0.2539
  115SAPE  C21612065  -0.678   5.642   3.576  0.1188  0.0242 -0.2383
  115SAPE  H16R12066  -0.619   5.554   3.543 -0.6021 -0.5413 -0.0561
  115SAPE  H16S12067  -0.692   5.716   3.495 -1.4399 -0.6082 -0.5892
  115SAPE  C21712068  -0.818   5.587   3.612 -0.9375 -0.5787  0.2606
  115SAPE  H17R12069  -0.804   5.507   3.688 -0.6877 -0.2824  0.5300
  115SAPE  H17S12070  -0.867   5.538   3.525 -1.0204  0.3647 -0.2361
  115SAPE  C21812071  -0.911   5.698   3.666 -0.5400 -0.1988  0.2361
  115SAPE  H18R12072  -0.903   5.779   3.591  0.4777 -0.7955 -0.3195
  115SAPE  H18S12073  -0.863   5.736   3.759  0.8475 -2.1054  0.3621
  115SAPE  C21912074  -1.060   5.659   3.680  0.2396 -0.4713  0.1089
  115SAPE  H19R12075  -1.087   5.615   3.582 -0.1698  0.1527 -0.0616
  115SAPE  H19S12076  -1.117   5.753   3.695 -3.0791 -1.8806 -2.3383
  115SAPE  C22012077  -1.079   5.556   3.791  0.4195 -0.4334  0.5007
  115SAPE  H20R12078  -1.076   5.601   3.892 -2.5565  0.4420  0.2881
  115SAPE  H20S12079  -1.003   5.475   3.783  2.4764  1.2721  1.7363
  115SAPE  H20T12080  -1.178   5.511   3.769  0.3495 -0.2755  0.4919
  115SAPE   C3312081  -0.044   6.202   3.197  0.0171  0.1318 -0.8039
  115SAPE   H3X12082  -0.057   6.108   3.256 -0.4496  1.4743  1.3367
  115SAPE   H3Y12083  -0.138   6.215   3.141 -2.7864 -0.3315  3.3427
  115SAPE   C3412084  -0.021   6.321   3.291 -0.3458 -0.0985 -0.4575
  115SAPE   H4X12085   0.004   6.415   3.237  1.5818  0.0458  0.5602
  115SAPE   H4Y12086   0.062   6.303   3.363  1.1035  1.8337 -1.5537
  115SAPE   C3512087  -0.150   6.342   3.374 -0.5514 -0.5788  1.1861
  115SAPE   H5X12088  -0.184   6.247   3.419 -1.0711 -1.2272 -0.4924
  115SAPE   H5Y12089  -0.223   6.377   3.298  2.3201 -1.3122 -2.2101
  115SAPE   C3612090  -0.138   6.445   3.485 -0.2744 -0.0766  0.1148
  115SAPE   H6X12091  -0.092   6.535   3.440 -0.0474  0.1246  0.7380
  115SAPE   H6Y12092  -0.064   6.412   3.560 -0.1208  0.3169  0.1409
  115SAPE   C3712093  -0.271   6.464   3.553  0.2957  0.0910 -0.0933
  115SAPE   H7X12094  -0.347   6.483   3.475 -1.1471  1.1583  1.5070
  115SAPE   H7Y12095  -0.271   6.557   3.614 -0.4016 -0.8386  1.3996
  115SAPE   C3812096  -0.310   6.355   3.651  0.6452 -0.4219  0.2981
  115SAPE   H8X12097  -0.255   6.264   3.620  1.0387  0.3955 -1.5443
  115SAPE   H8Y12098  -0.418   6.335   3.639  0.9235 -0.7817 -2.1543
  115SAPE   C3912099  -0.282   6.381   3.796  1.2285 -0.4037 -0.2585
  115SAPE   H9X12100  -0.318   6.293   3.852  2.1969 -0.1210  0.8425
  115SAPE   H9Y12101  -0.338   6.469   3.834 -0.4443 -1.3876 -0.3388
  115SAPE  C31012102  -0.145   6.404   3.835  0.1475  0.2623 -0.7032
  115SAPE  H10X12103  -0.126   6.506   3.794 -2.2962  1.3957  0.7520
  115SAPE  H10Y12104  -0.078   6.331   3.786  1.6887  2.0007 -1.3153
  115SAPE  C31112105  -0.142   6.427   3.987  0.7398 -0.1924  0.3150
  115SAPE  H11X12106  -0.177   6.343   4.051  1.4854  0.1325  1.1708
  115SAPE  H11Y12107  -0.207   6.515   4.010  0.6605 -0.3861  0.8492
  115SAPE  C31212108   0.002   6.450   4.031 -0.3393  0.3601  0.0914
  115SAPE  H12X12109   0.053   6.529   3.971 -1.8028  1.5087  0.3222
  115SAPE  H12Y12110   0.062   6.357   4.019 -0.3030  0.4322 -0.3140
  115SAPE  C31312111   0.020   6.498   4.176 -0.1077  0.6815 -0.9996
  115SAPE  H13X12112  -0.032   6.425   4.241 -0.4880 -0.8993 -3.0039
  115SAPE  H13Y12113  -0.025   6.599   4.190 -2.1950 -0.3606  0.1728
  115SAPE  C31412114   0.166   6.495   4.217 -0.3738 -0.5831 -0.0823
  115SAPE  H14X12115   0.229   6.556   4.149 -0.5367 -0.5320 -0.1879
  115SAPE  H14Y12116   0.206   6.391   4.211  0.1220 -0.3287 -1.5153
  115SAPE  C31512117   0.184   6.561   4.360  0.4127 -0.9351 -0.0869
  115SAPE  H15X12118   0.115   6.504   4.426 -0.5953 -0.7437 -0.9575
  115SAPE  H15Y12119   0.144   6.664   4.349  0.6432 -0.8388 -0.0329
  115SAPE  C31612120   0.324   6.570   4.406  0.1905 -1.1633 -0.5098
  115SAPE  H16X12121   0.373   6.656   4.357 -0.5094 -0.3900  0.1151
  115SAPE  H16Y12122   0.381   6.483   4.367  2.4368  0.9031 -2.1663
  115SAPE  C31712123   0.332   6.591   4.562  0.9880 -0.1984  0.0026
  115SAPE  H17X12124   0.301   6.501   4.618 -0.7648 -0.5686 -1.4403
  115SAPE  H17Y12125   0.263   6.677   4.580  0.2033  0.0631 -3.4210
  115SAPE  C31812126   0.473   6.631   4.598  0.1283  0.1150 -0.5941
  115SAPE  H18X12127   0.488   6.611   4.707  2.6487  3.1645 -0.2448
  115SAPE  H18Y12128   0.477   6.740   4.580 -3.2307  0.3512 -0.5573
  115SAPE  H18Z12129   0.552   6.583   4.536  0.2469  2.1003 -2.0764
  116SAPE     N12130   6.856   0.463   2.332  0.3016 -0.2325 -0.0952
  116SAPE   HN112131   6.907   0.534   2.276 -3.2351  2.6966  0.0691
  116SAPE   HN212132   6.908   0.439   2.418  1.4957  0.0909 -0.6976
  116SAPE   HN312133   6.836   0.388   2.262 -1.0290  0.0865 -0.0734
  116SAPE   C1212134   6.709   0.517   2.359 -0.0408  0.4636 -0.1197
  116SAPE  H12A12135   6.669   0.460   2.446 -0.8999  1.3425  0.0795
  116SAPE  H12B12136   6.640   0.483   2.279  2.4631 -0.9154 -1.8308
  116SAPE   C1112137   6.716   0.669   2.390  0.3226  0.0692  0.8696
  116SAPE  H11A12138   6.764   0.679   2.490  0.8157 -1.7232  0.8396
  116SAPE  H11B12139   6.608   0.695   2.387  0.0973 -0.9293  0.0187
  116SAPE     P12140   6.735   0.870   2.227  0.0588 -0.0115 -0.3024
  116SAPE   O1312141   6.825   0.900   2.116 -0.4766  0.6893 -0.4217
  116SAPE   O1412142   6.597   0.850   2.192 -0.3012 -0.1321 -0.5123
  116SAPE   O1212143   6.795   0.736   2.289 -0.4198  0.4497  0.3880
  116SAPE   O1112144   6.751   0.985   2.336 -0.3203 -0.4269  0.0664
  116SAPE    C112145   6.827   0.974   2.454  0.4317  0.4346  0.0434
  116SAPE    HA12146   6.797   1.049   2.530  0.1237 -1.1340  1.5448
  116SAPE    HB12147   6.810   0.874   2.499 -2.3959  0.7415 -0.1863
  116SAPE    C212148   6.978   0.992   2.427 -0.6713  0.1028 -0.4003
  116SAPE    HS12149   7.028   0.905   2.380  1.4716  0.2962  1.3602
  116SAPE   O2112150   7.032   1.025   2.558  0.2156 -0.2815 -0.0324
  116SAPE   C2112151   7.052   0.915   2.628 -0.5790  0.6022 -0.1869
  116SAPE   O2212152   7.016   0.803   2.598 -0.5466 -0.2988  0.0850
  116SAPE   C2212153   7.122   0.964   2.759 -0.2232 -0.5810 -0.1325
  116SAPE   H2R12154   7.172   1.060   2.735 -3.1973  0.6211 -2.1199
  116SAPE   H2S12155   7.034   0.986   2.823 -0.7315  0.0815 -1.0378
  116SAPE    C312156   7.002   1.108   2.339 -0.5422 -0.3595  0.4105
  116SAPE    HX12157   6.963   1.080   2.239 -1.4610 -2.5947  1.3243
  116SAPE    HY12158   7.112   1.123   2.325 -0.5578 -0.0610  0.6055
  116SAPE   O3112159   6.940   1.232   2.373  0.6590 -0.1996  0.8516
  116SAPE   C3112160   7.004   1.318   2.452  0.9282  0.1105  0.1198
  116SAPE   O3212161   7.122   1.305   2.476  0.5599 -0.1390  0.2182
  116SAPE   C3212162   6.904   1.410   2.532  0.5830 -0.5350 -0.0697
  116SAPE   H2X12163   6.803   1.365   2.543  1.5197 -2.7548 -0.0295
  116SAPE   H2Y12164   6.893   1.504   2.472 -0.6341  1.5091  3.1088
  116SAPE   C2312165   7.225   0.871   2.818  0.1578  0.6076 -0.3127
  116SAPE   H3R12166   7.305   0.864   2.741 -0.8462 -1.2257 -1.2326
  116SAPE   H3S12167   7.178   0.773   2.839 -0.6454  1.6849  3.7677
  116SAPE   C2412168   7.290   0.914   2.951  0.5561  0.4049 -0.2207
  116SAPE   H4R12169   7.337   0.825   2.997  0.3753  0.5805  0.3169
  116SAPE   H4S12170   7.209   0.942   3.022 -0.1336 -0.4939 -0.6253
  116SAPE   C2512171   7.379   1.031   2.933  0.0851  0.0715 -0.9312
  116SAPE   H5R12172   7.367   1.099   2.847 -0.8656  1.1355  0.0041
  116SAPE   C2612173   7.443   1.089   3.038  0.3281 -0.5531  0.2494
  116SAPE   H6R12174   7.508   1.177   3.024 -1.4684  0.4705 -2.6254
  116SAPE   C2712175   7.433   1.034   3.184 -0.0465 -0.2570  0.1243
  116SAPE   H7R12176   7.535   1.038   3.230 -0.0688  0.2462  0.1344
  116SAPE   H7S12177   7.414   0.924   3.180 -1.8695  0.0379 -3.6729
  116SAPE   C2812178   7.328   1.105   3.269  0.7757 -0.1236 -0.6706
  116SAPE   H8R12179   7.238   1.127   3.209  1.2441  0.8601 -1.0370
  116SAPE   C2912180   7.316   1.108   3.401  0.8055  0.4225 -0.1346
  116SAPE   H9R12181   7.238   1.167   3.452 -2.2111 -1.9081 -1.6885
  116SAPE  C21012182   7.434   1.060   3.484 -0.3332  0.0930  0.1572
  116SAPE  H10R12183   7.510   1.004   3.425  0.6485  1.9717 -0.4544
  116SAPE  H10S12184   7.400   0.989   3.562  2.1441 -0.5494  0.7462
  116SAPE  C21112185   7.499   1.165   3.568 -0.5913  0.3096 -0.0613
  116SAPE  H11R12186   7.495   1.264   3.521  0.1665  0.6167  0.5082
  116SAPE  C21212187   7.554   1.149   3.691 -0.5924 -0.6142  0.8375
  116SAPE  H12R12188   7.613   1.231   3.735  0.0432  0.4218 -1.7506
  116SAPE  C21312189   7.563   1.021   3.758 -0.3091  0.3778  0.1275
  116SAPE  H13R12190   7.628   0.953   3.698 -1.5566 -0.4121 -0.3776
  116SAPE  H13S12191   7.464   0.970   3.749 -0.9629  1.8183 -1.1250
  116SAPE  C21412192   7.612   1.020   3.903  0.0972 -0.7226 -0.0286
  116SAPE  H14R12193   7.695   1.088   3.928 -1.6227  1.9652 -1.1765
  116SAPE  C21512194   7.586   0.919   3.988 -0.7131  0.3782 -0.8353
  116SAPE  H15R12195   7.587   0.947   4.095  1.3944 -2.7175  0.1146
  116SAPE  C21612196   7.484   0.802   3.962 -0.5123  0.1181  0.0124
  116SAPE  H16R12197   7.541   0.711   3.989  1.4745  1.2025 -0.3461
  116SAPE  H16S12198   7.463   0.788   3.853  0.0156 -0.3303 -0.0340
  116SAPE  C21712199   7.362   0.797   4.053 -0.3240  1.1441 -0.3749
  116SAPE  H17R12200   7.296   0.881   4.020 -1.4226  0.8885  1.0876
  116SAPE  H17S12201   7.397   0.810   4.157  1.1565  0.5917 -0.7739
  116SAPE  C21812202   7.287   0.658   4.048 -0.6754  0.2169  0.4541
  116SAPE  H18R12203   7.357   0.572   4.061 -0.6415  0.0784 -0.5874
  116SAPE  H18S12204   7.267   0.650   3.939 -1.8337  3.2356  0.3416
  116SAPE  C21912205   7.147   0.652   4.112  0.5810 -0.5659  0.3541
  116SAPE  H19R12206   7.114   0.549   4.088  0.5874 -0.2922 -0.8936
  116SAPE  H19S12207   7.084   0.722   4.054 -0.8534 -2.7968 -0.9397
  116SAPE  C22012208   7.128   0.684   4.266  0.0445  0.1324 -0.4948
  116SAPE  H20R12209   7.020   0.674   4.291  0.2041 -2.8054 -0.6621
  116SAPE  H20S12210   7.167   0.787   4.284  1.2417  0.0665 -2.4658
  116SAPE  H20T12211   7.180   0.599   4.316 -1.1235  0.2280  0.9426
  116SAPE   C3312212   6.965   1.448   2.663 -0.6027 -0.1199 -0.3320
  116SAPE   H3X12213   6.921   1.540   2.708  1.1327  0.1414  0.9109
  116SAPE   H3Y12214   7.074   1.464   2.652 -0.7962  2.1221  0.4077
  116SAPE   C3412215   6.941   1.344   2.772 -0.4249 -0.6182 -0.5845
  116SAPE   H4X12216   6.985   1.248   2.738  1.1570  0.3072 -1.3228
  116SAPE   H4Y12217   6.832   1.329   2.782 -0.1123 -2.4372  0.4671
  116SAPE   C3512218   7.006   1.379   2.909 -0.4419  0.3810  0.4146
  116SAPE   H5X12219   7.101   1.435   2.896  0.4017 -1.1862 -0.5556
  116SAPE   H5Y12220   7.040   1.282   2.952  1.6235  1.1204  0.5555
  116SAPE   C3612221   6.910   1.457   2.996  0.2819  0.2747  0.0042
  116SAPE   H6X12222   6.820   1.393   3.009  2.6392 -3.2840  0.3340
  116SAPE   H6Y12223   6.869   1.546   2.943 -0.1979  0.8798  1.3295
  116SAPE   C3712224   6.978   1.496   3.125  0.4042  0.7745  0.4193
  116SAPE   H7X12225   7.069   1.554   3.098  1.1640  0.2052  1.6889
  116SAPE   H7Y12226   7.015   1.409   3.183  1.4030 -0.2106 -1.6165
  116SAPE   C3812227   6.903   1.591   3.214  0.3500 -0.4721 -0.5286
  116SAPE   H8X12228   6.800   1.551   3.224 -0.3453  1.3892  0.2290
  116SAPE   H8Y12229   6.881   1.681   3.153  0.1551 -0.0303  0.1859
  116SAPE   C3912230   6.957   1.618   3.352  0.2018 -0.3399 -0.5083
  116SAPE   H9X12231   6.883   1.692   3.391  0.2949  0.0321 -1.0306
  116SAPE   H9Y12232   7.052   1.677   3.350  0.7109 -1.1037  0.3800
  116SAPE  C31012233   6.975   1.494   3.440 -0.5548  0.1852 -0.0458
  116SAPE  H10X12234   7.061   1.434   3.406 -0.9523 -0.2897 -0.2217
  116SAPE  H10Y12235   6.890   1.424   3.427  1.5704 -2.2156 -1.8934
  116SAPE  C31112236   6.998   1.531   3.593  0.1221  0.6466  0.0511
  116SAPE  H11X12237   6.912   1.590   3.632  0.7174  0.5993  1.5206
  116SAPE  H11Y12238   7.088   1.596   3.600 -0.5885  1.7045 -0.3665
  116SAPE  C31212239   7.016   1.397   3.672 -0.2048  0.4990 -0.9357
  116SAPE  H12X12240   7.102   1.339   3.633 -0.5351  0.3512 -1.4595
  116SAPE  H12Y12241   6.924   1.335   3.662  0.9676 -1.5056  0.0528
  116SAPE  C31312242   7.040   1.430   3.816  0.3104  0.2625 -0.3601
  116SAPE  H13X12243   6.966   1.507   3.845  0.2505  0.8509 -1.9827
  116SAPE  H13Y12244   7.136   1.482   3.836  1.2706 -1.7216  0.4781
  116SAPE  C31412245   7.054   1.306   3.901 -0.4228  0.1757  0.1707
  116SAPE  H14X12246   7.136   1.245   3.858 -0.2779  0.2580  0.3287
  116SAPE  H14Y12247   6.962   1.244   3.902 -1.1568  1.2162 -0.8301
  116SAPE  C31512248   7.095   1.340   4.046 -0.0249 -1.0400 -0.0182
  116SAPE  H15X12249   7.013   1.405   4.083 -0.1191 -2.0863  1.7738
  116SAPE  H15Y12250   7.184   1.406   4.048 -1.1654  0.5304  0.2971
  116SAPE  C31612251   7.110   1.225   4.141  0.4966 -0.2791 -0.4381
  116SAPE  H16X12252   7.012   1.172   4.132 -2.0074  3.6690  0.8826
  116SAPE  H16Y12253   7.110   1.262   4.246  0.8986  0.0290 -0.5458
  116SAPE  C31712254   7.234   1.134   4.126  0.7642  0.2250  0.1785
  116SAPE  H17X12255   7.232   1.104   4.019  0.1687 -0.7478  0.4579
  116SAPE  H17Y12256   7.223   1.049   4.196 -1.3208 -0.0203 -0.3851
  116SAPE  C31812257   7.361   1.198   4.151 -0.5459 -0.0826 -1.0755
  116SAPE  H18X12258   7.376   1.296   4.101  1.0770 -0.1104 -0.7091
  116SAPE  H18Y12259   7.443   1.128   4.120  0.3380 -0.4839  1.8997
  116SAPE  H18Z12260   7.379   1.213   4.259  0.9854  2.2665 -1.5805
  117SOPE     N12261   2.778   3.247   6.193 -0.1540 -0.7446  0.0577
  117SOPE   HN112262   2.716   3.180   6.243 -1.4809 -0.0808 -0.6361
  117SOPE   HN212263   2.871   3.245   6.241  0.9882 -0.4741 -2.0253
  117SOPE   HN312264   2.742   3.342   6.217 -0.1731 -1.4626  3.4465
  117SOPE   C1212265   2.802   3.222   6.042  0.1116  0.4551 -0.0926
  117SOPE  H12A12266   2.868   3.307   6.013  1.9016 -0.1475  1.9489
  117SOPE  H12B12267   2.705   3.231   5.988 -0.0418  0.2156  0.1429
  117SOPE   C1112268   2.876   3.090   6.017  0.4325  0.5869  0.5199
  117SOPE  H11A12269   2.904   3.099   5.910 -2.8142  0.3253 -0.4492
  117SOPE  H11B12270   2.810   3.001   6.027  3.0314 -1.3411  1.7475
  117SOPE     P12271   3.071   2.929   6.076  0.0947  0.0917  0.0283
  117SOPE   O1312272   2.972   2.819   6.077  0.1150 -0.4828 -0.1129
  117SOPE   O1412273   3.173   2.929   6.181  0.5675 -0.4486 -0.4333
  117SOPE   O1212274   2.998   3.068   6.092 -0.3543 -0.7546 -0.6742
  117SOPE   O1112275   3.147   2.935   5.939  0.1541  0.0993  0.2353
  117SOPE    C112276   3.247   3.032   5.905 -0.3274  0.1183 -0.0611
  117SOPE    HA12277   3.348   2.987   5.895  0.6790  2.6535 -2.9556
  117SOPE    HB12278   3.256   3.117   5.976 -1.0816 -0.1226  0.3364
  117SOPE    C212279   3.229   3.078   5.760  0.2040  0.5667  0.3252
  117SOPE    HS12280   3.330   3.108   5.725  1.2704 -2.1832  0.7602
  117SOPE   O2112281   3.127   3.181   5.747  0.2418 -0.1812  0.3158
  117SOPE   C2112282   3.179   3.302   5.783  0.4374  0.0230  0.4883
  117SOPE   O2212283   3.293   3.323   5.815 -0.0326  0.5640 -0.0850
  117SOPE   C2212284   3.065   3.417   5.762  0.8882 -0.4481  0.2796
  117SOPE   H2R12285   3.108   3.515   5.732 -1.1271 -0.7080 -4.3377
  117SOPE   H2S12286   3.014   3.427   5.860  0.2688  2.5245 -0.2393
  117SOPE    C312287   3.189   2.950   5.664 -0.3702 -1.3294  0.1060
  117SOPE    HX12288   3.097   2.905   5.708 -0.7106  0.0915  0.9081
  117SOPE    HY12289   3.278   2.886   5.676  1.9061  0.5589 -4.2976
  117SOPE   O3112290   3.167   3.000   5.531  0.1024  0.3553  0.1768
  117SOPE   C3112291   3.280   3.004   5.447 -0.3899 -0.5179  0.4658
  117SOPE   O3212292   3.375   2.934   5.462 -0.2710 -0.4574 -0.7983
  117SOPE   C3212293   3.269   3.109   5.333  0.5612 -0.3368  0.3699
  117SOPE   H2X12294   3.366   3.138   5.287  1.0415 -4.3742 -1.6116
  117SOPE   H2Y12295   3.207   3.198   5.356  2.8193  1.1528  1.0847
  117SOPE   C2312296   2.960   3.392   5.644 -0.0653 -0.1589  0.1539
  117SOPE   H3R12297   2.862   3.435   5.674 -0.4135 -0.4422 -0.5500
  117SOPE   H3S12298   2.937   3.283   5.638  2.4346 -0.7333 -0.2654
  117SOPE   C2412299   3.007   3.449   5.517  0.3369 -0.1416  0.1432
  117SOPE   H4R12300   3.004   3.560   5.515  0.3030 -0.1164 -2.7635
  117SOPE   H4S12301   3.112   3.417   5.501 -0.0087 -0.3467 -1.8970
  117SOPE   C2512302   2.929   3.400   5.393  0.3388  0.2974 -0.2664
  117SOPE   H5R12303   2.904   3.292   5.390  1.2579 -0.0339  2.0029
  117SOPE   H5S12304   2.826   3.440   5.404 -0.5644 -1.9139 -0.0902
  117SOPE   C2612305   2.989   3.434   5.260  0.5875  0.3568  0.4561
  117SOPE   H6R12306   3.014   3.543   5.257 -1.0875  0.8330  1.8945
  117SOPE   H6S12307   3.079   3.375   5.234  0.5456  2.0261 -4.3972
  117SOPE   C2712308   2.890   3.401   5.136 -0.1351  0.0911  0.0376
  117SOPE   H7R12309   2.879   3.294   5.162 -0.9814  0.7685  2.8377
  117SOPE   H7S12310   2.804   3.470   5.148  0.1385  0.1806  1.6723
  117SOPE   C2812311   2.963   3.424   5.008  0.2969  0.6995  0.8794
  117SOPE   H8R12312   2.982   3.534   5.007 -0.7212  0.9444  2.8542
  117SOPE   H8S12313   3.060   3.373   4.992  0.6290  1.4504  0.4517
  117SOPE   C2912314   2.887   3.387   4.885  0.0182 -0.2311 -0.3250
  117SOPE   H9112315   2.796   3.329   4.908  1.5336 -2.4514  0.3371
  117SOPE  C21012316   2.921   3.401   4.752 -0.1166 -0.5675 -0.7512
  117SOPE  H10112317   2.866   3.355   4.668 -1.9572 -0.3928  0.3107
  117SOPE  C21112318   3.046   3.474   4.704  0.3538 -0.0345  0.0127
  117SOPE  H11R12319   3.134   3.406   4.697 -0.2616 -0.8656  0.0947
  117SOPE  H11S12320   3.079   3.561   4.763  0.4060  1.5071 -2.1900
  117SOPE  C21212321   3.018   3.532   4.565  0.4058 -0.3510 -0.5852
  117SOPE  H12R12322   2.982   3.449   4.500 -2.7443  1.7395 -1.7857
  117SOPE  H12S12323   3.109   3.569   4.515  0.1913 -1.1457 -1.6130
  117SOPE  C21312324   2.919   3.653   4.556  0.5998  0.1625 -0.9146
  117SOPE  H13R12325   2.945   3.727   4.635  1.6326 -1.0872 -0.0522
  117SOPE  H13S12326   2.822   3.614   4.594  0.7131  0.8438  0.1225
  117SOPE  C21412327   2.910   3.722   4.412 -0.0960  0.5405 -0.2248
  117SOPE  H14R12328   3.010   3.768   4.397  0.6471 -0.9839 -0.2206
  117SOPE  H14S12329   2.835   3.804   4.414  0.8938  1.6986 -3.7148
  117SOPE  C21512330   2.891   3.626   4.289 -0.0734  0.6326 -0.0721
  117SOPE  H15R12331   2.977   3.557   4.291 -0.1543  0.5403  1.0570
  117SOPE  H15S12332   2.890   3.686   4.196 -0.3536 -1.1434 -1.2570
  117SOPE  C21612333   2.768   3.541   4.302  0.1824  0.0992  0.4532
  117SOPE  H16R12334   2.675   3.601   4.301 -0.4426 -0.8295 -1.5561
  117SOPE  H16S12335   2.763   3.484   4.397  1.9565  0.6682  0.9291
  117SOPE  C21712336   2.745   3.442   4.189  0.1820 -0.3407  0.7242
  117SOPE  H17R12337   2.829   3.369   4.188  0.0917 -0.4496  1.0432
  117SOPE  H17S12338   2.736   3.507   4.100  2.3063 -0.5905  0.2747
  117SOPE  C21812339   2.614   3.360   4.205 -0.3861 -0.3208  0.6826
  117SOPE  H18R12340   2.527   3.428   4.215 -0.2675  0.1891 -1.3704
  117SOPE  H18S12341   2.612   3.294   4.294  1.0705 -0.3409  0.7300
  117SOPE  H18T12342   2.590   3.304   4.112  1.2143  1.3558 -0.8312
  117SOPE   C3312343   3.190   3.046   5.218  0.3936  0.0325  0.0684
  117SOPE   H3X12344   3.082   3.065   5.231  0.3862  1.7953 -2.0501
  117SOPE   H3Y12345   3.196   2.935   5.216 -1.1706 -0.0701 -0.1086
  117SOPE   C3412346   3.226   3.114   5.081  0.4111  0.1023  1.0676
  117SOPE   H4X12347   3.336   3.125   5.073  0.3268 -0.1820 -0.9126
  117SOPE   H4Y12348   3.175   3.212   5.086 -0.9060 -0.4068 -1.3599
  117SOPE   C3512349   3.164   3.033   4.965  0.3356 -0.4874  0.0588
  117SOPE   H5X12350   3.053   3.042   4.968  0.0673 -0.7020 -3.8068
  117SOPE   H5Y12351   3.218   2.938   4.944  0.6978 -0.5258  1.0921
  117SOPE   C3612352   3.197   3.109   4.831 -0.2664  0.1689 -0.3992
  117SOPE   H6X12353   3.304   3.136   4.827  1.0918 -3.5451  3.1813
  117SOPE   H6Y12354   3.132   3.199   4.838 -0.5661 -0.0719 -0.0179
  117SOPE   C3712355   3.144   3.033   4.705 -0.2879  0.1410  0.2057
  117SOPE   H7X12356   3.040   3.002   4.727 -0.4289  0.5268  0.0904
  117SOPE   H7Y12357   3.212   2.945   4.695  0.8723  0.7738  2.0701
  117SOPE   C3812358   3.155   3.114   4.578 -0.1945 -0.2078 -0.4450
  117SOPE   H8X12359   3.259   3.108   4.540  0.0708  0.0950  0.2224
  117SOPE   H8Y12360   3.133   3.222   4.586  2.9657  0.4126  1.4079
  117SOPE   C3912361   3.052   3.062   4.477  0.4014 -0.3454  0.3200
  117SOPE   H9X12362   2.944   3.065   4.503  0.5083 -2.9300  1.3418
  117SOPE   H9Y12363   3.071   2.953   4.474  2.9571 -0.0568  2.2845
  117SOPE  C31012364   3.077   3.131   4.339  0.5675 -0.4524  0.5458
  117SOPE  H10X12365   3.183   3.136   4.306  0.8601  1.2601  1.6419
  117SOPE  H10Y12366   3.047   3.237   4.350 -1.1755 -0.8482 -0.0294
  117SOPE  C31112367   3.019   3.047   4.223  0.6751  0.0297 -0.0702
  117SOPE  H11X12368   3.050   2.940   4.232 -2.4121 -1.1999 -2.2895
  117SOPE  H11Y12369   3.065   3.072   4.125 -0.9325  0.2217 -0.7978
  117SOPE  C31212370   2.859   3.050   4.215 -0.0374  0.9541  0.5890
  117SOPE  H12X12371   2.846   3.160   4.200 -1.2656  0.5303 -1.8756
  117SOPE  H12Y12372   2.811   3.020   4.310 -1.0275  0.4083 -0.0724
  117SOPE  C31312373   2.816   2.980   4.090  0.1031  0.1830 -0.0996
  117SOPE  H13X12374   2.822   2.869   4.090 -1.1271  0.0376 -2.9820
  117SOPE  H13Y12375   2.895   3.007   4.017  1.0901 -1.2250  0.4004
  117SOPE  C31412376   2.679   3.029   4.036  0.5326  0.3350  0.3318
  117SOPE  H14X12377   2.677   3.139   4.018 -0.2751  0.2584 -0.0967
  117SOPE  H14Y12378   2.595   3.002   4.104  0.2479 -1.7556 -0.7785
  117SOPE  C31512379   2.655   2.969   3.897 -0.0583  0.2381  0.1041
  117SOPE  H15X12380   2.638   2.859   3.909 -1.9086  0.5385  0.5600
  117SOPE  H15Y12381   2.750   2.985   3.841  0.0266 -0.7694 -0.0727
  117SOPE  C31612382   2.531   3.022   3.824 -0.2276  0.4294 -1.1447
  117SOPE  H16X12383   2.547   3.125   3.787 -4.4002  1.2966 -1.0291
  117SOPE  H16Y12384   2.445   3.035   3.894 -1.9935 -0.2097 -3.0926
  117SOPE  C31712385   2.493   2.922   3.712  0.4170  0.1067  0.3392
  117SOPE  H17X12386   2.497   2.816   3.745  0.3701 -0.5998 -1.7706
  117SOPE  H17Y12387   2.561   2.921   3.625  0.3153 -2.3043  0.2201
  117SOPE  C31812388   2.351   2.926   3.666  0.2725  0.9010  0.2827
  117SOPE  H18X12389   2.320   3.027   3.630 -2.6096  1.1514  3.1127
  117SOPE  H18Y12390   2.275   2.890   3.738 -0.0931  1.3068  0.1069
  117SOPE  H18Z12391   2.338   2.856   3.580 -2.0848  0.3916  0.9840
  118SOPE     N12392   5.390   5.244   6.393  0.7506 -1.2306 -0.2576
  118SOPE   HN112393   5.422   5.242   6.294 -2.7108  1.7534 -1.6629
  118SOPE   HN212394   5.460   5.195   6.452  1.7142  0.8940  0.4492
  118SOPE   HN312395   5.299   5.195   6.403 -0.5072  0.8743 -0.6706
  118SOPE   C1212396   5.361   5.387   6.430  0.3110 -0.2082 -0.4185
  118SOPE  H12A12397   5.461   5.436   6.434 -0.0392  0.4554  0.5814
  118SOPE  H12B12398   5.311   5.393   6.529 -2.0470  1.1732 -1.5941
  118SOPE   C1112399   5.279   5.457   6.322  0.2851  0.1947  0.1121
  118SOPE  H11A12400   5.179   5.409   6.319  0.4828 -0.4015  1.8448
  118SOPE  H11B12401   5.329   5.459   6.222 -0.9424  3.1970 -0.5443
  118SOPE     P12402   5.358   5.704   6.307  0.0872  0.2882 -0.0481
  118SOPE   O1312403   5.482   5.639   6.258  0.1062  0.1367 -0.2819
  118SOPE   O1412404   5.369   5.822   6.397 -0.7710 -0.0358  0.0546
  118SOPE   O1212405   5.257   5.594   6.363 -0.4450 -0.3628  0.2048
  118SOPE   O1112406   5.281   5.743   6.175 -0.2131  0.2821 -0.4895
  118SOPE    C112407   5.143   5.778   6.182  0.2117 -1.3062 -0.1255
  118SOPE    HA12408   5.117   5.864   6.117  1.4455  0.3148  1.3972
  118SOPE    HB12409   5.112   5.816   6.282 -0.3260 -0.1807 -0.7031
  118SOPE    C212410   5.041   5.669   6.138  0.2913  0.5933 -0.5090
  118SOPE    HS12411   5.033   5.595   6.221 -0.2822 -0.7898 -1.7493
  118SOPE   O2112412   5.079   5.614   6.011 -0.0294  0.6427  0.2485
  118SOPE   C2112413   5.010   5.505   5.981  0.1527  0.9457  0.0299
  118SOPE   O2212414   4.928   5.447   6.048 -0.7033  0.2743 -0.1288
  118SOPE   C2212415   5.038   5.483   5.835  0.8458  0.4957  0.3266
  118SOPE   H2R12416   5.132   5.536   5.808 -0.1928  2.4715  0.3287
  118SOPE   H2S12417   4.957   5.539   5.782  0.4050 -2.1918 -2.1086
  118SOPE    C312418   4.902   5.738   6.144  0.2192  0.3704 -0.4417
  118SOPE    HX12419   4.896   5.782   6.246  1.2956 -0.0516 -0.1921
  118SOPE    HY12420   4.818   5.666   6.129  1.3737 -1.0993 -0.0679
  118SOPE   O3112421   4.886   5.839   6.040  0.0664  0.4682  0.7161
  118SOPE   C3112422   4.814   5.817   5.929  0.4228  0.2453  0.0601
  118SOPE   O3212423   4.756   5.712   5.906 -0.0710  0.2556  0.5787
  118SOPE   C3212424   4.798   5.952   5.851  0.1030  1.0823  0.0039
  118SOPE   H2X12425   4.868   6.025   5.899 -1.5348  0.7997  3.0818
  118SOPE   H2Y12426   4.693   5.981   5.872 -0.2696 -1.5879  2.4637
  118SOPE   C2312427   5.028   5.332   5.797  0.1442 -0.3239  0.3665
  118SOPE   H3R12428   4.933   5.280   5.822  1.1341 -2.8276 -0.7703
  118SOPE   H3S12429   5.107   5.280   5.855  0.5732  0.5459  0.5836
  118SOPE   C2412430   5.051   5.305   5.649 -0.2361 -0.1159 -0.1115
  118SOPE   H4R12431   4.982   5.357   5.578 -0.4302  0.9502  0.8253
  118SOPE   H4S12432   5.146   5.358   5.626  0.9735 -1.8448  0.7099
  118SOPE   C2512433   5.073   5.152   5.618 -0.4065  0.1984 -0.0986
  118SOPE   H5R12434   5.167   5.127   5.671  0.4258  3.6829  0.3183
  118SOPE   H5S12435   4.992   5.096   5.670 -0.7188  1.2508  0.5746
  118SOPE   C2612436   5.075   5.117   5.468  0.0180  0.2653  0.1536
  118SOPE   H6R12437   5.084   5.006   5.457 -0.7205  0.3520 -1.6073
  118SOPE   H6S12438   4.982   5.154   5.420  0.3398 -1.7449 -2.2260
  118SOPE   C2712439   5.202   5.171   5.392  0.1970  0.2362 -0.3733
  118SOPE   H7R12440   5.228   5.276   5.416  0.3759  0.1367 -0.1232
  118SOPE   H7S12441   5.292   5.118   5.432  0.5313  1.2899  0.3094
  118SOPE   C2812442   5.191   5.149   5.239  0.5863 -0.2760 -0.3888
  118SOPE   H8R12443   5.289   5.157   5.186  1.3671  1.5863  1.2062
  118SOPE   H8S12444   5.140   5.053   5.219  0.6297 -0.1281 -1.2601
  118SOPE   C2912445   5.113   5.256   5.177 -0.0181 -0.1448 -0.8437
  118SOPE   H9112446   5.112   5.354   5.227  3.2153  0.1162 -1.0676
  118SOPE  C21012447   5.047   5.242   5.064  0.1776  0.2536  0.2678
  118SOPE  H10112448   5.008   5.332   5.014 -0.0703 -0.2073 -0.3852
  118SOPE  C21112449   5.048   5.127   4.975  0.1499  0.0633  0.7497
  118SOPE  H11R12450   4.968   5.157   4.903 -0.0644  0.0294  0.9744
  118SOPE  H11S12451   5.013   5.034   5.024  0.4913 -0.6379 -0.3034
  118SOPE  C21212452   5.179   5.112   4.901  0.2718  0.7198  1.0339
  118SOPE  H12R12453   5.256   5.100   4.981 -0.8683  2.2073  2.4064
  118SOPE  H12S12454   5.194   5.189   4.823 -1.5325  1.7711  1.6642
  118SOPE  C21312455   5.184   4.971   4.837  0.1224  0.5724 -0.7034
  118SOPE  H13R12456   5.282   4.967   4.785  1.3663 -0.5940  1.5547
  118SOPE  H13S12457   5.100   4.969   4.765 -1.1348 -0.3176  0.7173
  118SOPE  C21412458   5.181   4.848   4.936 -0.2044  0.6395 -0.5100
  118SOPE  H14R12459   5.075   4.843   4.968 -0.4534  0.3618 -1.3722
  118SOPE  H14S12460   5.248   4.862   5.024 -1.8805  0.3443  0.8779
  118SOPE  C21512461   5.218   4.717   4.863  0.3005  0.0972 -0.0893
  118SOPE  H15R12462   5.313   4.722   4.806 -0.5896 -0.2027 -1.6526
  118SOPE  H15S12463   5.137   4.688   4.793 -0.3528  0.2565  0.5798
  118SOPE  C21612464   5.232   4.608   4.979 -0.0643  0.8349  0.3099
  118SOPE  H16R12465   5.310   4.645   5.049  0.5687 -1.6158  0.9724
  118SOPE  H16S12466   5.260   4.512   4.930  2.9343  2.2845 -1.1244
  118SOPE  C21712467   5.112   4.580   5.075 -0.2189  0.8205  0.2894
  118SOPE  H17R12468   5.023   4.534   5.025  0.1652 -0.7713  0.9974
  118SOPE  H17S12469   5.084   4.672   5.129  1.8030  0.5081  2.0065
  118SOPE  C21812470   5.153   4.492   5.191 -0.2221  0.2125 -0.0845
  118SOPE  H18R12471   5.183   4.392   5.154 -0.7245  0.1073 -0.2206
  118SOPE  H18S12472   5.078   4.480   5.272  1.6132 -1.2087  1.4847
  118SOPE  H18T12473   5.236   4.536   5.251 -0.5429  0.1842  0.3864
  118SOPE   C3312474   4.835   5.936   5.703  0.7406  0.1539 -0.2777
  118SOPE   H3X12475   4.770   5.855   5.662  1.4792 -1.7351  2.1108
  118SOPE   H3Y12476   4.944   5.920   5.699  1.4149  3.9584 -1.0722
  118SOPE   C3412477   4.817   6.064   5.621  0.4958  0.3423  0.1876
  118SOPE   H4X12478   4.879   6.140   5.674 -1.6241  3.1305 -1.0632
  118SOPE   H4Y12479   4.710   6.092   5.608 -0.1661 -2.4715 -1.2066
  118SOPE   C3512480   4.867   6.047   5.476  0.0333 -0.1787  0.2839
  118SOPE   H5X12481   4.795   6.000   5.405  2.7202 -1.5087 -1.7574
  118SOPE   H5Y12482   4.948   5.972   5.487 -2.7053 -3.5542 -0.5445
  118SOPE   C3612483   4.912   6.186   5.406  0.1247 -0.0936 -0.7455
  118SOPE   H6X12484   4.976   6.230   5.486 -2.0104  0.4184  0.7708
  118SOPE   H6Y12485   4.820   6.248   5.399 -1.7078 -2.1136  2.6862
  118SOPE   C3712486   4.999   6.172   5.279 -0.4471 -1.5190  1.0328
  118SOPE   H7X12487   5.089   6.111   5.300  0.3181 -1.3137 -1.3475
  118SOPE   H7Y12488   5.031   6.274   5.247  2.0246 -2.8380 -1.0800
  118SOPE   C3812489   4.916   6.118   5.166  0.0645 -0.4981  0.3221
  118SOPE   H8X12490   4.824   6.178   5.151 -1.3997 -1.8031  3.3426
  118SOPE   H8Y12491   4.863   6.025   5.196 -1.0679  0.1469  0.3513
  118SOPE   C3912492   4.987   6.104   5.035 -0.4667 -0.1801 -0.0758
  118SOPE   H9X12493   4.986   6.200   4.978  0.4033 -0.7768 -1.1147
  118SOPE   H9Y12494   4.932   6.031   4.972 -1.0488 -1.0356  1.3605
  118SOPE  C31012495   5.137   6.062   5.051 -0.7267 -0.1419 -0.1893
  118SOPE  H10X12496   5.146   5.965   5.104 -1.3894 -0.1243 -0.0325
  118SOPE  H10Y12497   5.191   6.134   5.115 -0.6251  0.8534 -1.3364
  118SOPE  C31112498   5.198   6.048   4.918 -0.0374 -0.6892 -0.3429
  118SOPE  H11X12499   5.123   6.011   4.846 -1.2607  1.0153 -0.0192
  118SOPE  H11Y12500   5.288   5.983   4.923  2.3095  2.3876  0.9136
  118SOPE  C31212501   5.261   6.176   4.869 -0.3119 -0.7102  0.3615
  118SOPE  H12X12502   5.323   6.227   4.946 -1.3106  3.9295 -1.5704
  118SOPE  H12Y12503   5.189   6.258   4.845 -0.0998  0.0430  2.1203
  118SOPE  C31312504   5.353   6.158   4.738  0.2989  0.3773 -0.8522
  118SOPE  H13X12505   5.296   6.099   4.662  0.1189 -0.4794 -0.0672
  118SOPE  H13Y12506   5.444   6.096   4.752  0.2167  0.0316 -1.7730
  118SOPE  C31412507   5.390   6.294   4.681  0.1125  0.3414 -0.1213
  118SOPE  H14X12508   5.455   6.349   4.751  0.3436  0.1506 -0.1841
  118SOPE  H14Y12509   5.303   6.357   4.652  2.1165  3.4666  0.1920
  118SOPE  C31512510   5.471   6.294   4.545 -0.2968  0.2781 -0.5848
  118SOPE  H15X12511   5.566   6.236   4.553  0.8701  1.9665 -1.5470
  118SOPE  H15Y12512   5.507   6.396   4.521  0.7585 -0.4561 -2.3610
  118SOPE  C31612513   5.394   6.257   4.423  0.5209 -0.1243 -1.1986
  118SOPE  H16X12514   5.307   6.322   4.396 -0.3581 -1.4052 -1.5371
  118SOPE  H16Y12515   5.342   6.162   4.445  0.6475  0.4231  1.8434
  118SOPE  C31712516   5.477   6.242   4.293  0.3905 -0.3362  0.0320
  118SOPE  H17X12517   5.567   6.178   4.299  1.5489  1.2516  0.4125
  118SOPE  H17Y12518   5.527   6.341   4.284 -2.0635  0.9212 -0.4932
  118SOPE  C31812519   5.393   6.212   4.169 -0.4510  0.2936  0.4756
  118SOPE  H18X12520   5.305   6.280   4.162 -1.6234 -1.0832  1.3768
  118SOPE  H18Y12521   5.344   6.112   4.173  1.4841 -0.6899  0.5244
  118SOPE  H18Z12522   5.453   6.211   4.076 -0.5887 -1.5451  0.3830
  119SOPE     N12523   5.510   5.640   5.984  0.0357  0.0935  0.1718
  119SOPE   HN112524   5.607   5.622   5.954 -0.1419 -0.6580  0.0231
  119SOPE   HN212525   5.513   5.646   6.088  0.8151 -1.1252  0.2356
  119SOPE   HN312526   5.456   5.555   5.957  0.2163 -0.3440  1.1137
  119SOPE   C1212527   5.450   5.758   5.918  0.2533 -0.3214  0.1368
  119SOPE  H12A12528   5.340   5.746   5.925  0.2891  0.1357  1.8833
  119SOPE  H12B12529   5.478   5.763   5.810  1.2841 -0.4793  0.3883
  119SOPE   C1112530   5.482   5.891   5.982 -0.1100 -1.0335  0.8457
  119SOPE  H11A12531   5.452   5.906   6.087  0.3853  0.5605  0.7784
  119SOPE  H11B12532   5.405   5.958   5.939  0.7505 -0.8284 -0.4515
  119SOPE     P12533   5.668   6.069   5.968  0.2417  0.1023 -0.0171
  119SOPE   O1312534   5.803   6.063   6.035  0.3303  0.2439  0.2390
  119SOPE   O1412535   5.571   6.162   6.023  0.4128 -0.5070  0.5967
  119SOPE   O1212536   5.620   5.923   5.954  0.1659 -0.7893  0.4321
  119SOPE   O1112537   5.693   6.113   5.820  0.1677 -0.2427  0.0009
  119SOPE    C112538   5.715   6.019   5.716  0.0925  0.1064  0.3711
  119SOPE    HA12539   5.664   6.067   5.630  1.1911  0.6210 -0.0118
  119SOPE    HB12540   5.660   5.923   5.721 -0.1829  0.1589 -1.3555
  119SOPE    C212541   5.868   5.985   5.687  0.6018 -0.5116  0.1854
  119SOPE    HS12542   5.908   5.934   5.778  1.5282 -0.9533 -0.4548
  119SOPE   O2112543   5.935   6.110   5.670  0.9080 -0.0040 -0.0287
  119SOPE   C2112544   6.064   6.091   5.658  0.4666  0.4188 -0.0661
  119SOPE   O2212545   6.123   5.987   5.667  0.1331  0.6953 -0.4321
  119SOPE   C2212546   6.133   6.223   5.636 -0.1336  0.3083  0.3881
  119SOPE   H2R12547   6.182   6.248   5.733 -0.7853  2.6207  0.1683
  119SOPE   H2S12548   6.055   6.300   5.620 -0.4880  0.0861  0.9937
  119SOPE    C312549   5.879   5.882   5.567  0.2870  0.0544 -0.3570
  119SOPE    HX12550   5.873   5.785   5.621  1.7496  1.7008  3.0349
  119SOPE    HY12551   5.980   5.884   5.521  1.9855  0.0798  3.0610
  119SOPE   O3112552   5.784   5.898   5.457  0.2592  0.2082 -0.3795
  119SOPE   C3112553   5.679   5.818   5.448  0.0489  0.5977  0.3808
  119SOPE   O3212554   5.654   5.726   5.522  0.0006  0.0231 -0.2854
  119SOPE   C3212555   5.580   5.871   5.341 -0.2055 -0.2954  0.2325
  119SOPE   H2X12556   5.526   5.960   5.380 -0.0767 -1.0745  2.3211
  119SOPE   H2Y12557   5.495   5.799   5.343 -0.0239 -0.5711  3.5583
  119SOPE   C2312558   6.244   6.203   5.523  0.4816  0.2175  0.8095
  119SOPE   H3R12559   6.278   6.098   5.532 -1.8513 -0.4124  3.2927
  119SOPE   H3S12560   6.327   6.275   5.542 -0.1816  0.8469  1.3563
  119SOPE   C2412561   6.194   6.229   5.379  0.2059  0.1215 -0.9399
  119SOPE   H4R12562   6.086   6.248   5.395 -0.4855 -1.8289 -2.8550
  119SOPE   H4S12563   6.239   6.317   5.328 -2.2131  0.9272 -1.8028
  119SOPE   C2512564   6.196   6.115   5.284 -0.4309 -0.7874  0.8745
  119SOPE   H5R12565   6.299   6.074   5.295 -1.0389 -1.9511  2.7085
  119SOPE   H5S12566   6.124   6.037   5.317  0.5985 -2.4066 -0.4812
  119SOPE   C2612567   6.179   6.155   5.135 -0.3191  0.5660  0.1636
  119SOPE   H6R12568   6.120   6.249   5.133 -2.5577 -0.7765 -1.5408
  119SOPE   H6S12569   6.278   6.179   5.090  0.0052 -0.2561  0.4056
  119SOPE   C2712570   6.102   6.038   5.064 -0.3491  0.9593  0.6681
  119SOPE   H7R12571   6.162   5.945   5.072 -1.2180  0.2826 -0.4514
  119SOPE   H7S12572   6.005   6.021   5.116 -1.0283  1.6375 -0.3251
  119SOPE   C2812573   6.081   6.067   4.912 -0.0843 -0.0163  0.1810
  119SOPE   H8R12574   6.186   6.072   4.875 -0.4142  1.5610 -0.6113
  119SOPE   H8S12575   6.024   5.987   4.861 -0.8669 -0.6422  1.9601
  119SOPE   C2912576   6.015   6.197   4.887  0.9232 -0.3505 -0.1444
  119SOPE   H9112577   5.910   6.192   4.919  1.5929  2.1787  2.9148
  119SOPE  C21012578   6.051   6.297   4.801 -0.0310 -0.4421 -0.1864
  119SOPE  H10112579   5.978   6.375   4.773 -0.0962 -0.1515  0.7542
  119SOPE  C21112580   6.177   6.304   4.716  0.0057 -0.6812 -0.1760
  119SOPE  H11R12581   6.213   6.203   4.689 -0.7321 -1.1058  0.3914
  119SOPE  H11S12582   6.252   6.371   4.764  0.4822 -0.3141 -1.4017
  119SOPE  C21212583   6.132   6.374   4.588  0.0476 -0.7082 -0.2573
  119SOPE  H12R12584   6.227   6.382   4.531  1.2219 -0.1932  1.6867
  119SOPE  H12S12585   6.096   6.478   4.603 -2.6497 -1.4459 -1.0477
  119SOPE  C21312586   6.020   6.298   4.515  0.0979 -0.0234  0.3880
  119SOPE  H13R12587   5.925   6.319   4.569 -0.5401  0.1767 -0.7834
  119SOPE  H13S12588   6.043   6.190   4.513  0.4405  0.0442  0.5202
  119SOPE  C21412589   6.015   6.344   4.373 -0.1149 -0.3643  0.4714
  119SOPE  H14R12590   6.111   6.352   4.317 -2.0567 -0.6089 -3.2227
  119SOPE  H14S12591   5.965   6.443   4.359  0.8371 -0.0030 -0.5735
  119SOPE  C21512592   5.933   6.243   4.278  0.0260  0.6467 -1.2816
  119SOPE  H15R12593   5.839   6.219   4.332  0.6401  0.3654 -0.3283
  119SOPE  H15S12594   5.993   6.150   4.283 -1.5032 -0.3546 -0.8356
  119SOPE  C21612595   5.914   6.285   4.130  0.1490 -0.3839  0.2133
  119SOPE  H16R12596   6.010   6.303   4.077 -0.7680 -0.8314 -1.6541
  119SOPE  H16S12597   5.846   6.372   4.132  0.9123  0.2152  1.9459
  119SOPE  C21712598   5.836   6.185   4.043 -0.7939  0.1976 -0.4980
  119SOPE  H17R12599   5.732   6.189   4.081 -0.3612  0.7293  0.6873
  119SOPE  H17S12600   5.872   6.080   4.044 -1.2299  0.0435  0.6656
  119SOPE  C21812601   5.821   6.239   3.905  0.1271  0.2481  0.1522
  119SOPE  H18R12602   5.747   6.191   3.838  0.7628 -0.3161 -0.1602
  119SOPE  H18S12603   5.917   6.230   3.849 -0.8556 -1.0375 -1.4278
  119SOPE  H18T12604   5.788   6.345   3.900 -0.2084  0.0961 -1.4060
  119SOPE   C3312605   5.644   5.890   5.197  0.2202  0.0875  0.2209
  119SOPE   H3X12606   5.626   5.802   5.132  0.6603 -0.2582  0.5600
  119SOPE   H3Y12607   5.755   5.892   5.208  0.4041 -1.2473 -1.1357
  119SOPE   C3412608   5.597   6.017   5.129 -0.6202  0.1665  0.5979
  119SOPE   H4X12609   5.488   6.015   5.109 -0.8971  0.6677  1.9238
  119SOPE   H4Y12610   5.649   6.028   5.032 -2.6038  1.1481 -0.4146
  119SOPE   C3512611   5.641   6.140   5.209 -0.9286 -0.0026  0.1338
  119SOPE   H5X12612   5.752   6.148   5.197 -0.7173 -1.1669  1.1783
  119SOPE   H5Y12613   5.624   6.136   5.318  0.1961  0.1495  0.3277
  119SOPE   C3612614   5.582   6.261   5.151 -0.2100 -0.6613 -0.4273
  119SOPE   H6X12615   5.473   6.262   5.173 -0.1171  1.3079  0.1682
  119SOPE   H6Y12616   5.597   6.244   5.042 -0.3950 -3.3142 -0.1139
  119SOPE   C3712617   5.649   6.392   5.199 -1.0785 -0.1434 -0.0815
  119SOPE   H7X12618   5.760   6.387   5.206 -1.0883 -2.0347 -0.5067
  119SOPE   H7Y12619   5.617   6.403   5.305  1.9032  1.1483  0.7788
  119SOPE   C3812620   5.628   6.517   5.115  0.7818 -0.4919  0.6740
  119SOPE   H8X12621   5.657   6.601   5.182  0.2069 -0.4641  0.8907
  119SOPE   H8Y12622   5.524   6.531   5.078 -0.2847  0.7179  3.8131
  119SOPE   C3912623   5.720   6.521   4.988 -0.3580  0.3652  0.1851
  119SOPE   H9X12624   5.699   6.442   4.914  2.1577  0.4250 -0.6708
  119SOPE   H9Y12625   5.828   6.505   5.010 -0.3710  2.6268  2.4173
  119SOPE  C31012626   5.694   6.659   4.913 -0.1593  0.2832 -0.4711
  119SOPE  H10X12627   5.724   6.744   4.978  0.8613  0.5634 -1.2690
  119SOPE  H10Y12628   5.585   6.664   4.896 -0.1870 -1.5676 -1.0577
  119SOPE  C31112629   5.769   6.678   4.787 -0.5409  0.1917 -0.5446
  119SOPE  H11X12630   5.872   6.642   4.807 -0.0882  1.1855 -1.0194
  119SOPE  H11Y12631   5.776   6.785   4.760  2.6561  0.9061  2.4454
  119SOPE  C31212632   5.726   6.600   4.665  0.2514  0.1792 -0.1080
  119SOPE  H12X12633   5.616   6.610   4.657  0.0899 -0.9910  0.5770
  119SOPE  H12Y12634   5.741   6.491   4.677 -0.2128 -0.1940 -2.4315
  119SOPE  C31312635   5.796   6.644   4.536  0.0893 -0.4388 -0.1523
  119SOPE  H13X12636   5.899   6.603   4.538  0.0177 -0.6077  0.2399
  119SOPE  H13Y12637   5.809   6.755   4.534  1.0140 -0.4369  2.3979
  119SOPE  C31412638   5.709   6.589   4.426  0.4591  0.4646  0.2022
  119SOPE  H14X12639   5.604   6.626   4.437 -0.1293 -1.3983  1.2229
  119SOPE  H14Y12640   5.717   6.479   4.421  0.3328  0.5109 -3.0966
  119SOPE  C31512641   5.755   6.641   4.290  0.8299 -0.2152 -0.0092
  119SOPE  H15X12642   5.850   6.602   4.248  0.5452 -1.7054  0.6739
  119SOPE  H15Y12643   5.773   6.749   4.310 -1.1918 -0.4130  3.6965
  119SOPE  C31612644   5.648   6.630   4.179  0.5031 -0.4962 -0.5912
  119SOPE  H16X12645   5.551   6.682   4.194  1.1761  0.0544  2.4118
  119SOPE  H16Y12646   5.631   6.522   4.162 -1.0059 -0.3943  0.1498
  119SOPE  C31712647   5.715   6.694   4.057 -0.2767 -0.1503 -0.4029
  119SOPE  H17X12648   5.644   6.663   3.978 -3.4250 -0.2678  2.2279
  119SOPE  H17Y12649   5.810   6.645   4.029  0.3472  1.3071 -0.9442
  119SOPE  C31812650   5.717   6.841   4.055  0.1665  0.0725 -0.6329
  119SOPE  H18X12651   5.796   6.885   4.119 -1.2305  0.7221  0.7170
  119SOPE  H18Y12652   5.621   6.889   4.084  1.3129  0.3360  3.2206
  119SOPE  H18Z12653   5.747   6.872   3.952  0.0491  1.5662 -0.2431
  120SOPE     N12654   6.214   0.597   6.531 -0.0288  0.3884 -0.2284
  120SOPE   HN112655   6.185   0.617   6.433 -0.9030 -2.8585 -0.7363
  120SOPE   HN212656   6.280   0.518   6.517 -0.1758  0.3734 -0.8643
  120SOPE   HN312657   6.129   0.557   6.575 -1.2641  2.8042 -0.2225
  120SOPE   C1212658   6.254   0.716   6.613 -0.2299 -0.1020  0.5504
  120SOPE  H12A12659   6.360   0.733   6.583 -0.2130 -0.6020  0.3182
  120SOPE  H12B12660   6.246   0.693   6.721 -0.8876 -0.8240  0.3547
  120SOPE   C1112661   6.158   0.829   6.568 -0.1466  0.4610  0.1290
  120SOPE  H11A12662   6.193   0.912   6.632  0.9751  0.6756 -0.7214
  120SOPE  H11B12663   6.051   0.807   6.586 -0.3396 -0.4162 -1.7587
  120SOPE     P12664   6.168   0.990   6.364  0.1409  0.0178 -0.6004
  120SOPE   O1312665   6.304   1.053   6.366  0.2441  0.2364  0.0546
  120SOPE   O1412666   6.054   1.049   6.440  0.2609  0.5415  0.1636
  120SOPE   O1212667   6.189   0.845   6.427  0.1571  0.0295 -0.1048
  120SOPE   O1112668   6.134   0.960   6.214  0.3014  0.0475 -0.6034
  120SOPE    C112669   6.024   0.875   6.174  0.4350 -0.6283 -0.3552
  120SOPE    HA12670   5.950   0.863   6.256 -0.6542  0.1591 -1.1955
  120SOPE    HB12671   6.058   0.771   6.160 -1.0882 -2.0225  4.2670
  120SOPE    C212672   5.949   0.922   6.049  0.1540  0.3367  0.4601
  120SOPE    HS12673   5.897   0.839   5.997  0.8453  0.4762 -0.4709
  120SOPE   O2112674   6.040   0.997   5.957 -0.4138  0.8081  0.4729
  120SOPE   C2112675   6.113   0.916   5.885  0.1756  0.1799  0.4035
  120SOPE   O2212676   6.104   0.796   5.881  0.5539  0.0675 -0.0620
  120SOPE   C2212677   6.217   1.000   5.817 -0.2970  0.1578  0.2071
  120SOPE   H2R12678   6.292   0.926   5.783 -0.5151 -1.0141  2.0990
  120SOPE   H2S12679   6.266   1.064   5.894 -1.5766  0.7908  0.5259
  120SOPE    C312680   5.846   1.029   6.104 -0.3291 -0.3204 -0.5026
  120SOPE    HX12681   5.892   1.106   6.170  0.2942 -1.5324  0.5356
  120SOPE    HY12682   5.789   0.978   6.185  1.2252 -0.5866  0.4804
  120SOPE   O3112683   5.767   1.091   6.003 -0.7237  0.3945  0.1848
  120SOPE   C3112684   5.635   1.079   6.014  0.3821  0.3781 -0.0105
  120SOPE   O3212685   5.580   1.004   6.100 -0.1937 -0.3767 -0.1071
  120SOPE   C3212686   5.562   1.180   5.931 -0.4500  0.2189  0.5525
  120SOPE   H2X12687   5.631   1.232   5.861 -1.7727 -0.1049 -1.0636
  120SOPE   H2Y12688   5.521   1.257   6.000 -0.6345  0.2425  0.4171
  120SOPE   C2312689   6.154   1.092   5.707 -0.5566 -0.1866 -0.5650
  120SOPE   H3R12690   6.236   1.159   5.673 -0.0626 -0.1763  0.5965
  120SOPE   H3S12691   6.077   1.152   5.760 -0.4082 -0.9587  0.5528
  120SOPE   C2412692   6.095   1.022   5.585 -0.4217 -0.6192  0.2610
  120SOPE   H4R12693   6.093   0.912   5.599 -2.5940 -0.9906 -2.2860
  120SOPE   H4S12694   5.991   1.058   5.577  0.2147  1.7402  1.6586
  120SOPE   C2512695   6.165   1.060   5.455 -0.1665 -0.1649  0.6679
  120SOPE   H5R12696   6.143   1.167   5.436 -0.3568 -0.1501  0.9579
  120SOPE   H5S12697   6.272   1.043   5.482 -0.4715 -3.4079  0.2915
  120SOPE   C2612698   6.114   0.974   5.337  0.4325 -0.5796 -0.0293
  120SOPE   H6R12699   6.173   0.880   5.339 -0.2630 -1.1286 -2.4392
  120SOPE   H6S12700   6.005   0.953   5.341  0.5195 -0.9863  0.3119
  120SOPE   C2712701   6.135   1.041   5.202 -0.1892  0.4651  0.4573
  120SOPE   H7R12702   6.057   1.119   5.189 -0.4698  0.1958  0.5036
  120SOPE   H7S12703   6.235   1.090   5.207  0.1400 -0.2642  1.3466
  120SOPE   C2812704   6.128   0.937   5.086 -0.5516 -0.7065 -0.4323
  120SOPE   H8R12705   6.214   0.874   5.117 -2.2712 -1.8244  2.4696
  120SOPE   H8S12706   6.037   0.873   5.079  0.3008 -1.7807 -4.6556
  120SOPE   C2912707   6.144   1.009   4.961 -0.2399 -0.3973 -0.0565
  120SOPE   H9112708   6.087   1.104   4.959  1.2334  0.5048 -1.0165
  120SOPE  C21012709   6.195   0.961   4.849 -0.7118 -0.8401 -0.6476
  120SOPE  H10112710   6.195   1.033   4.766 -0.8513  0.9119  0.8322
  120SOPE  C21112711   6.255   0.823   4.825 -0.1654  0.3073  0.8979
  120SOPE  H11R12712   6.193   0.740   4.867  0.3831 -0.5476  0.0657
  120SOPE  H11S12713   6.352   0.827   4.877  0.6323 -1.2529 -0.3630
  120SOPE  C21212714   6.291   0.787   4.676  0.5515  0.0230  0.4428
  120SOPE  H12R12715   6.346   0.690   4.681  2.8641  1.1522 -1.2043
  120SOPE  H12S12716   6.359   0.866   4.638  0.7240  0.0490  0.7981
  120SOPE  C21312717   6.162   0.786   4.584  0.6133  0.7654  0.3120
  120SOPE  H13R12718   6.149   0.889   4.544 -1.2723  0.0792 -0.9857
  120SOPE  H13S12719   6.067   0.759   4.635  0.8336  1.1873  0.9555
  120SOPE  C21412720   6.167   0.682   4.470 -0.7141  0.1844  0.2149
  120SOPE  H14R12721   6.097   0.718   4.392 -2.9184 -1.4265  1.3220
  120SOPE  H14S12722   6.132   0.583   4.506 -2.2963  0.6701  0.1232
  120SOPE  C21512723   6.305   0.674   4.397  0.1161 -0.3220 -0.4146
  120SOPE  H15R12724   6.374   0.635   4.475  1.3855 -0.3482 -1.5084
  120SOPE  H15S12725   6.342   0.774   4.365  1.5982 -0.0024  2.0716
  120SOPE  C21612726   6.297   0.567   4.279  0.1350 -0.1273 -0.0976
  120SOPE  H16R12727   6.247   0.476   4.319 -1.4912  0.5610 -0.4860
  120SOPE  H16S12728   6.400   0.541   4.245 -0.6678 -3.1323 -0.4866
  120SOPE  C21712729   6.208   0.612   4.163 -0.1277  0.9882 -0.6340
  120SOPE  H17R12730   6.241   0.708   4.118  0.7853  0.2072 -1.6652
  120SOPE  H17S12731   6.106   0.626   4.206 -0.3296 -1.3147 -0.2103
  120SOPE  C21812732   6.199   0.503   4.046  0.3427 -0.3551  0.5735
  120SOPE  H18R12733   6.141   0.414   4.076  0.4273 -0.6061 -0.0084
  120SOPE  H18S12734   6.304   0.474   4.026  0.2797  0.9782 -2.1253
  120SOPE  H18T12735   6.160   0.553   3.955 -0.4767 -1.0905  0.5097
  120SOPE   C3312736   5.436   1.116   5.861 -0.1945 -0.7636  0.7284
  120SOPE   H3X12737   5.375   1.202   5.824 -0.4375 -2.1286 -2.3541
  120SOPE   H3Y12738   5.366   1.071   5.934 -1.0533 -1.1018 -0.2767
  120SOPE   C3412739   5.479   1.030   5.736  0.6078  0.0291 -0.3139
  120SOPE   H4X12740   5.389   0.982   5.694  0.4752 -0.8954  0.9553
  120SOPE   H4Y12741   5.541   0.949   5.780  1.1997 -0.1327 -1.4161
  120SOPE   C3512742   5.553   1.093   5.622  0.2338 -0.3493  0.4840
  120SOPE   H5X12743   5.645   1.150   5.648  1.3558 -1.3994 -0.9494
  120SOPE   H5Y12744   5.485   1.170   5.580 -0.6296 -1.8270 -0.9538
  120SOPE   C3612745   5.579   1.007   5.490  0.1280 -0.3143  0.1853
  120SOPE   H6X12746   5.647   0.926   5.522  0.9223  0.7958  1.4393
  120SOPE   H6Y12747   5.632   1.072   5.417 -3.0964 -0.2036 -2.2801
  120SOPE   C3712748   5.454   0.940   5.421  0.3604 -0.3527 -0.0366
  120SOPE   H7X12749   5.390   1.026   5.390  0.9923  0.4340  0.7711
  120SOPE   H7Y12750   5.400   0.882   5.499  0.0500  0.8774  0.6992
  120SOPE   C3812751   5.487   0.850   5.303  0.4567 -0.0895  0.3948
  120SOPE   H8X12752   5.387   0.813   5.270  0.2237  0.7307  0.1495
  120SOPE   H8Y12753   5.548   0.766   5.343  1.6075 -0.0478 -1.1817
  120SOPE   C3912754   5.561   0.919   5.184 -0.6744  0.0036  0.3034
  120SOPE   H9X12755   5.668   0.936   5.209 -0.9982  2.6052  0.1686
  120SOPE   H9Y12756   5.524   1.023   5.177  3.4721  1.6344 -0.1582
  120SOPE  C31012757   5.554   0.842   5.048 -0.1810  0.4362  0.5965
  120SOPE  H10X12758   5.451   0.851   5.009  0.5389  1.6999 -1.1583
  120SOPE  H10Y12759   5.579   0.737   5.075 -2.2788 -0.0280  0.8551
  120SOPE  C31112760   5.661   0.876   4.942  0.0060  0.2287 -0.5547
  120SOPE  H11X12761   5.746   0.830   4.998 -0.4908  0.2718  0.2440
  120SOPE  H11Y12762   5.677   0.985   4.926 -0.6819  0.3830 -0.2206
  120SOPE  C31212763   5.654   0.803   4.812 -0.2232 -0.3202 -0.0877
  120SOPE  H12X12764   5.595   0.865   4.741  0.8346 -0.2574 -0.9282
  120SOPE  H12Y12765   5.622   0.697   4.823 -1.2501 -0.0422 -0.2413
  120SOPE  C31312766   5.795   0.777   4.748 -0.4802  0.0895 -0.5298
  120SOPE  H13X12767   5.850   0.702   4.808 -0.5430 -1.8148 -2.7132
  120SOPE  H13Y12768   5.855   0.870   4.736  0.0188 -0.3616 -1.7033
  120SOPE  C31412769   5.784   0.715   4.606  0.1875  0.0491 -0.5758
  120SOPE  H14X12770   5.708   0.634   4.608 -0.6545  0.7427 -2.4575
  120SOPE  H14Y12771   5.890   0.683   4.591  0.7309  0.4889  1.8885
  120SOPE  C31512772   5.748   0.823   4.502  0.2070  0.2206  0.4588
  120SOPE  H15X12773   5.840   0.886   4.509 -0.4482  1.2733 -0.1202
  120SOPE  H15Y12774   5.660   0.886   4.529  1.9349  2.7211  0.6092
  120SOPE  C31612775   5.725   0.762   4.362  0.7641 -0.1122 -0.0224
  120SOPE  H16X12776   5.824   0.718   4.335  1.8254 -0.0314  3.2850
  120SOPE  H16Y12777   5.701   0.842   4.289 -1.7288 -0.8438 -0.1099
  120SOPE  C31712778   5.611   0.659   4.362 -0.0362  0.6607 -0.7074
  120SOPE  H17X12779   5.524   0.714   4.404 -0.5517 -0.0801 -0.7803
  120SOPE  H17Y12780   5.637   0.571   4.426  1.9244  1.3283 -0.5029
  120SOPE  C31812781   5.578   0.601   4.227 -0.3896 -0.5921  0.0942
  120SOPE  H18X12782   5.556   0.681   4.153  0.2528 -1.0455 -0.6006
  120SOPE  H18Y12783   5.491   0.532   4.238 -1.0612 -0.2424 -2.3334
  120SOPE  H18Z12784   5.660   0.537   4.189 -1.1937 -1.0061 -1.0279
  121SOPE     N12785   5.492   6.245   6.245  0.6772  0.1019  0.2426
  121SOPE   HN112786   5.417   6.176   6.264 -1.7590  2.4280 -0.3732
  121SOPE   HN212787   5.448   6.339   6.240 -3.0241 -1.4659  0.5879
  121SOPE   HN312788   5.542   6.216   6.158  0.1954 -0.6252  0.1961
  121SOPE   C1212789   5.598   6.246   6.352 -0.1063  0.0728  0.0972
  121SOPE  H12A12790   5.648   6.147   6.348  1.5385  0.9147 -3.0303
  121SOPE  H12B12791   5.547   6.260   6.450 -2.4144 -1.1151 -0.8586
  121SOPE   C1112792   5.697   6.365   6.331 -0.0347  0.2059  0.0971
  121SOPE  H11A12793   5.725   6.378   6.225  1.0807  2.7329  0.6141
  121SOPE  H11B12794   5.788   6.340   6.391 -1.0676  0.5549  1.8875
  121SOPE     P12795   5.749   6.612   6.373 -0.1564 -0.1096 -0.2713
  121SOPE   O1312796   5.891   6.562   6.384 -0.5297 -0.3408  0.3984
  121SOPE   O1412797   5.709   6.710   6.473 -0.1765 -0.1231  0.3384
  121SOPE   O1212798   5.646   6.494   6.373  0.2563  0.1870 -0.3295
  121SOPE   O1112799   5.743   6.685   6.230  0.2989  0.1818 -0.2279
  121SOPE    C112800   5.614   6.735   6.188 -0.3916  0.0159 -0.2765
  121SOPE    HA12801   5.604   6.829   6.247  1.7316  0.4853 -0.5556
  121SOPE    HB12802   5.536   6.658   6.207 -0.1491 -0.3656 -0.8012
  121SOPE    C212803   5.606   6.773   6.040  0.1866  0.3649  0.1484
  121SOPE    HS12804   5.496   6.783   6.023  0.0357 -1.3605 -0.0801
  121SOPE   O2112805   5.668   6.677   5.959  0.0377 -0.1269  0.1218
  121SOPE   C2112806   5.603   6.562   5.940 -0.1443  0.3467 -0.0953
  121SOPE   O2212807   5.502   6.529   5.998 -0.2485 -0.3917 -0.0591
  121SOPE   C2212808   5.682   6.466   5.847  0.2918  0.1093  0.1223
  121SOPE   H2R12809   5.648   6.360   5.852 -1.4373  0.6089 -0.3317
  121SOPE   H2S12810   5.781   6.469   5.896  1.1337 -0.3019 -1.4604
  121SOPE    C312811   5.670   6.908   6.006 -0.3272  0.6205  0.3002
  121SOPE    HX12812   5.776   6.889   6.032 -0.2665 -1.0685 -1.0354
  121SOPE    HY12813   5.636   6.987   6.076  0.1247  1.5060 -0.4548
  121SOPE   O3112814   5.642   6.949   5.871 -0.1355  0.4444 -0.6713
  121SOPE   C3112815   5.734   6.911   5.778 -0.0741  0.4399  0.0485
  121SOPE   O3212816   5.834   6.842   5.795 -0.0522  0.3481  0.3315
  121SOPE   C3212817   5.665   6.933   5.643 -0.5511  0.1550  0.3409
  121SOPE   H2X12818   5.628   7.038   5.637  1.1032  0.8133  1.0129
  121SOPE   H2Y12819   5.567   6.880   5.650 -1.0467  1.2660  3.1575
  121SOPE   C2312820   5.693   6.509   5.704 -0.8257  0.1405  0.2616
  121SOPE   H3R12821   5.709   6.617   5.686 -1.8503  0.2495 -0.0386
  121SOPE   H3S12822   5.607   6.479   5.641  0.1698 -0.9857 -0.6216
  121SOPE   C2412823   5.821   6.445   5.637 -0.6248  0.1105 -0.4189
  121SOPE   H4R12824   5.908   6.482   5.695  0.1063  0.9050 -1.9711
  121SOPE   H4S12825   5.810   6.335   5.648 -1.0595  0.1050 -0.8620
  121SOPE   C2512826   5.840   6.480   5.486  0.3215  0.8823 -0.3785
  121SOPE   H5R12827   5.840   6.383   5.432  0.7550  0.2836  0.6478
  121SOPE   H5S12828   5.753   6.542   5.454  0.9408  0.6855 -2.5480
  121SOPE   C2612829   5.970   6.554   5.451 -0.6902 -0.4114 -0.3028
  121SOPE   H6R12830   5.978   6.656   5.495 -1.5552 -0.1394 -0.7647
  121SOPE   H6S12831   6.052   6.489   5.488 -2.4906 -2.2023  0.7804
  121SOPE   C2712832   5.992   6.548   5.296  0.2760 -0.8891 -0.7895
  121SOPE   H7R12833   5.984   6.447   5.252 -0.3958 -0.9414 -0.5672
  121SOPE   H7S12834   5.908   6.606   5.252  0.0061  0.1304  0.9531
  121SOPE   C2812835   6.127   6.606   5.248 -0.6629  0.2285  0.6128
  121SOPE   H8R12836   6.216   6.565   5.299  0.7401  0.2985 -1.6426
  121SOPE   H8S12837   6.146   6.565   5.147  1.8997  1.1477  0.6591
  121SOPE   C2912838   6.127   6.754   5.253 -0.0739  0.3476  0.4228
  121SOPE   H9112839   6.134   6.786   5.358  0.5495 -2.7571  1.4230
  121SOPE  C21012840   6.081   6.834   5.155  0.6774 -0.2334  0.3273
  121SOPE  H10112841   6.071   6.941   5.179  1.9193  0.2599 -1.2602
  121SOPE  C21112842   6.046   6.801   5.007  0.2426 -0.2318 -0.6007
  121SOPE  H11R12843   5.941   6.767   4.997  0.6904 -1.2802 -1.9684
  121SOPE  H11S12844   6.111   6.717   4.974 -2.1406 -3.1510  1.6024
  121SOPE  C21212845   6.066   6.935   4.923 -0.2163 -0.4396  0.6488
  121SOPE  H12R12846   6.170   6.967   4.944 -0.9856  1.2254  2.1275
  121SOPE  H12S12847   5.993   7.014   4.949  1.6233  0.9932  1.6830
  121SOPE  C21312848   6.065   6.902   4.774  0.5153 -0.8619  0.2133
  121SOPE  H13R12849   5.958   6.886   4.750 -0.5988  0.3786  3.7118
  121SOPE  H13S12850   6.118   6.809   4.746 -0.1062 -0.8999 -0.8991
  121SOPE  C21412851   6.119   7.020   4.692 -0.5448 -0.1897 -0.5852
  121SOPE  H14R12852   6.229   7.009   4.691 -0.6495 -1.4986 -0.1212
  121SOPE  H14S12853   6.100   7.111   4.752  3.2794 -0.6521  1.6596
  121SOPE  C21512854   6.066   7.036   4.547 -0.4155 -0.0653 -0.0373
  121SOPE  H15R12855   6.088   7.140   4.514 -2.7937  0.0471 -1.4984
  121SOPE  H15S12856   5.957   7.018   4.554  0.0317 -3.1794  0.3457
  121SOPE  C21612857   6.118   6.931   4.451 -0.5537 -0.1720 -0.6292
  121SOPE  H16R12858   6.095   6.829   4.490 -1.9433  0.2839 -0.1896
  121SOPE  H16S12859   6.224   6.940   4.421 -0.1989 -0.5591  0.4619
  121SOPE  C21712860   6.041   6.956   4.323  0.3466 -0.7072 -0.4661
  121SOPE  H17R12861   6.055   7.063   4.297  0.1076 -1.0736 -2.2673
  121SOPE  H17S12862   5.933   6.940   4.344  0.6490 -0.6246  1.2690
  121SOPE  C21812863   6.075   6.861   4.207 -0.9372 -0.0553 -0.1704
  121SOPE  H18R12864   6.042   6.760   4.238 -0.7291  0.1990  0.9179
  121SOPE  H18S12865   6.183   6.874   4.183 -1.3001 -0.1096 -2.0044
  121SOPE  H18T12866   6.015   6.882   4.115  1.9042  1.1701 -1.8745
  121SOPE   C3312867   5.753   6.894   5.518  0.0152  0.6297  0.1013
  121SOPE   H3X12868   5.797   6.795   5.544 -0.1826  0.1897 -1.2090
  121SOPE   H3Y12869   5.837   6.965   5.501  0.5014  0.0643  0.0845
  121SOPE   C3412870   5.679   6.875   5.381  0.2707  0.1969  0.2004
  121SOPE   H4X12871   5.605   6.792   5.380  0.4471  0.0450 -0.7249
  121SOPE   H4Y12872   5.759   6.864   5.304 -0.6540 -0.2751 -0.7158
  121SOPE   C3512873   5.603   7.005   5.352  0.1401 -0.2424 -0.7304
  121SOPE   H5X12874   5.680   7.084   5.341 -0.3273  0.2514 -0.5364
  121SOPE   H5Y12875   5.530   7.042   5.428 -1.3838 -0.6854 -1.9272
  121SOPE   C3612876   5.526   7.012   5.218  0.5863  0.6476 -0.1066
  121SOPE   H6X12877   5.470   7.109   5.220  0.4827  0.6104 -0.8534
  121SOPE   H6Y12878   5.441   6.948   5.185  0.3166  1.5552 -1.2436
  121SOPE   C3712879   5.620   7.036   5.097  0.2007  0.0872 -1.1864
  121SOPE   H7X12880   5.700   6.959   5.100  0.7141  0.6232  1.5429
  121SOPE   H7Y12881   5.664   7.138   5.100 -1.2481  0.7207 -0.5020
  121SOPE   C3812882   5.553   7.046   4.956  0.8028  0.2605 -0.0426
  121SOPE   H8X12883   5.491   7.137   4.964  2.3781  1.4227 -0.5568
  121SOPE   H8Y12884   5.486   6.958   4.945 -0.1591  1.0854 -0.9705
  121SOPE   C3912885   5.658   7.062   4.848  0.5376  0.3594  0.5638
  121SOPE   H9X12886   5.736   6.983   4.850  2.3157  1.9418 -1.4142
  121SOPE   H9Y12887   5.713   7.157   4.866 -0.4194  1.1237 -0.3797
  121SOPE  C31012888   5.584   7.070   4.705  0.5646  0.0628 -0.4828
  121SOPE  H10X12889   5.505   7.148   4.710  1.7917  1.3142 -0.0785
  121SOPE  H10Y12890   5.534   6.971   4.695 -0.9418  0.6008  1.2317
  121SOPE  C31112891   5.691   7.096   4.606 -0.7863 -0.8413  0.0071
  121SOPE  H11X12892   5.760   7.009   4.607  1.3824  0.7586 -1.1238
  121SOPE  H11Y12893   5.749   7.185   4.638 -1.1048 -0.7218  0.2561
  121SOPE  C31212894   5.630   7.136   4.468  0.0671 -0.1291 -0.3229
  121SOPE  H12X12895   5.626   7.058   4.389 -2.6744 -0.4607  0.0476
  121SOPE  H12Y12896   5.703   7.206   4.423  1.5762 -2.4223 -1.6584
  121SOPE  C31312897   5.501   7.217   4.477 -0.0253 -0.1810  0.0856
  121SOPE  H13X12898   5.508   7.298   4.553 -2.6559  0.1742  0.0347
  121SOPE  H13Y12899   5.408   7.157   4.491 -0.2400 -0.1505 -1.0830
  121SOPE  C31412900   5.472   7.268   4.332 -0.3976 -0.6583  0.3625
  121SOPE  H14X12901   5.483   7.186   4.259  0.3741 -0.7296  0.5464
  121SOPE  H14Y12902   5.549   7.345   4.309 -2.5962  0.8559 -2.6583
  121SOPE  C31512903   5.334   7.336   4.315 -0.1295 -0.1052  0.3712
  121SOPE  H15X12904   5.321   7.427   4.378  0.0354  2.0280 -2.4654
  121SOPE  H15Y12905   5.257   7.266   4.354 -2.1538  2.0285  0.4349
  121SOPE  C31612906   5.292   7.364   4.169 -0.1715 -0.1281  0.2018
  121SOPE  H16X12907   5.309   7.277   4.102 -1.7141  0.0904 -0.5283
  121SOPE  H16Y12908   5.359   7.436   4.119 -0.3120 -0.4366 -0.4515
  121SOPE  C31712909   5.157   7.428   4.154 -0.0766 -0.0431  0.6610
  121SOPE  H17X12910   5.079   7.358   4.192  1.5120 -1.8139  0.8458
  121SOPE  H17Y12911   5.130   7.448   4.048 -1.2975 -0.0103  0.9694
  121SOPE  C31812912   5.141   7.567   4.228  0.7642 -0.6405  0.4813
  121SOPE  H18X12913   5.224   7.638   4.210  0.1399 -0.3401 -1.5772
  121SOPE  H18Y12914   5.134   7.547   4.337 -0.8402  0.1627  0.5645
  121SOPE  H18Z12915   5.049   7.623   4.199  1.0531 -0.1601  0.4919
  122SOPE     N12916   6.835   0.181   6.412  0.7666 -0.0893 -0.6179
  122SOPE   HN112917   6.922   0.133   6.441 -0.6000 -1.2418  1.9207
  122SOPE   HN212918   6.846   0.263   6.350 -0.1078  0.1320 -0.4954
  122SOPE   HN312919   6.780   0.212   6.494  0.6828 -1.2354 -0.2174
  122SOPE   C1212920   6.739   0.078   6.359  0.3313 -0.3783  0.0008
  122SOPE  H12A12921   6.723  -0.001   6.435  0.9488 -0.9438 -0.4517
  122SOPE  H12B12922   6.795   0.034   6.274  1.2127  2.1196 -0.7865
  122SOPE   C1112923   6.609   0.151   6.324 -0.7027  0.7081  0.4415
  122SOPE  H11A12924   6.536   0.071   6.297 -0.7221 -0.1046  2.6748
  122SOPE  H11B12925   6.619   0.223   6.240  1.8912  0.2706  0.2964
  122SOPE     P12926   6.414   0.280   6.453  0.0379 -0.0342 -0.3228
  122SOPE   O1312927   6.419   0.427   6.466 -0.2006 -0.7450  0.4160
  122SOPE   O1412928   6.341   0.214   6.557 -0.6160  0.3953 -0.3148
  122SOPE   O1212929   6.567   0.218   6.445  0.1671 -0.4307 -0.3169
  122SOPE   O1112930   6.347   0.238   6.314  0.3176 -0.0477  0.2480
  122SOPE    C112931   6.341   0.323   6.199  0.2813  0.1170 -1.0966
  122SOPE    HA12932   6.417   0.405   6.195  0.6345 -0.0843  0.6536
  122SOPE    HB12933   6.240   0.368   6.203 -0.2655 -1.0438 -1.5019
  122SOPE    C212934   6.351   0.243   6.071  0.3173 -0.2488 -0.8077
  122SOPE    HS12935   6.258   0.183   6.068 -0.7687  1.3637 -0.5888
  122SOPE   O2112936   6.470   0.152   6.067  0.1670 -1.0317  0.1097
  122SOPE   C2112937   6.456   0.043   5.991 -0.1639  1.1916  0.1050
  122SOPE   O2212938   6.351  -0.004   5.955  0.3487  0.1195  0.0974
  122SOPE   C2212939   6.596  -0.015   5.945  0.0165 -0.7440 -0.7098
  122SOPE   H2R12940   6.598  -0.127   5.946  3.0328 -0.7682 -0.3903
  122SOPE   H2S12941   6.669   0.014   6.023 -1.4532  2.0609 -0.2601
  122SOPE    C312942   6.360   0.342   5.954 -0.2647  0.1793  0.8136
  122SOPE    HX12943   6.468   0.367   5.955  0.1199 -1.3643  1.2373
  122SOPE    HY12944   6.297   0.433   5.962 -1.0342 -0.1198 -1.3247
  122SOPE   O3112945   6.340   0.273   5.824 -0.0157  0.2687 -0.3258
  122SOPE   C3112946   6.208   0.254   5.793  0.2098  0.0132 -0.4284
  122SOPE   O3212947   6.114   0.292   5.861 -0.1924  0.8783 -0.1684
  122SOPE   C3212948   6.209   0.176   5.668  1.0285 -0.3007 -0.6566
  122SOPE   H2X12949   6.181   0.074   5.701  0.7153 -0.5189 -1.5729
  122SOPE   H2Y12950   6.309   0.179   5.620  0.9995 -0.0256 -0.7050
  122SOPE   C2312951   6.645   0.050   5.819  0.2336 -0.6038 -0.4660
  122SOPE   H3R12952   6.750   0.024   5.796  1.4955  0.4981  3.2707
  122SOPE   H3S12953   6.617   0.158   5.825  0.7211 -0.5521  1.7329
  122SOPE   C2412954   6.554  -0.006   5.707 -0.3397  0.3312 -0.0809
  122SOPE   H4R12955   6.561  -0.116   5.722  1.9030  0.4399  0.0170
  122SOPE   H4S12956   6.451   0.025   5.736  0.3658  0.1953  2.9328
  122SOPE   C2512957   6.600   0.036   5.575 -0.0843 -0.3597 -0.2648
  122SOPE   H5R12958   6.593   0.145   5.555 -0.1896 -0.4977 -1.0125
  122SOPE   H5S12959   6.708   0.012   5.579  0.2354  1.0878  1.5545
  122SOPE   C2612960   6.529  -0.051   5.471  0.0843  0.7245  0.6215
  122SOPE   H6R12961   6.570  -0.154   5.485  0.9042  0.9477 -0.0356
  122SOPE   H6S12962   6.419  -0.057   5.479  0.1757 -1.7687  0.7963
  122SOPE   C2712963   6.579  -0.017   5.326 -0.0361 -0.1245 -0.3088
  122SOPE   H7R12964   6.567   0.093   5.323  1.6767  0.1185  0.5634
  122SOPE   H7S12965   6.682  -0.059   5.322  0.3130  0.4047  1.8243
  122SOPE   C2812966   6.489  -0.091   5.226 -0.0788 -0.8056  0.1927
  122SOPE   H8R12967   6.503  -0.199   5.248 -1.7962 -1.4637 -1.6379
  122SOPE   H8S12968   6.380  -0.069   5.231 -0.2965 -1.7388 -0.1813
  122SOPE   C2912969   6.532  -0.073   5.085  0.0684 -0.6693  0.5270
  122SOPE   H9112970   6.594  -0.153   5.043 -0.6946 -1.3795  0.7267
  122SOPE  C21012971   6.514   0.035   5.011  0.4291  0.2903  0.7376
  122SOPE  H10112972   6.553   0.025   4.909 -0.8841 -0.8066  0.3184
  122SOPE  C21112973   6.449   0.170   5.041  0.9190 -0.4349  0.0174
  122SOPE  H11R12974   6.415   0.166   5.146 -0.0732  0.6538 -0.2379
  122SOPE  H11S12975   6.359   0.195   4.980 -1.0984  0.0564  2.9697
  122SOPE  C21212976   6.545   0.287   5.026 -0.1929  0.4528  0.2321
  122SOPE  H12R12977   6.573   0.287   4.918 -0.6721 -1.0668  0.0758
  122SOPE  H12S12978   6.638   0.260   5.080 -0.7045  0.7303  1.2717
  122SOPE  C21312979   6.493   0.419   5.068 -0.0793 -0.9808  0.3823
  122SOPE  H13R12980   6.404   0.448   5.008 -0.3625  2.0118  2.0627
  122SOPE  H13S12981   6.568   0.493   5.034  0.1430 -1.1523  0.4958
  122SOPE  C21412982   6.454   0.430   5.215 -0.3996  0.4398  0.8957
  122SOPE  H14R12983   6.543   0.398   5.273  2.1105  1.3406 -2.1540
  122SOPE  H14S12984   6.376   0.352   5.226  0.6390 -1.3731 -2.8495
  122SOPE  C21512985   6.400   0.568   5.255  0.4108  0.0510 -0.3827
  122SOPE  H15R12986   6.299   0.587   5.212 -0.0677  1.4477  1.2291
  122SOPE  H15S12987   6.452   0.647   5.196 -3.0014  2.3213 -0.6606
  122SOPE  C21612988   6.409   0.610   5.405  0.8011  0.2684 -0.3428
  122SOPE  H16R12989   6.375   0.716   5.411 -0.9106 -0.1566 -1.6265
  122SOPE  H16S12990   6.515   0.613   5.437  1.4021 -1.5912 -1.9536
  122SOPE  C21712991   6.311   0.530   5.491  0.3607  0.1968  0.1328
  122SOPE  H17R12992   6.359   0.432   5.511  0.0428  0.3103  1.5655
  122SOPE  H17S12993   6.210   0.528   5.445  0.0380 -0.4744  0.8629
  122SOPE  C21812994   6.283   0.605   5.619  0.4402  0.4763 -0.5781
  122SOPE  H18R12995   6.221   0.696   5.603 -1.7973 -0.7431  0.7850
  122SOPE  H18S12996   6.375   0.636   5.674 -0.0749  0.7639  0.1294
  122SOPE  H18T12997   6.222   0.536   5.680  1.2687  0.8025  0.6560
  122SOPE   C3312998   6.113   0.226   5.570  0.3117  0.9085 -0.1199
  122SOPE   H3X12999   6.120   0.335   5.552 -1.2792  0.8317 -1.3497
  122SOPE   H3Y13000   6.011   0.202   5.607  0.6095 -0.2039  0.0275
  122SOPE   C3413001   6.122   0.145   5.441 -0.2702  0.0526 -0.0551
  122SOPE   H4X13002   6.097   0.037   5.452  0.7800 -0.0958  1.1783
  122SOPE   H4Y13003   6.228   0.157   5.408 -0.0334  1.2945  1.0842
  122SOPE   C3513004   6.038   0.202   5.334  0.4496  0.4144  0.0876
  122SOPE   H5X13005   6.036   0.313   5.341 -1.9031  0.3240  2.7310
  122SOPE   H5Y13006   5.933   0.169   5.350  0.8955 -1.5337 -0.7336
  122SOPE   C3613007   6.083   0.163   5.190  0.2838 -0.2255 -0.0916
  122SOPE   H6X13008   6.078   0.053   5.180  0.6237 -0.1990 -0.6039
  122SOPE   H6Y13009   6.188   0.194   5.171  0.6637 -0.8641  0.8995
  122SOPE   C3713010   5.986   0.228   5.088  0.4894  0.3028 -0.1394
  122SOPE   H7X13011   5.882   0.233   5.126  0.1895 -0.6863 -0.7725
  122SOPE   H7Y13012   5.986   0.161   4.999 -0.1884 -0.3876  0.3668
  122SOPE   C3813013   6.030   0.370   5.055  0.1565 -0.6193 -0.6216
  122SOPE   H8X13014   6.140   0.371   5.048  0.1318  0.1869 -0.9813
  122SOPE   H8Y13015   6.005   0.427   5.147  0.6134 -1.3509 -0.0307
  122SOPE   C3913016   5.959   0.428   4.936  0.5299  0.0732  0.2254
  122SOPE   H9X13017   5.996   0.531   4.920 -2.5218  0.8046 -3.7246
  122SOPE   H9Y13018   5.850   0.428   4.958 -0.0631 -1.2308 -2.3245
  122SOPE  C31013019   5.980   0.344   4.811  0.7969 -0.6071 -0.4241
  122SOPE  H10X13020   5.925   0.248   4.801 -1.6705  0.8497 -2.1700
  122SOPE  H10Y13021   6.089   0.328   4.800  0.6923 -1.9384  0.2465
  122SOPE  C31113022   5.931   0.410   4.679  0.3348 -0.0344 -0.5821
  122SOPE  H11X13023   5.974   0.513   4.685 -0.6123  0.3644 -0.5416
  122SOPE  H11Y13024   5.821   0.420   4.672  0.3844  0.5738 -0.5404
  122SOPE  C31213025   5.982   0.338   4.555 -0.0705 -0.1510  0.8062
  122SOPE  H12X13026   5.965   0.228   4.558 -1.3960 -0.1200 -2.1860
  122SOPE  H12Y13027   6.089   0.358   4.535  0.0568 -0.9439  0.6602
  122SOPE  C31313028   5.905   0.377   4.425  0.0676  0.7560 -0.1774
  122SOPE  H13X13029   5.947   0.472   4.385  2.2158  0.0175  0.2024
  122SOPE  H13Y13030   5.796   0.392   4.442  0.0890  2.5550 -1.4019
  122SOPE  C31413031   5.936   0.268   4.321  0.3567 -0.8957 -0.1362
  122SOPE  H14X13032   5.927   0.167   4.366  0.4760 -0.8086  0.0893
  122SOPE  H14Y13033   6.039   0.284   4.284 -0.8745 -0.7371 -3.8389
  122SOPE  C31513034   5.850   0.294   4.196  0.9871  0.0657 -0.2415
  122SOPE  H15X13035   5.892   0.380   4.140 -0.4302  1.7757  1.2123
  122SOPE  H15Y13036   5.748   0.327   4.226  0.5043  0.3066 -2.0251
  122SOPE  C31613037   5.825   0.151   4.128 -0.0578  0.4195  0.2474
  122SOPE  H16X13038   5.769   0.090   4.202  2.7562 -0.7917  1.5073
  122SOPE  H16Y13039   5.921   0.100   4.106 -0.4407  0.0063 -0.5030
  122SOPE  C31713040   5.736   0.177   3.999 -0.4163  0.4494 -0.6242
  122SOPE  H17X13041   5.644   0.236   4.020  0.1264  1.7555 -1.7327
  122SOPE  H17Y13042   5.714   0.072   3.972  2.2999 -0.8699  1.7504
  122SOPE  C31813043   5.803   0.252   3.883 -0.3549  0.0975  0.3721
  122SOPE  H18X13044   5.736   0.271   3.796 -0.8611 -1.4736  0.3798
  122SOPE  H18Y13045   5.878   0.180   3.843 -1.1423 -0.8961  0.6252
  122SOPE  H18Z13046   5.875   0.334   3.898  3.3581 -2.5448 -1.3572
  123SOPE     N13047   3.043   1.558   2.126  0.4529  0.0321  0.3333
  123SOPE   HN113048   3.092   1.608   2.049  0.4130 -0.7025 -0.1762
  123SOPE   HN213049   3.034   1.463   2.085  0.9611 -0.0503  0.4066
  123SOPE   HN313050   2.949   1.600   2.137  0.4656  0.0220  0.4842
  123SOPE   C1213051   3.132   1.543   2.252 -0.4571 -0.3291 -0.4444
  123SOPE  H12A13052   3.208   1.466   2.226 -0.7659 -0.6618 -0.3802
  123SOPE  H12B13053   3.062   1.510   2.332  0.2643  0.0263  0.3525
  123SOPE   C1113054   3.210   1.679   2.289 -0.1703  0.7680 -0.5592
  123SOPE  H11A13055   3.288   1.707   2.215  1.1817  0.2020  0.6093
  123SOPE  H11B13056   3.272   1.657   2.379 -0.2670  0.0130 -0.6681
  123SOPE     P13057   3.058   1.832   2.430  0.1628  0.0767  0.2528
  123SOPE   O1313058   2.965   1.727   2.490 -0.4033  0.9381  0.1217
  123SOPE   O1413059   3.012   1.976   2.419 -0.8561  0.0157  0.0113
  123SOPE   O1213060   3.110   1.778   2.291  0.1228 -0.3916  0.4258
  123SOPE   O1113061   3.200   1.836   2.503 -0.1361  0.1097 -0.5018
  123SOPE    C113062   3.303   1.930   2.474  0.6275  0.2424 -0.1173
  123SOPE    HA13063   3.272   2.035   2.493 -0.4332 -0.3918  1.9421
  123SOPE    HB13064   3.320   1.918   2.365  3.2519  0.8807  0.1462
  123SOPE    C213065   3.429   1.893   2.552  0.0670  0.1876  0.6538
  123SOPE    HS13066   3.456   1.789   2.524 -0.6888 -0.0536  0.8071
  123SOPE   O2113067   3.410   1.902   2.695  0.2924 -1.0118 -0.2111
  123SOPE   C2113068   3.393   1.784   2.753 -0.7530 -0.1970  0.4758
  123SOPE   O2213069   3.401   1.676   2.701  0.0073  0.1590 -0.1250
  123SOPE   C2213070   3.388   1.822   2.901  0.1434  0.4058 -0.0122
  123SOPE   H2R13071   3.299   1.884   2.923  0.0110  0.8232 -1.5654
  123SOPE   H2S13072   3.480   1.884   2.912  1.0689 -1.1602  1.7490
  123SOPE    C313073   3.552   1.980   2.513  0.3095  0.4044  0.4125
  123SOPE    HX13074   3.517   2.084   2.529 -0.1367  0.1684  0.9785
  123SOPE    HY13075   3.574   1.949   2.408  0.5674 -0.3726  0.6912
  123SOPE   O3113076   3.669   1.949   2.596 -0.5529  0.1366  0.2483
  123SOPE   C3113077   3.732   1.832   2.575  0.3272 -0.2510 -0.4186
  123SOPE   O3213078   3.696   1.754   2.488  0.0049 -0.0888 -0.0945
  123SOPE   C3213079   3.836   1.808   2.681  0.7204 -0.1762 -0.1563
  123SOPE   H2X13080   3.893   1.903   2.695 -0.8947  0.8319 -0.1173
  123SOPE   H2Y13081   3.899   1.728   2.636  1.4422  1.0109 -1.3262
  123SOPE   C2313082   3.407   1.695   2.990  0.0906 -0.2546 -0.1038
  123SOPE   H3R13083   3.506   1.648   2.970  0.6094  1.4515 -1.8410
  123SOPE   H3S13084   3.326   1.622   2.971 -1.1467  1.3092 -1.0812
  123SOPE   C2413085   3.395   1.734   3.140 -0.0548  0.4126  0.0862
  123SOPE   H4R13086   3.489   1.780   3.179 -0.4844  0.8485  0.6109
  123SOPE   H4S13087   3.312   1.806   3.150  0.4144  0.8078  1.4434
  123SOPE   C2513088   3.363   1.607   3.224 -0.3544 -0.1436 -0.4274
  123SOPE   H5R13089   3.259   1.578   3.199 -1.3795 -0.3490  3.4508
  123SOPE   H5S13090   3.437   1.530   3.191 -2.1307 -1.6158 -1.1299
  123SOPE   C2613091   3.375   1.632   3.376  0.0858  0.1444  0.2530
  123SOPE   H6R13092   3.482   1.649   3.400  0.0384  0.6811  0.0850
  123SOPE   H6S13093   3.324   1.721   3.419  0.2383 -0.1651  1.0885
  123SOPE   C2713094   3.330   1.513   3.465 -0.1034 -0.7138  0.7249
  123SOPE   H7R13095   3.356   1.536   3.571 -0.3205  3.0583  0.1129
  123SOPE   H7S13096   3.219   1.502   3.464 -0.0695 -1.3952 -1.7134
  123SOPE   C2813097   3.392   1.378   3.423 -0.6613 -0.2840 -0.1598
  123SOPE   H8R13098   3.338   1.341   3.333 -4.0130 -0.9629  1.9453
  123SOPE   H8S13099   3.496   1.392   3.389 -0.5669 -1.1966 -0.2758
  123SOPE   C2913100   3.380   1.269   3.522  0.2919 -0.1335 -0.6976
  123SOPE   H9113101   3.458   1.267   3.599 -0.2312 -0.7995 -0.1766
  123SOPE  C21013102   3.274   1.184   3.523  0.4614 -0.5827 -0.7880
  123SOPE  H10113103   3.259   1.117   3.609  0.3695  0.5021  0.0563
  123SOPE  C21113104   3.156   1.175   3.425  0.0898 -0.4349 -0.1044
  123SOPE  H11R13105   3.162   1.241   3.335 -0.0955 -2.1968 -1.4622
  123SOPE  H11S13106   3.064   1.209   3.476 -0.4892  2.4760 -2.7223
  123SOPE  C21213107   3.131   1.033   3.371  0.2887  0.1192 -0.6590
  123SOPE  H12R13108   3.119   0.972   3.463  0.2356  0.7198 -0.2600
  123SOPE  H12S13109   3.224   0.996   3.321  1.1660 -1.6098  2.0739
  123SOPE  C21313110   3.007   1.025   3.282  0.2989 -0.2494 -0.4438
  123SOPE  H13R13111   2.915   1.061   3.333  1.6178  1.3065  0.9373
  123SOPE  H13S13112   2.989   0.916   3.272 -0.7727 -0.2924  1.4807
  123SOPE  C21413113   3.022   1.092   3.143 -0.3052  0.1757 -0.5136
  123SOPE  H14R13114   3.108   1.047   3.089  0.5670  0.8826  0.2547
  123SOPE  H14S13115   3.044   1.200   3.158  1.9068 -0.2375 -0.5040
  123SOPE  C21513116   2.899   1.064   3.065 -0.0426 -0.3880 -0.1342
  123SOPE  H15R13117   2.809   1.098   3.120  1.8070  1.2947  2.0403
  123SOPE  H15S13118   2.881   0.956   3.048 -0.0542 -0.7133  1.7676
  123SOPE  C21613119   2.913   1.131   2.929 -0.3164 -0.2748  0.4380
  123SOPE  H16R13120   2.993   1.088   2.866 -0.5179 -0.7867  0.5247
  123SOPE  H16S13121   2.931   1.240   2.936 -4.4849  0.6281  0.1939
  123SOPE  C21713122   2.783   1.127   2.843 -0.3080  0.0530  0.2746
  123SOPE  H17R13123   2.703   1.189   2.888 -1.3536 -1.9365  1.2711
  123SOPE  H17S13124   2.737   1.026   2.838 -1.3346  0.4630  1.0238
  123SOPE  C21813125   2.806   1.177   2.702  0.1142  0.6140  0.3950
  123SOPE  H18R13126   2.830   1.285   2.698  2.5140  0.1033 -0.7747
  123SOPE  H18S13127   2.716   1.153   2.641 -0.3017 -4.3689  2.4414
  123SOPE  H18T13128   2.889   1.116   2.660  1.6765  2.2769  0.9293
  123SOPE   C3313129   3.777   1.769   2.815 -0.2844  0.0696 -0.2441
  123SOPE   H3X13130   3.700   1.689   2.807 -0.2673  0.1119 -0.9080
  123SOPE   H3Y13131   3.728   1.858   2.861  0.1859 -0.6736  1.8044
  123SOPE   C3413132   3.889   1.726   2.911  0.7681 -0.7016  0.2025
  123SOPE   H4X13133   3.953   1.816   2.913  0.8881 -0.7929  1.5517
  123SOPE   H4Y13134   3.954   1.644   2.872  0.8394  0.1513 -1.5523
  123SOPE   C3513135   3.817   1.710   3.046 -0.8999  0.5722  0.3459
  123SOPE   H5X13136   3.713   1.748   3.035 -1.1210 -0.1097 -0.0101
  123SOPE   H5Y13137   3.861   1.781   3.119  0.8799  0.9742 -1.0467
  123SOPE   C3613138   3.815   1.575   3.119 -0.2916 -0.2379  0.9007
  123SOPE   H6X13139   3.813   1.490   3.049 -3.3714  1.0079 -0.7178
  123SOPE   H6Y13140   3.724   1.558   3.180 -0.5785  0.1910  0.5963
  123SOPE   C3713141   3.919   1.564   3.232 -0.1096  0.1414 -0.2307
  123SOPE   H7X13142   3.913   1.654   3.297 -2.3252 -0.5466  0.6210
  123SOPE   H7Y13143   4.012   1.543   3.175 -0.9215 -1.8765 -0.9114
  123SOPE   C3813144   3.879   1.445   3.318 -0.1938  0.0851 -0.4556
  123SOPE   H8X13145   3.961   1.415   3.387 -1.3344 -0.1794  0.8195
  123SOPE   H8Y13146   3.862   1.354   3.256 -0.6243 -0.1558  0.0133
  123SOPE   C3913147   3.763   1.462   3.421 -1.3593  0.7734 -1.0689
  123SOPE   H9X13148   3.675   1.504   3.368 -0.5171  0.7623 -2.5288
  123SOPE   H9Y13149   3.794   1.547   3.485  1.4691 -1.1740  0.3545
  123SOPE  C31013150   3.732   1.335   3.508  0.5391  0.5774  0.9067
  123SOPE  H10X13151   3.686   1.264   3.437 -0.4707  2.6513 -0.6336
  123SOPE  H10Y13152   3.652   1.355   3.583  1.2460  2.2204  1.2823
  123SOPE  C31113153   3.846   1.272   3.581  0.2423  0.1506 -0.5237
  123SOPE  H11X13154   3.910   1.235   3.498 -2.6548 -1.4545 -2.2128
  123SOPE  H11Y13155   3.801   1.185   3.634 -0.5999 -0.1553 -1.6977
  123SOPE  C31213156   3.915   1.367   3.681  0.2627  0.0858  0.7125
  123SOPE  H12X13157   3.976   1.434   3.618 -1.1795 -0.1009 -0.9669
  123SOPE  H12Y13158   3.972   1.298   3.748 -0.4148  1.5879  2.9295
  123SOPE  C31313159   3.835   1.436   3.784  0.1919 -0.2691  0.7131
  123SOPE  H13X13160   3.757   1.361   3.809  1.5311 -2.8106 -2.0829
  123SOPE  H13Y13161   3.806   1.530   3.733  2.4297  1.2701  2.0735
  123SOPE  C31413162   3.913   1.469   3.912  0.2166 -0.0550 -0.3602
  123SOPE  H14X13163   3.956   1.373   3.948  0.3364  0.1912  0.1689
  123SOPE  H14Y13164   3.838   1.504   3.986  1.7311  1.0616  0.7164
  123SOPE  C31513165   4.021   1.577   3.894  0.4599  0.1804 -0.4410
  123SOPE  H15X13166   3.977   1.642   3.815 -3.4246  0.5701  1.7660
  123SOPE  H15Y13167   4.119   1.534   3.865 -0.6112 -2.1004 -0.9125
  123SOPE  C31613168   4.035   1.673   4.011 -0.6389 -0.1248  0.0719
  123SOPE  H16X13169   4.062   1.620   4.105  2.1804  2.2099  0.7163
  123SOPE  H16Y13170   3.937   1.722   4.033 -1.3953 -0.9720 -1.2482
  123SOPE  C31713171   4.123   1.793   3.984 -0.4098 -1.0466 -0.5575
  123SOPE  H17X13172   4.228   1.761   3.968 -0.1612 -0.9698  0.7429
  123SOPE  H17Y13173   4.127   1.852   4.079 -2.0532 -1.9004  0.0833
  123SOPE  C31813174   4.070   1.887   3.870  0.1744  0.0500  0.2312
  123SOPE  H18X13175   3.966   1.916   3.893  0.4668  0.0719  1.6282
  123SOPE  H18Y13176   4.050   1.839   3.772 -1.5515 -1.5099  1.2881
  123SOPE  H18Z13177   4.134   1.977   3.878  0.3038  0.2683 -2.4929
  124SOPE     N13178   5.504   5.139   1.407 -0.4337 -0.1288  0.1250
  124SOPE   HN113179   5.531   5.229   1.362 -0.6571  0.0704  0.3922
  124SOPE   HN213180   5.507   5.067   1.332  2.9946 -0.7465  0.6867
  124SOPE   HN313181   5.412   5.132   1.454 -1.8181 -1.3487 -2.5446
  124SOPE   C1213182   5.605   5.095   1.505  0.2947  0.1978  0.0748
  124SOPE  H12A13183   5.706   5.102   1.458  0.1917 -1.0834 -0.3554
  124SOPE  H12B13184   5.585   4.989   1.531  4.4504 -0.9154 -0.5968
  124SOPE   C1113185   5.593   5.179   1.632 -0.4555  0.2732  0.4312
  124SOPE  H11A13186   5.588   5.285   1.600 -3.9003 -0.1220 -0.7532
  124SOPE  H11B13187   5.687   5.161   1.689  0.1294  1.8407 -0.0000
  124SOPE     P13188   5.468   5.205   1.860 -0.2902  0.1194  0.0065
  124SOPE   O1313189   5.363   5.302   1.885  0.5325 -0.1510  0.4005
  124SOPE   O1413190   5.599   5.253   1.915 -0.2292  0.5538  0.2251
  124SOPE   O1213191   5.479   5.149   1.710 -0.0564 -0.3488  0.0693
  124SOPE   O1113192   5.437   5.072   1.938  0.3239  0.3580 -0.0882
  124SOPE    C113193   5.310   5.038   1.979  0.3046  0.4521  0.0920
  124SOPE    HA13194   5.303   4.930   2.005 -2.5790 -0.1122 -2.4457
  124SOPE    HB13195   5.235   5.049   1.897 -0.6131  1.5904  1.0529
  124SOPE    C213196   5.260   5.115   2.106  0.2735  0.5900  0.5199
  124SOPE    HS13197   5.255   5.222   2.078  2.3435  0.1475 -1.8154
  124SOPE   O2113198   5.344   5.081   2.220  0.3185  0.1293  0.0718
  124SOPE   C2113199   5.381   5.189   2.295  0.0269 -0.1017 -0.1934
  124SOPE   O2213200   5.372   5.305   2.266 -0.5889 -0.1968 -0.2326
  124SOPE   C2213201   5.451   5.143   2.426  0.0585  0.2241  0.4348
  124SOPE   H2R13202   5.549   5.195   2.427  1.0212 -1.4059  3.4595
  124SOPE   H2S13203   5.463   5.033   2.418  0.8389  0.3831 -0.7980
  124SOPE    C313204   5.112   5.075   2.146  0.7188  0.4797  0.2471
  124SOPE    HX13205   5.108   4.964   2.147  0.4368  0.4354 -2.0303
  124SOPE    HY13206   5.045   5.105   2.063 -0.9322 -0.6813  1.0993
  124SOPE   O3113207   5.064   5.136   2.269 -0.1630 -0.2610  0.0922
  124SOPE   C3113208   4.936   5.114   2.290  0.6244 -0.0277  0.0834
  124SOPE   O3213209   4.868   5.055   2.209  0.1588 -0.2378 -0.4764
  124SOPE   C3213210   4.887   5.171   2.421  0.3574 -0.7408 -0.4714
  124SOPE   H2X13211   4.833   5.267   2.407  0.1493 -0.7414  0.2908
  124SOPE   H2Y13212   4.982   5.208   2.468 -0.5337  0.6067  0.3467
  124SOPE   C2313213   5.368   5.191   2.551 -0.0849  0.2489  0.2874
  124SOPE   H3R13214   5.326   5.290   2.524  1.8813  1.2363  0.6557
  124SOPE   H3S13215   5.440   5.212   2.633  0.0384  0.7790  0.0507
  124SOPE   C2413216   5.260   5.090   2.574 -0.0190  0.5396  0.7052
  124SOPE   H4R13217   5.165   5.141   2.600  1.0419  2.0975  1.7741
  124SOPE   H4S13218   5.238   5.043   2.476  0.3791  2.0475 -0.1345
  124SOPE   C2513219   5.291   4.985   2.679 -0.5589 -0.1575 -0.0985
  124SOPE   H5R13220   5.249   4.885   2.655 -0.4587 -0.6934  1.7891
  124SOPE   H5S13221   5.402   4.979   2.677 -0.4245  1.3067  1.2152
  124SOPE   C2613222   5.257   5.041   2.812 -0.0802 -0.3373 -0.0137
  124SOPE   H6R13223   5.281   5.150   2.821  1.1661 -0.6973  1.5075
  124SOPE   H6S13224   5.148   5.029   2.824 -0.2251  1.7914  1.3188
  124SOPE   C2713225   5.319   4.978   2.933  0.1949 -0.2240 -0.3572
  124SOPE   H7R13226   5.324   4.868   2.927  0.2989 -0.4931  3.0895
  124SOPE   H7S13227   5.425   5.012   2.934 -0.0506  0.6754 -1.7552
  124SOPE   C2813228   5.234   4.977   3.063 -0.0492 -0.1248 -0.2503
  124SOPE   H8R13229   5.129   4.970   3.028 -0.0817  1.6670 -0.5790
  124SOPE   H8S13230   5.261   4.886   3.120 -0.1256 -0.7308 -1.1614
  124SOPE   C2913231   5.243   5.106   3.136  0.1802 -0.3954 -0.4165
  124SOPE   H9113232   5.260   5.200   3.082  0.7131 -0.8733 -1.1049
  124SOPE  C21013233   5.273   5.112   3.268  0.1656  0.6133  0.4505
  124SOPE  H10113234   5.277   5.206   3.324 -0.2415  0.1206  1.3377
  124SOPE  C21113235   5.266   4.989   3.357 -0.1757  0.1114  0.0205
  124SOPE  H11R13236   5.330   5.009   3.446 -0.9328 -2.0561  1.1306
  124SOPE  H11S13237   5.309   4.899   3.309  1.3733 -0.0891  1.6570
  124SOPE  C21213238   5.125   4.953   3.422  0.3647 -0.6173 -0.8423
  124SOPE  H12R13239   5.051   4.912   3.350  0.4692 -1.0810 -0.6951
  124SOPE  H12S13240   5.071   5.043   3.458 -2.6138 -2.4735 -0.3268
  124SOPE  C21313241   5.140   4.857   3.545 -0.4461 -1.2177  0.3244
  124SOPE  H13R13242   5.217   4.901   3.613 -0.1247  1.9074 -1.8599
  124SOPE  H13S13243   5.177   4.758   3.509  0.2651 -0.1336 -2.1137
  124SOPE  C21413244   5.009   4.828   3.621  0.3025 -0.7526 -0.5189
  124SOPE  H14R13245   4.936   4.816   3.538  0.4795 -0.7082 -0.6824
  124SOPE  H14S13246   4.983   4.913   3.688  0.7501 -0.8865 -0.1719
  124SOPE  C21513247   5.015   4.698   3.706  0.5329 -0.2270  0.5708
  124SOPE  H15R13248   5.077   4.716   3.797  0.6937  2.3032  0.0198
  124SOPE  H15S13249   5.051   4.621   3.634 -2.0130  0.3146 -1.4215
  124SOPE  C21613250   4.877   4.646   3.760 -0.0042  0.4824 -0.0718
  124SOPE  H16R13251   4.820   4.733   3.798  0.1311  1.3564 -1.7937
  124SOPE  H16S13252   4.897   4.563   3.832  0.7573 -1.4198 -2.3408
  124SOPE  C21713253   4.787   4.578   3.657  0.1068 -0.2878 -0.3913
  124SOPE  H17R13254   4.838   4.482   3.631  2.4952  0.9055 -0.4218
  124SOPE  H17S13255   4.777   4.639   3.565  2.1826 -0.3087 -0.6879
  124SOPE  C21813256   4.649   4.544   3.707 -0.6132  0.2668 -0.6985
  124SOPE  H18R13257   4.673   4.489   3.801 -1.7652  1.2829  0.2128
  124SOPE  H18S13258   4.590   4.474   3.644  1.7974 -1.2207 -1.4246
  124SOPE  H18T13259   4.587   4.628   3.743 -1.1214 -0.0118 -0.9131
  124SOPE   C3313260   4.792   5.077   2.503 -0.2136  0.0146 -0.0062
  124SOPE   H3X13261   4.821   4.970   2.490 -1.1358 -0.2346 -0.0891
  124SOPE   H3Y13262   4.684   5.089   2.477  0.1235 -3.8242 -4.4594
  124SOPE   C3413263   4.811   5.110   2.655  0.0114 -0.7788 -1.1079
  124SOPE   H4X13264   4.766   5.209   2.678  2.3142  0.3247 -1.1041
  124SOPE   H4Y13265   4.919   5.114   2.680 -0.0877 -0.8917 -0.6540
  124SOPE   C3513266   4.745   5.004   2.744  0.2059 -0.0240  0.0050
  124SOPE   H5X13267   4.802   4.910   2.760 -1.5742 -1.1814 -0.1016
  124SOPE   H5Y13268   4.642   4.977   2.710 -1.7572  2.8839  2.9695
  124SOPE   C3613269   4.732   5.057   2.888 -0.3141 -0.0315 -0.8498
  124SOPE   H6X13270   4.688   5.159   2.888  2.4048  1.2999  2.0406
  124SOPE   H6Y13271   4.836   5.062   2.927  0.5101 -0.9474 -2.7934
  124SOPE   C3713272   4.663   4.968   2.983 -0.2910  0.3585 -0.1446
  124SOPE   H7X13273   4.710   4.868   2.979 -0.8419  0.1320 -1.4684
  124SOPE   H7Y13274   4.557   4.952   2.952  0.4269 -0.7350 -2.2164
  124SOPE   C3813275   4.676   5.026   3.128 -0.1878  0.1636  0.0579
  124SOPE   H8X13276   4.642   5.132   3.137 -0.7641  0.0827 -1.0016
  124SOPE   H8Y13277   4.778   5.011   3.170 -0.2627  0.1769  0.2445
  124SOPE   C3913278   4.575   4.956   3.224 -0.8226  0.0568  0.6210
  124SOPE   H9X13279   4.598   4.847   3.225 -0.7920 -0.0585 -2.5148
  124SOPE   H9Y13280   4.479   4.960   3.168  0.6843  0.1544 -2.1603
  124SOPE  C31013281   4.576   4.998   3.370  0.1420 -0.2120 -0.5662
  124SOPE  H10X13282   4.517   5.090   3.386 -0.2358 -0.7750  1.6548
  124SOPE  H10Y13283   4.682   5.020   3.395  0.3580  0.1213 -1.7176
  124SOPE  C31113284   4.527   4.887   3.463  0.1403  0.1707 -0.1874
  124SOPE  H11X13285   4.593   4.798   3.468  0.1724  0.1667 -0.6305
  124SOPE  H11Y13286   4.427   4.850   3.430  0.3695  1.0409 -1.9913
  124SOPE  C31213287   4.510   4.937   3.610 -0.2581 -0.7775 -0.1731
  124SOPE  H12X13288   4.466   4.859   3.676 -0.1592  1.8977  3.3290
  124SOPE  H12Y13289   4.443   5.024   3.626 -0.3330 -0.7936 -0.3929
  124SOPE  C31313290   4.648   4.969   3.681  0.5361 -0.0632  0.4148
  124SOPE  H13X13291   4.714   5.038   3.623  0.6324 -1.2794 -0.9814
  124SOPE  H13Y13292   4.699   4.870   3.680  2.8886  1.0579  1.0004
  124SOPE  C31413293   4.630   5.018   3.828  0.5587 -0.0344 -1.1143
  124SOPE  H14X13294   4.584   4.936   3.888 -0.7330  1.2052 -0.3691
  124SOPE  H14Y13295   4.551   5.095   3.834 -0.7539 -1.3694 -0.3920
  124SOPE  C31513296   4.761   5.060   3.884  0.1988 -0.2626  0.7389
  124SOPE  H15X13297   4.810   5.138   3.822  1.4543 -0.4537  1.4530
  124SOPE  H15Y13298   4.831   4.975   3.870  1.6367  1.0202 -0.3575
  124SOPE  C31613299   4.756   5.104   4.031 -0.0141 -0.2593  0.2082
  124SOPE  H16X13300   4.680   5.035   4.073 -1.0748 -0.5341 -2.0153
  124SOPE  H16Y13301   4.715   5.207   4.028  0.4246 -0.0873 -0.0674
  124SOPE  C31713302   4.890   5.115   4.100 -0.0011  0.5254  0.1630
  124SOPE  H17X13303   4.955   5.182   4.040 -1.4879  0.5299 -1.5268
  124SOPE  H17Y13304   4.939   5.017   4.118  0.4755  1.1567  2.6949
  124SOPE  C31813305   4.876   5.172   4.245  0.2961 -0.2168 -0.1134
  124SOPE  H18X13306   4.969   5.186   4.303  1.0272 -2.0693 -0.7828
  124SOPE  H18Y13307   4.809   5.105   4.303 -0.4043  1.3564  0.9945
  124SOPE  H18Z13308   4.823   5.269   4.258 -2.2097 -1.4852 -0.1350
  125SOPE     N13309   2.257   4.814   1.901  0.0651  0.2114  0.4320
  125SOPE   HN113310   2.252   4.739   1.829  0.3253  1.4260 -0.9188
  125SOPE   HN213311   2.269   4.895   1.836  0.5340  0.7694  1.2032
  125SOPE   HN313312   2.343   4.817   1.959  1.3177 -2.1939 -1.1486
  125SOPE   C1213313   2.128   4.807   1.973 -0.0264 -0.1498 -0.2164
  125SOPE  H12A13314   2.109   4.893   2.041  0.9263 -1.7901  2.2541
  125SOPE  H12B13315   2.132   4.716   2.036 -0.7266 -0.4799 -0.6355
  125SOPE   C1113316   2.017   4.807   1.868 -0.3331  0.6971 -0.4649
  125SOPE  H11A13317   1.925   4.779   1.922  0.7530 -2.7725 -0.1051
  125SOPE  H11B13318   2.033   4.729   1.790  0.1039 -0.7873  1.0452
  125SOPE     P13319   1.885   4.951   1.692  0.0194  0.2588  0.6539
  125SOPE   O1313320   1.927   4.863   1.584  0.6186  0.0909  0.0249
  125SOPE   O1413321   1.878   5.099   1.657  0.1714  0.6500 -0.4750
  125SOPE   O1213322   1.996   4.933   1.809 -0.4653 -0.0334  0.2016
  125SOPE   O1113323   1.749   4.901   1.755 -0.6475 -0.4365  0.0669
  125SOPE    C113324   1.663   5.001   1.806 -0.4705  0.0419  0.0623
  125SOPE    HA13325   1.604   5.046   1.723 -0.8876  3.0344  1.8253
  125SOPE    HB13326   1.721   5.088   1.844 -0.2087  0.0519 -0.3425
  125SOPE    C213327   1.563   4.956   1.915  0.0620 -0.0153  0.4538
  125SOPE    HS13328   1.514   5.049   1.950  1.7475  0.8220  0.6561
  125SOPE   O2113329   1.621   4.881   2.019 -0.7434  0.3243  0.2696
  125SOPE   C2113330   1.713   4.946   2.088 -0.1699  0.9229  0.2349
  125SOPE   O2213331   1.757   5.056   2.061  0.0227 -0.5367 -0.5218
  125SOPE   C2213332   1.730   4.854   2.211 -0.4133 -0.3739 -0.4988
  125SOPE   H2R13333   1.826   4.876   2.263 -1.2664  0.0963  0.9355
  125SOPE   H2S13334   1.730   4.748   2.178 -0.4637 -0.3067 -0.7140
  125SOPE    C313335   1.456   4.873   1.841  0.3701  0.0755 -0.0221
  125SOPE    HX13336   1.519   4.797   1.789 -0.4122 -1.0197  0.5794
  125SOPE    HY13337   1.403   4.932   1.764  0.6743 -0.9441 -1.0301
  125SOPE   O3113338   1.357   4.818   1.936  0.0885 -0.3928 -0.5344
  125SOPE   C3113339   1.271   4.904   1.979 -0.1478  0.1322  0.5852
  125SOPE   O3213340   1.266   5.023   1.950 -0.2407 -0.2883  0.1345
  125SOPE   C3213341   1.165   4.835   2.062 -0.5044  0.0719  0.0370
  125SOPE   H2X13342   1.205   4.732   2.067  1.2349  0.6724 -0.6334
  125SOPE   H2Y13343   1.069   4.826   2.006  0.0625 -4.0186 -0.5819
  125SOPE   C2313344   1.629   4.860   2.331  0.2673  0.2119  0.3732
  125SOPE   H3R13345   1.528   4.819   2.307  0.5577 -0.0406 -0.4629
  125SOPE   H3S13346   1.616   4.968   2.356 -2.2854  0.1351 -0.3220
  125SOPE   C2413347   1.669   4.784   2.459 -0.0848 -0.0027 -0.3804
  125SOPE   H4R13348   1.643   4.676   2.455 -1.3434  0.2815 -0.3356
  125SOPE   H4S13349   1.772   4.788   2.501 -0.7392 -0.7677  1.4202
  125SOPE   C2513350   1.583   4.824   2.572  0.2627  0.3989  0.7808
  125SOPE   H5R13351   1.577   4.935   2.563 -0.7590  0.4347  1.7172
  125SOPE   H5S13352   1.478   4.787   2.570 -0.1317  1.4207 -1.3618
  125SOPE   C2613353   1.619   4.794   2.723  0.4600  0.5754  0.0177
  125SOPE   H6R13354   1.527   4.827   2.775  1.5581 -0.0107  2.4971
  125SOPE   H6S13355   1.627   4.685   2.745 -0.9605  0.3967 -0.2921
  125SOPE   C2713356   1.737   4.860   2.782  0.4696 -0.1623 -0.1743
  125SOPE   H7R13357   1.833   4.824   2.741  0.4208 -1.5800  0.8714
  125SOPE   H7S13358   1.723   4.970   2.776 -1.8325 -0.2298  2.1333
  125SOPE   C2813359   1.746   4.821   2.933  0.5087  0.5989  0.3888
  125SOPE   H8R13360   1.650   4.860   2.975  0.2297  1.7035 -1.1695
  125SOPE   H8S13361   1.742   4.711   2.945  2.6217  0.5756  1.3391
  125SOPE   C2913362   1.871   4.880   2.992  0.3840  0.2417  0.0944
  125SOPE   H9113363   1.969   4.876   2.942  0.4682  0.1709  0.2654
  125SOPE  C21013364   1.877   4.925   3.119 -0.6293  0.5064  0.0423
  125SOPE  H10113365   1.973   4.960   3.158  1.0394 -0.4799 -2.8304
  125SOPE  C21113366   1.777   4.916   3.225  0.1007  0.0154 -0.3563
  125SOPE  H11R13367   1.675   4.929   3.184  0.3682 -0.0389 -1.0427
  125SOPE  H11S13368   1.797   5.000   3.296 -1.4951 -1.2555  1.7030
  125SOPE  C21213369   1.784   4.783   3.300 -0.5807  0.0890 -0.0763
  125SOPE  H12R13370   1.888   4.769   3.335 -0.3095  1.0713 -0.4716
  125SOPE  H12S13371   1.756   4.701   3.231 -0.6039 -1.1391  1.3389
  125SOPE  C21313372   1.686   4.795   3.418  0.3955 -0.3135  0.7261
  125SOPE  H13R13373   1.580   4.806   3.388  0.7622 -2.3682 -1.7036
  125SOPE  H13S13374   1.714   4.882   3.481 -0.7655 -1.5989  3.1523
  125SOPE  C21413375   1.692   4.667   3.497 -0.3601 -0.0667  0.0086
  125SOPE  H14R13376   1.796   4.649   3.532 -0.0518  0.5792 -0.5494
  125SOPE  H14S13377   1.666   4.579   3.435  0.1644  0.1709 -0.5558
  125SOPE  C21513378   1.600   4.665   3.619  0.0807 -0.3011  0.2261
  125SOPE  H15R13379   1.617   4.572   3.677  1.0208 -1.0274 -1.1624
  125SOPE  H15S13380   1.495   4.665   3.585  0.5370 -0.2528 -1.2494
  125SOPE  C21613381   1.628   4.783   3.707  0.0074 -0.5810 -0.0446
  125SOPE  H16R13382   1.608   4.878   3.654  2.3432 -1.6624 -3.1640
  125SOPE  H16S13383   1.733   4.795   3.741  1.0008 -0.3235 -2.9362
  125SOPE  C21713384   1.555   4.764   3.835 -0.3331  0.8589 -0.1515
  125SOPE  H17R13385   1.580   4.670   3.887  0.2073  1.4712  0.7197
  125SOPE  H17S13386   1.450   4.764   3.800  0.0810 -1.8614 -1.6778
  125SOPE  C21813387   1.564   4.882   3.928 -0.3190 -0.0498 -0.6213
  125SOPE  H18R13388   1.535   4.860   4.033  2.0687  1.4835  0.4471
  125SOPE  H18S13389   1.508   4.968   3.886 -3.4626 -1.5747  0.1371
  125SOPE  H18T13390   1.669   4.916   3.940  0.5910 -2.8006 -0.2173
  125SOPE   C3313391   1.136   4.908   2.192  0.5258  0.2633  0.7562
  125SOPE   H3X13392   1.052   4.868   2.254 -0.5034  1.5462  0.2349
  125SOPE   H3Y13393   1.099   5.011   2.172  0.4105  0.0459 -0.2064
  125SOPE   C3413394   1.265   4.925   2.282 -0.5179  0.4051  0.7440
  125SOPE   H4X13395   1.346   4.958   2.214  0.5953 -2.2599  0.6448
  125SOPE   H4Y13396   1.310   4.831   2.319  0.3316  1.1277  1.5697
  125SOPE   C3513397   1.248   5.011   2.404  0.5800 -0.7633  0.5307
  125SOPE   H5X13398   1.204   5.105   2.365  4.5701  0.2220 -2.2059
  125SOPE   H5Y13399   1.353   5.026   2.437  2.0264  1.9677 -4.3743
  125SOPE   C3613400   1.163   4.944   2.518  0.6428  0.1991  0.6301
  125SOPE   H6X13401   1.199   4.843   2.545 -0.1481 -0.0603  0.7142
  125SOPE   H6Y13402   1.059   4.937   2.480  0.6752  0.5565  0.4679
  125SOPE   C3713403   1.175   5.032   2.645  0.1103  0.2749 -0.3905
  125SOPE   H7X13404   1.134   5.134   2.628  3.0582  1.2993 -1.9432
  125SOPE   H7Y13405   1.280   5.044   2.678  0.2273 -3.0325  0.7699
  125SOPE   C3813406   1.096   4.970   2.757  0.2211  0.2784  0.1336
  125SOPE   H8X13407   1.131   4.866   2.772  2.0309  0.8284  0.0045
  125SOPE   H8Y13408   0.990   4.965   2.725 -0.3193  0.8450  1.7680
  125SOPE   C3913409   1.112   5.044   2.893 -0.1433  0.3930 -0.0786
  125SOPE   H9X13410   1.079   5.149   2.877  4.6663  1.7973 -2.4451
  125SOPE   H9Y13411   1.222   5.052   2.902  0.1564  1.4650 -3.4406
  125SOPE  C31013412   1.039   4.963   2.994  0.4032 -0.3445  0.5744
  125SOPE  H10X13413   1.089   4.864   3.000 -0.5684 -0.8974 -0.1012
  125SOPE  H10Y13414   0.933   4.965   2.961  0.7206  2.6095 -0.5035
  125SOPE  C31113415   1.043   5.017   3.137 -0.2553 -0.9583 -0.3672
  125SOPE  H11X13416   0.996   5.118   3.141 -0.1177 -0.8238 -1.6807
  125SOPE  H11Y13417   1.147   5.018   3.175 -1.3932  3.0984  3.3830
  125SOPE  C31213418   0.953   4.937   3.229 -0.2266  0.0480  0.5703
  125SOPE  H12X13419   0.968   4.827   3.222  0.5857 -0.0490  2.9422
  125SOPE  H12Y13420   0.848   4.958   3.198  0.2633  0.7182 -0.6863
  125SOPE  C31313421   0.949   4.980   3.376 -0.4725  0.4375  0.2747
  125SOPE  H13X13422   0.936   5.090   3.382  0.1509  0.6675 -1.7304
  125SOPE  H13Y13423   1.044   4.956   3.428 -2.2431 -2.4853  2.4939
  125SOPE  C31413424   0.840   4.922   3.462  0.7440 -0.0935  0.2091
  125SOPE  H14X13425   0.821   4.817   3.430  1.4227  0.0208 -0.5923
  125SOPE  H14Y13426   0.744   4.971   3.434 -0.5388 -1.2961  2.2286
  125SOPE  C31513427   0.860   4.937   3.606  0.0332  0.0140 -0.3889
  125SOPE  H15X13428   0.761   4.955   3.652 -0.4281 -2.2955 -0.3281
  125SOPE  H15Y13429   0.932   5.015   3.639 -1.9981  1.0477  1.8795
  125SOPE  C31613430   0.914   4.807   3.680  0.4391  0.0542  0.8057
  125SOPE  H16X13431   0.924   4.833   3.787  0.1600 -3.2641  1.7415
  125SOPE  H16Y13432   1.011   4.788   3.629  1.3788 -0.2633  2.6212
  125SOPE  C31713433   0.816   4.691   3.662  0.6491 -0.1807  1.2374
  125SOPE  H17X13434   0.790   4.685   3.554 -0.4302 -1.0330  1.5254
  125SOPE  H17Y13435   0.720   4.701   3.717  0.5288  1.0755  0.8403
  125SOPE  C31813436   0.875   4.558   3.709  0.7946  0.2283  0.5146
  125SOPE  H18X13437   0.810   4.469   3.698 -0.4926  1.1788  0.1490
  125SOPE  H18Y13438   0.901   4.563   3.816  3.4125  1.2846 -0.0864
  125SOPE  H18Z13439   0.971   4.555   3.651  0.0073  0.2378 -0.8417
  126SOPE     N13440   2.689   1.302   2.202  0.9405 -0.0542  0.2614
  126SOPE   HN113441   2.790   1.289   2.184  1.2697 -2.6688  3.1143
  126SOPE   HN213442   2.642   1.211   2.187  1.3141  0.0427 -1.6519
  126SOPE   HN313443   2.652   1.369   2.132  2.1650 -0.4899 -0.8342
  126SOPE   C1213444   2.657   1.351   2.339 -0.1461 -0.0743  0.7365
  126SOPE  H12A13445   2.723   1.436   2.368 -0.3464 -0.1291  1.3681
  126SOPE  H12B13446   2.676   1.262   2.402  3.9325 -0.2681 -0.5058
  126SOPE   C1113447   2.509   1.393   2.339 -0.7855 -0.8105  0.4867
  126SOPE  H11A13448   2.497   1.476   2.265  1.6698 -2.8326 -2.4298
  126SOPE  H11B13449   2.495   1.429   2.443  1.5679  1.6038  0.0921
  126SOPE     P13450   2.311   1.227   2.356  0.0102  0.2410  0.3245
  126SOPE   O1313451   2.262   1.108   2.280 -0.5242 -0.3686 -0.6143
  126SOPE   O1413452   2.216   1.340   2.379  0.2697  0.0575 -0.4469
  126SOPE   O1213453   2.443   1.282   2.289  0.0794  0.1165  0.3479
  126SOPE   O1113454   2.354   1.177   2.497 -0.5489  0.3184 -0.3910
  126SOPE    C113455   2.431   1.056   2.514 -0.2478 -0.1445  0.4666
  126SOPE    HA13456   2.494   1.064   2.606 -0.4010 -0.9682  0.6466
  126SOPE    HB13457   2.494   1.038   2.425 -2.6071 -1.4750 -1.0206
  126SOPE    C213458   2.342   0.929   2.531  0.0395  0.5497 -0.0283
  126SOPE    HS13459   2.270   0.924   2.446  2.0808 -2.7908 -1.7945
  126SOPE   O2113460   2.286   0.936   2.657  0.0513 -0.7649 -0.6267
  126SOPE   C2113461   2.182   0.862   2.673 -0.0396 -0.4000 -0.8689
  126SOPE   O2213462   2.139   0.782   2.590 -0.1573  0.2678 -0.2455
  126SOPE   C2213463   2.137   0.876   2.821  0.0957 -0.3231 -0.0877
  126SOPE   H2R13464   2.125   0.986   2.834 -1.2095 -0.6337  1.7823
  126SOPE   H2S13465   2.222   0.840   2.881  0.6982  2.5760  0.9666
  126SOPE    C313466   2.426   0.797   2.516 -0.6723  0.1083  0.4333
  126SOPE    HX13467   2.468   0.812   2.414  2.3125  1.7652  1.7967
  126SOPE    HY13468   2.361   0.707   2.517 -0.8946  0.2675  0.4020
  126SOPE   O3113469   2.527   0.796   2.620 -0.6050 -0.2688 -0.6871
  126SOPE   C3113470   2.593   0.678   2.618 -0.6256  0.6097  0.3962
  126SOPE   O3213471   2.573   0.591   2.533 -0.4125 -0.0010  0.0865
  126SOPE   C3213472   2.703   0.681   2.724  0.3182 -0.2594  0.1500
  126SOPE   H2X13473   2.723   0.787   2.750 -0.7334 -0.5017  2.0758
  126SOPE   H2Y13474   2.790   0.625   2.682 -0.8929 -0.3942 -2.3781
  126SOPE   C2313475   2.005   0.802   2.864 -0.2795  0.5348 -0.0234
  126SOPE   H3R13476   1.994   0.707   2.808 -0.7088  0.4197  0.2550
  126SOPE   H3S13477   1.915   0.864   2.842 -1.0596 -0.5756 -0.0544
  126SOPE   C2413478   1.993   0.772   3.014  0.2084 -0.4508  0.1568
  126SOPE   H4R13479   2.013   0.868   3.066  0.1592  1.4216 -3.0731
  126SOPE   H4S13480   1.889   0.743   3.040  0.6189  0.0418  2.5929
  126SOPE   C2513481   2.103   0.673   3.057  0.9617 -0.0843 -0.8974
  126SOPE   H5R13482   2.079   0.572   3.017 -1.4874 -0.7224  1.7978
  126SOPE   H5S13483   2.201   0.699   3.013  0.2603  1.8556 -1.4121
  126SOPE   C2613484   2.121   0.673   3.210 -0.0344  0.7031 -0.2932
  126SOPE   H6R13485   2.031   0.635   3.263  0.4634  2.2825  1.7861
  126SOPE   H6S13486   2.204   0.601   3.222  0.5737  1.6033  1.1045
  126SOPE   C2713487   2.177   0.805   3.270 -0.0094  0.0393 -0.1441
  126SOPE   H7R13488   2.259   0.837   3.201 -1.8084  1.3748 -1.7558
  126SOPE   H7S13489   2.105   0.887   3.250 -0.0218 -0.0664 -0.5464
  126SOPE   C2813490   2.232   0.795   3.408  0.1943 -0.5887  0.3568
  126SOPE   H8R13491   2.299   0.706   3.401  1.3750  0.2628  0.5475
  126SOPE   H8S13492   2.293   0.885   3.429 -0.4243 -0.1169  0.1823
  126SOPE   C2913493   2.115   0.774   3.509 -0.4427 -0.3025 -0.2272
  126SOPE   H9113494   2.063   0.680   3.485 -0.7589 -0.1444 -0.1625
  126SOPE  C21013495   2.074   0.854   3.614  0.0729  0.8521 -0.9631
  126SOPE  H10113496   1.994   0.804   3.671  2.3665  0.3391  2.0406
  126SOPE  C21113497   2.130   0.983   3.676  0.9586  1.0693 -0.2469
  126SOPE  H11R13498   2.051   1.045   3.724  0.4513 -1.4622  2.4696
  126SOPE  H11S13499   2.171   1.043   3.592 -2.1542  4.1583  0.2047
  126SOPE  C21213500   2.246   0.954   3.771 -0.1001  0.0783 -0.5120
  126SOPE  H12R13501   2.323   0.898   3.714 -0.5792  0.0740 -1.1693
  126SOPE  H12S13502   2.206   0.892   3.854  0.7341 -0.7122 -0.6819
  126SOPE  C21313503   2.327   1.076   3.826 -0.2091 -0.2523  0.0911
  126SOPE  H13R13504   2.370   1.112   3.729  0.1374 -2.2340 -0.5326
  126SOPE  H13S13505   2.398   1.046   3.906  1.1979  0.2089 -0.9461
  126SOPE  C21413506   2.241   1.186   3.898 -0.3189 -0.3255  0.7743
  126SOPE  H14R13507   2.189   1.132   3.980 -3.0406 -0.1956 -0.7497
  126SOPE  H14S13508   2.174   1.231   3.822 -0.0790 -1.0236  0.1457
  126SOPE  C21513509   2.323   1.310   3.948  0.0822  0.3132 -0.0622
  126SOPE  H15R13510   2.404   1.323   3.874  0.8292 -1.9074  0.3140
  126SOPE  H15S13511   2.378   1.296   4.043  0.3124  1.6871  0.0279
  126SOPE  C21613512   2.232   1.427   3.970  0.2609  0.6078  0.2940
  126SOPE  H16R13513   2.128   1.409   3.937  0.6842 -1.2748 -0.1319
  126SOPE  H16S13514   2.267   1.516   3.913  2.1823  0.2574  0.8522
  126SOPE  C21713515   2.236   1.471   4.121  0.1697 -0.2394 -0.6965
  126SOPE  H17R13516   2.340   1.487   4.155 -1.0863 -0.6162  4.1292
  126SOPE  H17S13517   2.196   1.390   4.187 -0.0864  1.4337  1.3218
  126SOPE  C21813518   2.162   1.601   4.162  0.5032  0.3069 -0.3036
  126SOPE  H18R13519   2.174   1.667   4.074 -0.1644  0.9780  0.0973
  126SOPE  H18S13520   2.202   1.655   4.251  0.0512 -0.6205  0.4907
  126SOPE  H18T13521   2.053   1.588   4.178  0.3321  1.4895 -0.4685
  126SOPE   C3313522   2.657   0.618   2.858 -0.5070  0.6108 -0.0059
  126SOPE   H3X13523   2.742   0.549   2.879  1.4501  2.5306 -1.1766
  126SOPE   H3Y13524   2.557   0.570   2.860 -0.7073  1.0281 -0.0172
  126SOPE   C3413525   2.658   0.716   2.977  0.2301 -0.0716 -0.2797
  126SOPE   H4X13526   2.589   0.802   2.957  0.0132 -0.1125  0.2642
  126SOPE   H4Y13527   2.757   0.766   2.986  0.9863 -1.7880  2.0635
  126SOPE   C3513528   2.636   0.650   3.115  0.8805 -0.4104  0.2707
  126SOPE   H5X13529   2.726   0.588   3.136  1.2758 -0.1090 -0.4992
  126SOPE   H5Y13530   2.551   0.579   3.114  0.8848 -0.4763  1.7382
  126SOPE   C3613531   2.627   0.750   3.230 -0.4465  0.2853 -0.2249
  126SOPE   H6X13532   2.538   0.811   3.207 -1.8376 -1.3147  0.6659
  126SOPE   H6Y13533   2.716   0.817   3.234  0.6380 -1.1258  0.1568
  126SOPE   C3713534   2.607   0.688   3.374 -0.0904 -0.2010  0.2187
  126SOPE   H7X13535   2.702   0.634   3.396  0.0394 -1.2507 -2.5156
  126SOPE   H7Y13536   2.525   0.614   3.368 -1.3763  1.0056  2.0518
  126SOPE   C3813537   2.586   0.792   3.482 -0.4028 -0.8608 -0.2535
  126SOPE   H8X13538   2.561   0.737   3.576  1.2253 -1.0965  0.0631
  126SOPE   H8Y13539   2.515   0.865   3.437 -0.6276 -0.4157  0.7861
  126SOPE   C3913540   2.712   0.873   3.518 -0.1770 -0.5253  0.4518
  126SOPE   H9X13541   2.756   0.903   3.421 -3.2094  2.6319 -0.1401
  126SOPE   H9Y13542   2.789   0.806   3.562  2.3283  1.5078 -0.5470
  126SOPE  C31013543   2.691   1.007   3.592 -1.2083 -0.5857 -0.5315
  126SOPE  H10X13544   2.597   1.056   3.559 -0.1615  1.3857 -0.7378
  126SOPE  H10Y13545   2.780   1.066   3.560 -1.6484 -0.1175 -0.9031
  126SOPE  C31113546   2.683   0.986   3.746 -0.0669  0.1667  0.1248
  126SOPE  H11X13547   2.617   0.898   3.763 -2.4353  1.5513 -1.2967
  126SOPE  H11Y13548   2.645   1.076   3.800  1.4370  1.5535 -1.0233
  126SOPE  C31213549   2.822   0.943   3.801  0.1905 -0.5758 -0.2937
  126SOPE  H12X13550   2.862   1.031   3.856  0.3680 -1.3416  0.8351
  126SOPE  H12Y13551   2.897   0.927   3.721  0.7710  3.7441 -0.8600
  126SOPE  C31313552   2.811   0.827   3.894  0.0833  0.6615  0.0504
  126SOPE  H13X13553   2.785   0.735   3.836 -3.2388  0.4141  1.6999
  126SOPE  H13Y13554   2.728   0.839   3.966  0.6864  0.9990  0.7037
  126SOPE  C31413555   2.949   0.799   3.960  0.2045  0.3527  0.3553
  126SOPE  H14X13556   2.980   0.891   4.015  2.2390  0.0414 -0.1726
  126SOPE  H14Y13557   3.017   0.782   3.874  1.6720 -1.2007  1.7243
  126SOPE  C31513558   2.941   0.669   4.041  0.1162  0.3349 -0.7412
  126SOPE  H15X13559   3.042   0.624   4.035  0.6121  0.0507  4.7245
  126SOPE  H15Y13560   2.859   0.600   4.010 -1.0533  1.8534 -1.1782
  126SOPE  C31613561   2.938   0.694   4.197 -0.3131  0.4642  0.9375
  126SOPE  H16X13562   2.848   0.756   4.217 -0.7530  0.3794 -0.5992
  126SOPE  H16Y13563   3.033   0.752   4.204  0.2646 -0.2718 -0.4092
  126SOPE  C31713564   2.934   0.567   4.278 -0.2099  0.5791  0.4985
  126SOPE  H17X13565   3.012   0.491   4.255  0.6946  1.8627 -0.9184
  126SOPE  H17Y13566   2.828   0.535   4.272 -0.4258  1.0899  1.4129
  126SOPE  C31813567   2.944   0.593   4.427  0.2227 -0.1014  0.4309
  126SOPE  H18X13568   2.935   0.496   4.481  1.6288 -1.1751 -1.1582
  126SOPE  H18Y13569   2.863   0.660   4.464 -0.1365 -0.1504 -0.2384
  126SOPE  H18Z13570   3.047   0.631   4.441 -0.2489  1.8080 -0.8164
  127SOPE     N13571   5.809   1.513   1.827 -0.5297 -0.2443  0.1800
  127SOPE   HN113572   5.884   1.533   1.896  0.7720 -2.4712 -0.5075
  127SOPE   HN213573   5.758   1.432   1.867 -1.7793  0.4054 -0.0223
  127SOPE   HN313574   5.864   1.492   1.742  1.3161  0.1047  1.2266
  127SOPE   C1213575   5.717   1.630   1.820  0.2801  0.9354 -0.0012
  127SOPE  H12A13576   5.640   1.601   1.746 -0.2873 -0.8366  1.2311
  127SOPE  H12B13577   5.769   1.721   1.781  0.0717  0.7336 -0.7747
  127SOPE   C1113578   5.647   1.649   1.959 -0.1725 -0.8697  1.5242
  127SOPE  H11A13579   5.582   1.738   1.964 -1.4924 -1.6592 -0.3629
  127SOPE  H11B13580   5.729   1.664   2.033 -0.1537 -0.2663  1.3793
  127SOPE     P13581   5.432   1.524   2.014  0.0186 -0.0101 -0.0647
  127SOPE   O1313582   5.390   1.377   2.025 -0.2165  0.2614 -0.5852
  127SOPE   O1413583   5.364   1.604   1.908 -0.1307  0.4725 -0.0062
  127SOPE   O1213584   5.586   1.532   1.993 -0.1318  0.3228  0.1780
  127SOPE   O1113585   5.414   1.596   2.153 -0.0970 -0.2083 -0.2229
  127SOPE    C113586   5.401   1.523   2.278 -0.1835 -0.2146 -0.4524
  127SOPE    HA13587   5.444   1.421   2.282 -0.6227 -0.3885 -0.1976
  127SOPE    HB13588   5.295   1.514   2.308  0.2675  1.0154  1.7280
  127SOPE    C213589   5.478   1.603   2.389  0.4616  0.0694  0.2247
  127SOPE    HS13590   5.471   1.548   2.486  1.3889  0.0242  0.2770
  127SOPE   O2113591   5.426   1.737   2.402 -0.7148 -0.1597  0.3631
  127SOPE   C2113592   5.344   1.763   2.502 -0.5349 -0.4353 -0.0530
  127SOPE   O2213593   5.305   1.683   2.581 -0.9981  0.3866  0.0975
  127SOPE   C2213594   5.321   1.912   2.517  0.4130  0.4247  0.4873
  127SOPE   H2R13595   5.279   1.948   2.421  1.2971 -2.2323 -1.0154
  127SOPE   H2S13596   5.416   1.967   2.538  0.9767 -0.3734  0.1091
  127SOPE    C313597   5.628   1.613   2.340 -0.0710 -0.0825 -0.2265
  127SOPE    HX13598   5.650   1.683   2.256 -1.7744 -2.1426 -2.5736
  127SOPE    HY13599   5.661   1.514   2.299  2.1409  0.8318 -0.8242
  127SOPE   O3113600   5.699   1.643   2.461 -0.3372 -0.4302 -0.3543
  127SOPE   C3113601   5.740   1.778   2.476 -0.2537  0.5863 -0.3272
  127SOPE   O3213602   5.720   1.864   2.393 -0.4067 -0.3180  0.5914
  127SOPE   C3213603   5.779   1.786   2.621 -0.0515 -0.6486  0.2810
  127SOPE   H2X13604   5.843   1.876   2.631  1.3244 -1.5567 -0.0560
  127SOPE   H2Y13605   5.842   1.699   2.650  0.1557  0.3476  3.0901
  127SOPE   C2313606   5.213   1.957   2.623  0.3536 -0.7793 -0.0396
  127SOPE   H3R13607   5.138   1.876   2.637 -0.6302  0.2336  0.8110
  127SOPE   H3S13608   5.164   2.049   2.583 -1.6880  0.1311  3.9986
  127SOPE   C2413609   5.278   1.995   2.762  0.3860 -0.0881 -0.4863
  127SOPE   H4R13610   5.342   1.908   2.788  0.8584  0.6523  0.8895
  127SOPE   H4S13611   5.337   2.089   2.752  0.6415  0.8122  5.8310
  127SOPE   C2513612   5.170   2.015   2.865  0.7476  0.0556 -0.0465
  127SOPE   H5R13613   5.121   2.112   2.840 -0.9608 -0.9686 -0.8814
  127SOPE   H5S13614   5.085   1.944   2.859  0.6385  0.2750 -1.3848
  127SOPE   C2613615   5.228   2.003   3.013  0.4249  0.0718 -0.3439
  127SOPE   H6R13616   5.251   1.898   3.041 -0.8294  0.1342  1.0580
  127SOPE   H6S13617   5.318   2.067   3.023 -1.2994  2.4497  1.5210
  127SOPE   C2713618   5.126   2.047   3.115  0.2271 -0.2296 -0.2742
  127SOPE   H7R13619   5.090   2.149   3.093 -0.7883 -0.3755  0.6562
  127SOPE   H7S13620   5.046   1.971   3.106 -1.0979  1.0535  0.4815
  127SOPE   C2813621   5.190   2.057   3.254  0.7715 -0.3409  0.3772
  127SOPE   H8R13622   5.233   1.958   3.279  0.1391 -0.9282 -0.7770
  127SOPE   H8S13623   5.261   2.142   3.243  0.1904  0.3289  1.5942
  127SOPE   C2913624   5.096   2.094   3.369 -0.6482  0.2382 -0.3638
  127SOPE   H9113625   5.002   2.136   3.329 -0.5704  0.8791  0.1231
  127SOPE  C21013626   5.095   2.032   3.493  0.1630 -0.0082  0.7097
  127SOPE  H10113627   5.010   2.042   3.562  0.8101 -0.0663  1.5310
  127SOPE  C21113628   5.201   1.943   3.548 -0.4534 -0.1436  0.1968
  127SOPE  H11R13629   5.239   1.981   3.645  0.6689 -2.2655  0.6418
  127SOPE  H11S13630   5.292   1.950   3.484  0.5441  0.7068  1.6441
  127SOPE  C21213631   5.178   1.791   3.554 -0.5535 -0.6874  0.5555
  127SOPE  H12R13632   5.141   1.771   3.451  1.6016 -1.2377 -0.1661
  127SOPE  H12S13633   5.098   1.759   3.625 -1.4636 -2.5075 -1.1843
  127SOPE  C21313634   5.306   1.715   3.570 -0.3294  0.3509 -0.3969
  127SOPE  H13R13635   5.381   1.744   3.493  0.0169 -1.1491 -0.6558
  127SOPE  H13S13636   5.276   1.609   3.554 -1.1139  0.6081 -0.6441
  127SOPE  C21413637   5.376   1.742   3.706 -0.6490  0.6622  0.7345
  127SOPE  H14R13638   5.300   1.724   3.785 -2.1771 -0.2779 -0.8625
  127SOPE  H14S13639   5.416   1.845   3.712 -0.7895  0.6882  1.2697
  127SOPE  C21513640   5.504   1.652   3.729 -0.4884 -0.5441  0.3194
  127SOPE  H15R13641   5.581   1.699   3.665 -2.7735  2.0667 -0.7272
  127SOPE  H15S13642   5.472   1.552   3.691 -0.6749 -0.3331 -0.0858
  127SOPE  C21613643   5.538   1.647   3.879  0.5199  0.2732 -0.8450
  127SOPE  H16R13644   5.466   1.578   3.927 -0.2136  0.7758 -1.2087
  127SOPE  H16S13645   5.525   1.750   3.920  1.5705 -0.4649  1.5223
  127SOPE  C21713646   5.681   1.599   3.908  0.6496  0.2557 -0.0896
  127SOPE  H17R13647   5.750   1.679   3.875  0.9602 -0.5505 -1.4476
  127SOPE  H17S13648   5.704   1.512   3.844 -2.4921 -1.4750  0.9201
  127SOPE  C21813649   5.692   1.573   4.058 -0.5689 -0.1239 -0.0170
  127SOPE  H18R13650   5.597   1.522   4.086 -0.3194 -1.6382 -1.7770
  127SOPE  H18S13651   5.700   1.663   4.124 -1.9924  0.1307 -0.1509
  127SOPE  H18T13652   5.772   1.498   4.075 -0.9506 -0.7099 -0.7314
  127SOPE   C3313653   5.654   1.808   2.712 -0.2112  0.6948  0.0509
  127SOPE   H3X13654   5.575   1.734   2.687  0.1047  0.5782 -0.6349
  127SOPE   H3Y13655   5.609   1.908   2.693  0.1452  0.9213  0.3886
  127SOPE   C3413656   5.694   1.799   2.854  0.4046 -0.8948 -0.1758
  127SOPE   H4X13657   5.793   1.847   2.864  0.3946 -1.0256  0.5898
  127SOPE   H4Y13658   5.701   1.691   2.878  0.1440 -0.6381  1.0922
  127SOPE   C3513659   5.608   1.883   2.952  0.3885 -0.0840  0.2378
  127SOPE   H5X13660   5.507   1.837   2.957  1.3393 -2.2386  0.5373
  127SOPE   H5Y13661   5.588   1.978   2.898 -1.8385 -0.5123  0.1945
  127SOPE   C3613662   5.670   1.893   3.091  1.0843 -0.6281  0.5681
  127SOPE   H6X13663   5.772   1.935   3.072  0.5643 -0.6903 -3.0117
  127SOPE   H6Y13664   5.686   1.793   3.136 -0.4675 -1.0311  0.2655
  127SOPE   C3713665   5.576   1.974   3.176 -0.4365  0.2615 -0.1141
  127SOPE   H7X13666   5.492   1.908   3.206  0.1930  0.1080  1.4349
  127SOPE   H7Y13667   5.546   2.067   3.125 -0.8921  0.6776  0.8827
  127SOPE   C3813668   5.637   2.003   3.311  0.2747 -0.7738 -0.4407
  127SOPE   H8X13669   5.720   2.075   3.296 -1.3153  0.9115 -1.7014
  127SOPE   H8Y13670   5.685   1.911   3.351 -0.2438 -0.6630  0.4533
  127SOPE   C3913671   5.535   2.068   3.415 -0.1684  1.7427  0.5732
  127SOPE   H9X13672   5.557   2.021   3.513 -0.8492 -0.5664 -0.3351
  127SOPE   H9Y13673   5.430   2.040   3.394  0.2311 -0.9416  1.7697
  127SOPE  C31013674   5.542   2.217   3.414  0.3819  0.3188  0.0998
  127SOPE  H10X13675   5.510   2.254   3.314  1.6833 -4.4564 -2.4196
  127SOPE  H10Y13676   5.650   2.241   3.426  1.0542 -0.7987 -2.9062
  127SOPE  C31113677   5.461   2.273   3.529  0.4804  0.0270  0.5005
  127SOPE  H11X13678   5.514   2.261   3.626  0.3124 -2.2986  0.3634
  127SOPE  H11Y13679   5.359   2.228   3.529 -0.1706  1.4434  0.4467
  127SOPE  C31213680   5.447   2.424   3.523  0.5895 -0.2290 -0.6965
  127SOPE  H12X13681   5.389   2.464   3.437 -0.0929 -1.9973 -1.0964
  127SOPE  H12Y13682   5.550   2.462   3.505  1.2535 -2.2009 -1.3011
  127SOPE  C31313683   5.391   2.480   3.659 -0.9742  0.4250  0.2839
  127SOPE  H13X13684   5.447   2.430   3.741 -0.4232  0.9930  0.2562
  127SOPE  H13Y13685   5.287   2.443   3.664 -0.4852 -0.8762  2.1658
  127SOPE  C31413686   5.406   2.632   3.681  0.6500  0.2308 -0.0206
  127SOPE  H14X13687   5.345   2.700   3.617 -0.2024  1.4643  1.9817
  127SOPE  H14Y13688   5.515   2.654   3.680  0.9020 -0.7484  1.8234
  127SOPE  C31513689   5.340   2.672   3.815 -0.2276  0.1995 -0.1438
  127SOPE  H15X13690   5.395   2.623   3.898 -0.8229  2.6892  1.8440
  127SOPE  H15Y13691   5.236   2.637   3.822 -0.1684 -0.2360 -1.1896
  127SOPE  C31613692   5.333   2.823   3.842 -0.9447  0.7095  0.1576
  127SOPE  H16X13693   5.306   2.881   3.751 -0.6478  2.4290  1.1304
  127SOPE  H16Y13694   5.432   2.863   3.874  0.8681 -1.4322 -2.3661
  127SOPE  C31713695   5.231   2.855   3.950 -0.6191  0.1237  0.6343
  127SOPE  H17X13696   5.235   2.779   4.031 -0.2318 -2.6923 -1.8509
  127SOPE  H17Y13697   5.127   2.854   3.912 -0.7671  2.9194  0.7137
  127SOPE  C31813698   5.259   2.977   4.031 -0.9456 -0.5907 -0.4509
  127SOPE  H18X13699   5.176   2.990   4.104 -1.1448  0.3322 -0.8294
  127SOPE  H18Y13700   5.260   3.067   3.966 -0.2043 -0.2346  0.0416
  127SOPE  H18Z13701   5.351   2.979   4.094 -1.0119 -2.8994 -0.1852
  128SOPE     N13702   0.344   1.151   1.972  0.1007 -0.1743 -0.1251
  128SOPE   HN113703   0.304   1.055   1.980 -0.9792  0.1079 -1.6871
  128SOPE   HN213704   0.298   1.209   1.900  2.3051  0.2259 -1.3037
  128SOPE   HN313705   0.442   1.153   1.937  0.3657 -1.2435  0.5172
  128SOPE   C1213706   0.347   1.206   2.107 -0.2841  0.4724 -0.3941
  128SOPE  H12A13707   0.431   1.277   2.118 -0.1353  0.3487 -0.7226
  128SOPE  H12B13708   0.375   1.118   2.168  1.7125  0.6414 -1.0012
  128SOPE   C1113709   0.213   1.265   2.151  0.4091  0.3868  0.4572
  128SOPE  H11A13710   0.218   1.295   2.258 -2.5440  2.9454 -0.0001
  128SOPE  H11B13711   0.143   1.179   2.144  0.0486  0.8100 -2.0777
  128SOPE     P13712   0.216   1.519   2.070 -0.6039  0.5279  0.2863
  128SOPE   O1313713   0.096   1.598   2.102  0.0176 -0.1023  0.2819
  128SOPE   O1413714   0.295   1.559   1.950  0.7786  0.0211  0.0571
  128SOPE   O1213715   0.170   1.369   2.059  0.0530  0.0562  0.0339
  128SOPE   O1113716   0.324   1.518   2.192  0.3258 -0.7315  0.3353
  128SOPE    C113717   0.275   1.551   2.323  0.9003 -1.0274 -0.3135
  128SOPE    HA13718   0.172   1.513   2.338  0.4316  0.3460  0.0242
  128SOPE    HB13719   0.289   1.660   2.338  0.7822 -1.1778  0.9566
  128SOPE    C213720   0.367   1.496   2.433  0.1553  0.4195 -0.2997
  128SOPE    HS13721   0.357   1.386   2.433 -4.3325  0.6197 -2.0217
  128SOPE   O2113722   0.315   1.545   2.555 -0.4092  0.0428  0.2062
  128SOPE   C2113723   0.335   1.465   2.666 -0.3139 -0.3465  0.4038
  128SOPE   O2213724   0.373   1.354   2.658 -0.5424 -0.1471  0.5625
  128SOPE   C2213725   0.297   1.550   2.789 -0.2078  0.0847 -0.1931
  128SOPE   H2R13726   0.190   1.578   2.783 -0.8404 -1.7333  1.5813
  128SOPE   H2S13727   0.364   1.638   2.775 -1.3546  0.7897 -1.4634
  128SOPE    C313728   0.514   1.548   2.409 -0.8528  0.2687  0.1965
  128SOPE    HX13729   0.526   1.656   2.383 -3.8911  0.9517  1.2919
  128SOPE    HY13730   0.552   1.488   2.323 -0.8802  1.0565 -0.3792
  128SOPE   O3113731   0.589   1.534   2.530 -0.8180 -0.7493 -0.2403
  128SOPE   C3113732   0.658   1.416   2.549  0.2017 -0.6397  0.2498
  128SOPE   O3213733   0.656   1.321   2.468  0.1853 -0.5440 -0.3213
  128SOPE   C3213734   0.743   1.422   2.674  0.5469  0.3962  0.4764
  128SOPE   H2X13735   0.837   1.367   2.652  1.6751  2.7224 -0.9550
  128SOPE   H2Y13736   0.683   1.385   2.760  1.2857 -1.5997  0.1851
  128SOPE   C2313737   0.317   1.472   2.919 -0.5572 -0.0437  0.4605
  128SOPE   H3R13738   0.420   1.431   2.917 -0.6371 -0.2834 -1.6806
  128SOPE   H3S13739   0.239   1.393   2.904  0.2344 -0.6746 -0.4588
  128SOPE   C2413740   0.290   1.540   3.053 -0.2009 -0.4315  0.3079
  128SOPE   H4R13741   0.356   1.627   3.072 -1.7358  0.2858  2.9064
  128SOPE   H4S13742   0.187   1.582   3.047  0.0844  0.2727  0.3645
  128SOPE   C2513743   0.291   1.437   3.169 -0.4341  0.2356 -0.3182
  128SOPE   H5R13744   0.214   1.359   3.150 -0.1837 -0.3979  1.1356
  128SOPE   H5S13745   0.384   1.378   3.171 -0.6092 -0.0649 -0.8764
  128SOPE   C2613746   0.271   1.506   3.304 -0.5836  0.0415  0.2743
  128SOPE   H6R13747   0.169   1.549   3.311 -0.5679  0.0812  0.2562
  128SOPE   H6S13748   0.270   1.432   3.386  1.0953 -0.0599  0.2360
  128SOPE   C2713749   0.373   1.617   3.344  0.4900 -0.5519 -0.2862
  128SOPE   H7R13750   0.477   1.577   3.336  1.5730  2.2386 -1.3322
  128SOPE   H7S13751   0.370   1.707   3.279 -0.0985 -1.1094 -1.0495
  128SOPE   C2813752   0.375   1.643   3.491 -0.0396 -0.0664 -0.4596
  128SOPE   H8R13753   0.382   1.543   3.540 -1.3594 -0.5835 -1.2691
  128SOPE   H8S13754   0.470   1.690   3.526 -0.1520 -1.5239  2.0712
  128SOPE   C2913755   0.252   1.719   3.526 -0.0718  1.0121 -0.0166
  128SOPE   H9113756   0.174   1.733   3.450 -0.2353 -0.1323 -0.0692
  128SOPE  C21013757   0.235   1.790   3.630  0.2421  0.5846 -0.5810
  128SOPE  H10113758   0.132   1.816   3.657 -0.1054 -0.9145 -0.3389
  128SOPE  C21113759   0.327   1.816   3.746 -0.5298  0.1429  0.5405
  128SOPE  H11R13760   0.304   1.917   3.786  0.2262  0.2948  0.6259
  128SOPE  H11S13761   0.437   1.810   3.726 -0.4045 -2.0740  1.6466
  128SOPE  C21213762   0.311   1.712   3.856 -0.6501 -0.1401 -0.5300
  128SOPE  H12R13763   0.332   1.606   3.830  0.5345 -0.1660  0.4683
  128SOPE  H12S13764   0.210   1.727   3.901 -1.0643  1.5059 -1.8993
  128SOPE  C21313765   0.397   1.742   3.983  0.3842 -0.7148  0.0795
  128SOPE  H13R13766   0.354   1.840   4.016  0.0658 -1.3935  1.7619
  128SOPE  H13S13767   0.501   1.757   3.948 -0.2534 -0.7446 -1.9294
  128SOPE  C21413768   0.379   1.628   4.092 -0.0252  0.1479  1.1507
  128SOPE  H14R13769   0.410   1.528   4.057  0.0971  0.6778 -0.3525
  128SOPE  H14S13770   0.271   1.619   4.117 -0.0261  1.6890  1.8471
  128SOPE  C21513771   0.467   1.652   4.213  0.2108  0.2463 -0.7170
  128SOPE  H15R13772   0.457   1.756   4.252  1.2524  0.3740 -0.7585
  128SOPE  H15S13773   0.573   1.642   4.181  0.8233  2.0691  0.5481
  128SOPE  C21613774   0.430   1.544   4.313  0.0112 -0.1194  0.2111
  128SOPE  H16R13775   0.436   1.453   4.250  0.6807  0.7151 -0.9707
  128SOPE  H16S13776   0.323   1.568   4.332 -0.1516  0.7490 -1.6302
  128SOPE  C21713777   0.519   1.539   4.433  0.0867 -0.0086 -0.7504
  128SOPE  H17R13778   0.623   1.542   4.396  0.5176 -0.6128  0.3467
  128SOPE  H17S13779   0.525   1.442   4.487  0.3994  0.7483  0.6232
  128SOPE  C21813780   0.489   1.638   4.542  0.0102 -0.1378 -0.0601
  128SOPE  H18R13781   0.387   1.623   4.584  0.2346  0.1992  0.6226
  128SOPE  H18S13782   0.495   1.744   4.508 -0.8673  0.3520  1.2256
  128SOPE  H18T13783   0.555   1.627   4.630 -1.9184 -0.1643  1.4684
  128SOPE   C3313784   0.798   1.567   2.717  0.2176 -0.6221  0.2948
  128SOPE   H3X13785   0.714   1.640   2.705  1.2539  0.3911 -1.1753
  128SOPE   H3Y13786   0.877   1.588   2.642 -1.2139  1.6508 -0.6933
  128SOPE   C3413787   0.855   1.573   2.858  0.0203  0.6458 -0.4898
  128SOPE   H4X13788   0.884   1.674   2.894 -1.5229  0.3465  1.7736
  128SOPE   H4Y13789   0.952   1.520   2.850  0.0091  0.2280  1.5957
  128SOPE   C3513790   0.769   1.511   2.969 -0.0539 -0.5573 -0.6297
  128SOPE   H5X13791   0.785   1.401   2.959  1.9450 -0.1385 -2.9228
  128SOPE   H5Y13792   0.663   1.544   2.965  0.0152 -0.0775  0.9216
  128SOPE   C3613793   0.818   1.543   3.106 -0.2004  0.6578  0.1252
  128SOPE   H6X13794   0.816   1.654   3.116 -0.4723  0.9201 -2.2499
  128SOPE   H6Y13795   0.926   1.517   3.115 -0.1631  1.3900  3.1760
  128SOPE   C3713796   0.747   1.475   3.219 -0.4176 -0.3398 -0.1845
  128SOPE   H7X13797   0.757   1.365   3.220 -1.8914 -0.5523 -2.2654
  128SOPE   H7Y13798   0.638   1.497   3.221 -0.0938  1.3877 -0.1752
  128SOPE   C3813799   0.811   1.521   3.354 -0.2011 -0.1612  0.3344
  128SOPE   H8X13800   0.808   1.632   3.353 -0.3001 -0.1573  0.8971
  128SOPE   H8Y13801   0.917   1.492   3.365 -0.3827 -0.0498  2.7998
  128SOPE   C3913802   0.726   1.479   3.474 -0.1704  0.0286  0.2333
  128SOPE   H9X13803   0.753   1.375   3.502 -1.3472 -0.3474  0.0386
  128SOPE   H9Y13804   0.618   1.475   3.447 -0.4404 -0.7655  1.3460
  128SOPE  C31013805   0.747   1.581   3.589  0.2641 -0.4004  0.2126
  128SOPE  H10X13806   0.703   1.677   3.556 -2.0051 -0.8664  1.6037
  128SOPE  H10Y13807   0.858   1.586   3.598  0.2220  1.1898  0.0790
  128SOPE  C31113808   0.686   1.547   3.726  0.3942  0.3119 -0.5913
  128SOPE  H11X13809   0.577   1.524   3.730  0.5606 -0.7256 -1.4083
  128SOPE  H11Y13810   0.711   1.634   3.790  0.7475 -0.2833  0.0880
  128SOPE  C31213811   0.747   1.420   3.799  0.0297  0.0598 -0.5303
  128SOPE  H12X13812   0.850   1.455   3.822 -0.0324  1.3015 -1.9537
  128SOPE  H12Y13813   0.744   1.334   3.729 -0.2177 -0.0493 -0.3852
  128SOPE  C31313814   0.671   1.389   3.934  0.2127 -0.0904 -0.3139
  128SOPE  H13X13815   0.579   1.331   3.912 -0.5662  0.6671  0.8020
  128SOPE  H13Y13816   0.640   1.488   3.976  1.4342 -0.7209  2.2781
  128SOPE  C31413817   0.756   1.310   4.036  1.1330 -0.3079 -0.1139
  128SOPE  H14X13818   0.840   1.381   4.049 -0.1156  1.7878 -2.6821
  128SOPE  H14Y13819   0.804   1.217   3.999 -0.3196 -0.6033 -1.3612
  128SOPE  C31513820   0.677   1.282   4.161 -0.5741  0.9941  0.6488
  128SOPE  H15X13821   0.611   1.194   4.145 -0.8988  1.4341 -0.5417
  128SOPE  H15Y13822   0.614   1.371   4.183 -1.8397  0.2657  0.1067
  128SOPE  C31613823   0.780   1.266   4.280  0.2748  0.2871 -1.2728
  128SOPE  H16X13824   0.722   1.232   4.369  3.5442 -3.5715 -0.3382
  128SOPE  H16Y13825   0.829   1.361   4.310 -0.3576  0.1848  0.1811
  128SOPE  C31713826   0.879   1.153   4.268 -0.2264  0.6857  0.5660
  128SOPE  H17X13827   0.948   1.167   4.182 -0.1847 -1.4943  0.1904
  128SOPE  H17Y13828   0.824   1.061   4.238  1.2953  0.9705 -3.8691
  128SOPE  C31813829   0.951   1.110   4.399  0.2144 -0.3233  0.3556
  128SOPE  H18X13830   0.890   1.136   4.488 -0.5996  0.0635 -0.3047
  128SOPE  H18Y13831   1.046   1.164   4.421 -0.0985  0.8405 -1.0087
  128SOPE  H18Z13832   0.953   1.000   4.387 -2.7189 -0.2816 -1.5109
  129OSM      N13833   2.786   4.457   6.497 -0.2703  0.0068  0.0134
  129OSM    C1513834   2.926   4.427   6.534 -0.0633 -0.8644  0.5197
  129OSM   H15A13835   2.948   4.392   6.633  3.8706 -1.3717 -0.3649
  129OSM   H15B13836   3.001   4.503   6.517  2.7412 -3.8191 -1.9238
  129OSM   H15C13837   2.965   4.349   6.470 -0.9373  0.2827 -1.5187
  129OSM    C1413838   2.700   4.340   6.537  0.3573 -0.2205 -0.0210
  129OSM   H14A13839   2.730   4.250   6.485  0.7298  2.2108 -4.5211
  129OSM   H14B13840   2.594   4.359   6.530  0.6681  1.4974 -0.7151
  129OSM   H14C13841   2.723   4.315   6.639  0.5050  1.1395  0.3049
  129OSM    C1313842   2.739   4.572   6.575  0.4581 -0.8852  0.3987
  129OSM   H13A13843   2.801   4.658   6.553  0.2188 -0.7181  0.3734
  129OSM   H13B13844   2.736   4.544   6.679 -0.4424 -1.5829  0.1934
  129OSM   H13C13845   2.640   4.606   6.550 -0.3006 -2.6450  0.8966
  129OSM    C1213846   2.775   4.482   6.344 -0.2347  0.9904 -0.0950
  129OSM   H12A13847   2.827   4.574   6.320 -0.1032  1.3627  1.4986
  129OSM   H12B13848   2.671   4.496   6.322 -0.7339 -1.2854  0.5546
  129OSM    C1113849   2.836   4.363   6.247  0.0742 -0.5545 -0.1957
  129OSM   H11A13850   2.795   4.374   6.145 -0.1440 -0.8535 -0.1416
  129OSM   H11B13851   2.795   4.270   6.291 -1.8308  0.6363  0.6865
  129OSM      P13852   3.067   4.437   6.148 -0.1822 -0.3142  0.1697
  129OSM    O1313853   3.044   4.579   6.179 -0.1126  0.0427  0.7194
  129OSM    O1413854   3.203   4.383   6.162 -0.1685  0.0716  0.4011
  129OSM    O1113855   3.010   4.408   6.006  0.6648  0.1716 -0.2852
  129OSM    O1213856   2.977   4.356   6.243  0.5141 -0.0466 -0.3018
  129OSM    C1S13857   3.013   4.515   5.909 -0.1858 -0.0226  0.9617
  129OSM    H1S13858   3.118   4.535   5.880 -0.5599 -0.6445 -0.9353
  129OSM    H1T13859   2.970   4.611   5.945 -0.0237 -0.5082  2.5296
  129OSM     NF13860   2.987   4.573   5.666  0.3413  0.3660  0.1006
  129OSM    HNF13861   2.927   4.637   5.619 -0.7771  1.1042  2.4087
  129OSM    C2S13862   2.940   4.482   5.773  0.7495  0.3120 -0.0844
  129OSM    H2S13863   2.982   4.380   5.759 -1.1351 -0.4585 -0.4131
  129OSM    C3S13864   2.786   4.490   5.787 -0.0189  0.1797 -0.7473
  129OSM    H3S13865   2.773   4.596   5.816  2.3945  0.1056  0.8221
  129OSM     O313866   2.736   4.424   5.905 -0.4390  0.0400  0.4900
  129OSM    HO313867   2.809   4.436   5.966  1.9987  1.2721 -2.3977
  129OSM    C4S13868   2.719   4.454   5.664  0.1419  0.4563 -0.3935
  129OSM    H4S13869   2.693   4.539   5.599 -0.5246  0.8586  0.3830
  129OSM    C5S13870   2.695   4.323   5.621  0.9833  0.0304  0.0568
  129OSM    H5S13871   2.732   4.235   5.676  0.8977 -0.5896 -0.8668
  129OSM    C6S13872   2.624   4.295   5.493  0.3701  0.5776  0.1036
  129OSM    H6S13873   2.520   4.264   5.517 -0.3301  2.0091 -0.8986
  129OSM    H6T13874   2.671   4.207   5.443  4.2014  2.8947 -0.8407
  129OSM    C7S13875   2.625   4.395   5.375  0.3150 -0.9748  0.1997
  129OSM    H7S13876   2.730   4.420   5.349  0.0128 -0.2120 -0.2922
  129OSM    H7T13877   2.570   4.487   5.405 -0.3324 -1.5506  0.8217
  129OSM    C8S13878   2.561   4.343   5.240  0.0749 -0.0596 -0.7045
  129OSM    H8S13879   2.451   4.358   5.249  0.1431  0.1422 -0.1407
  129OSM    H8T13880   2.599   4.239   5.238 -3.2633 -1.4144 -1.7181
  129OSM    C9S13881   2.621   4.411   5.115 -0.5475 -1.0419  0.4680
  129OSM    H9S13882   2.732   4.409   5.111 -0.4839 -2.0600  1.9318
  129OSM    H9T13883   2.576   4.512   5.128 -0.0751 -0.2661 -2.9859
  129OSM   C10S13884   2.579   4.349   4.980  0.3507 -0.0488 -0.2140
  129OSM   H10S13885   2.468   4.344   4.977  0.1602  2.1347  0.8060
  129OSM   H10T13886   2.619   4.246   4.972 -0.8081 -0.4607 -0.8542
  129OSM   C11S13887   2.635   4.426   4.864 -0.8597  0.3269  0.7184
  129OSM   H11S13888   2.745   4.442   4.863 -0.9365  1.0208  1.7510
  129OSM   H11T13889   2.604   4.533   4.855  2.4515  1.2620 -1.0404
  129OSM   C12S13890   2.583   4.376   4.729  0.4051 -0.1425  0.3139
  129OSM   H12S13891   2.473   4.360   4.738  0.2088  0.3065 -1.1197
  129OSM   H12T13892   2.611   4.270   4.710 -0.1098 -0.0359 -1.1733
  129OSM   C13S13893   2.626   4.462   4.608 -0.3715 -0.6855 -0.1208
  129OSM   H13S13894   2.735   4.440   4.602 -0.5589 -1.5101 -0.6913
  129OSM   H13T13895   2.604   4.569   4.626  0.0849 -0.5498 -0.3783
  129OSM   C14S13896   2.561   4.418   4.472 -0.2409 -0.2501 -0.2387
  129OSM   H14S13897   2.450   4.423   4.462 -0.4900 -2.4572  0.9531
  129OSM   H14T13898   2.587   4.312   4.454 -0.6901 -0.8450  2.2340
  129OSM   C15S13899   2.617   4.487   4.346 -0.5643 -0.5748  0.1213
  129OSM   H15S13900   2.582   4.436   4.254  0.1806 -0.1391 -0.4194
  129OSM   H15T13901   2.728   4.487   4.352 -0.5016 -0.0093 -0.8007
  129OSM   C16S13902   2.563   4.632   4.339 -0.6607  0.2983 -0.0557
  129OSM   H16S13903   2.604   4.678   4.432  1.3289 -2.1280  0.3687
  129OSM   H16T13904   2.453   4.642   4.338 -0.6103  0.9676  0.1132
  129OSM   C17S13905   2.615   4.722   4.222  0.0002  0.7627 -0.0189
  129OSM   H17S13906   2.605   4.676   4.122  2.7044  3.4673 -1.6941
  129OSM   H17T13907   2.723   4.727   4.247  0.3707 -1.6984 -0.7972
  129OSM   C18S13908   2.566   4.863   4.234 -0.6208 -0.5282 -0.4929
  129OSM   H18S13909   2.456   4.868   4.243 -0.9131 -1.5302 -2.7394
  129OSM   H18T13910   2.588   4.918   4.140  1.2139  0.2488  0.3298
  129OSM   H18U13911   2.613   4.922   4.315  0.9608  1.2936 -2.6027
  129OSM    C1F13912   3.117   4.574   5.630 -0.2189 -0.2228 -0.0133
  129OSM     OF13913   3.181   4.476   5.647 -0.4620 -0.4082 -0.4329
  129OSM    C2F13914   3.177   4.705   5.594 -0.2269 -0.1310  0.0686
  129OSM    H2F13915   3.199   4.764   5.686  2.6910  1.7182 -1.6555
  129OSM    H2G13916   3.095   4.765   5.549 -0.6636  0.3104  1.4152
  129OSM    C3F13917   3.301   4.699   5.507 -0.2875  0.1325  0.0946
  129OSM    H3F13918   3.371   4.633   5.563  0.5069  0.9946  0.1637
  129OSM    H3G13919   3.362   4.791   5.526  1.1069 -1.2059  2.6621
  129OSM    C4F13920   3.288   4.666   5.358  0.5277 -0.4338 -0.1602
  129OSM    H4F13921   3.262   4.558   5.354 -0.3303 -0.5408  3.8103
  129OSM    H4G13922   3.381   4.685   5.301 -0.8882  1.5615 -1.9696
  129OSM    C5F13923   3.183   4.746   5.278  0.6197 -0.2443 -0.5381
  129OSM    H5F13924   3.224   4.847   5.256  1.0252  0.5352  3.1618
  129OSM    H5G13925   3.098   4.757   5.348  1.3938  1.9415  0.1366
  129OSM    C6F13926   3.130   4.675   5.150 -0.3593  0.4319 -0.7368
  129OSM    H6F13927   3.079   4.581   5.179  1.3642 -0.1033  0.7852
  129OSM    H6G13928   3.215   4.642   5.088 -0.5707  3.1027 -2.6298
  129OSM    C7F13929   3.041   4.760   5.060 -0.2268 -0.4673  0.8348
  129OSM    H7F13930   3.098   4.801   4.975 -0.2261 -0.4201  0.8579
  129OSM    H7G13931   3.000   4.843   5.123 -0.0664  2.0932 -2.1901
  129OSM    C8F13932   2.919   4.687   5.000  0.0915  0.3318 -0.3035
  129OSM    H8F13933   2.865   4.621   5.072  0.4746 -0.5698 -0.8259
  129OSM    H8G13934   2.955   4.619   4.921 -0.6150 -1.3981  0.7962
  129OSM    C9F13935   2.831   4.792   4.944  1.0155 -0.0098  0.6204
  129OSM    H9F13936   2.780   4.853   5.020 -2.8087 -1.1448 -0.8242
  129OSM   C10F13937   2.804   4.814   4.812 -0.5917 -0.5399 -0.4367
  129OSM   H10F13938   2.717   4.879   4.796 -0.2655 -0.5567 -2.5409
  129OSM   C11F13939   2.866   4.743   4.694 -0.4062  0.0849  0.5748
  129OSM   H11F13940   2.785   4.694   4.638 -0.1576 -0.4977  0.7165
  129OSM   H11G13941   2.930   4.660   4.731  0.9087  1.2406  1.0077
  129OSM   C12F13942   2.954   4.834   4.607  0.3685  0.0339  0.3143
  129OSM   H12F13943   3.028   4.885   4.672  1.8627  1.1713 -2.1236
  129OSM   H12G13944   2.890   4.910   4.558 -0.9883 -0.2947  1.5163
  129OSM   C13F13945   3.040   4.748   4.505  0.4242 -0.2785  1.1226
  129OSM   H13F13946   3.078   4.819   4.430 -1.8748 -0.6621 -0.5130
  129OSM   H13G13947   2.980   4.669   4.455 -2.3770  1.4464  1.5359
  129OSM   C14F13948   3.175   4.687   4.568  0.4216  0.1004 -0.0771
  129OSM   H14F13949   3.168   4.646   4.671 -0.0716  0.3647 -0.0046
  129OSM   H14G13950   3.255   4.764   4.559 -0.4509  0.8304 -2.0901
  129OSM   C15F13951   3.237   4.572   4.484  0.2182  0.6442  0.4019
  129OSM   H15F13952   3.253   4.606   4.379  2.6348 -0.2848  0.4069
  129OSM   H15G13953   3.154   4.499   4.468 -0.6032  1.3641  1.2977
  129OSM   C16F13954   3.356   4.505   4.546 -0.7436 -0.2034 -0.6451
  129OSM   H16F13955   3.385   4.421   4.479 -1.2973  0.7137 -2.0826
  129OSM   H16G13956   3.325   4.453   4.639 -0.6205  0.4797 -0.2169
  129OSM   C17F13957   3.482   4.588   4.583  0.2988  0.5682  1.0048
  129OSM   H17F13958   3.471   4.678   4.520  0.6670  0.7921  1.2605
  129OSM   H17G13959   3.569   4.527   4.549 -0.4136 -1.7308  2.9767
  129OSM   C18F13960   3.498   4.619   4.731 -0.4534  0.2708 -0.5970
  129OSM   H18F13961   3.591   4.679   4.737 -0.7029  0.5945  0.1495
  129OSM   H18G13962   3.510   4.519   4.777  0.2557  1.3181  1.6198
  129OSM   H18H13963   3.422   4.679   4.785  0.4439  0.4794  0.4559
  130OSM      N13964   3.587   4.667   6.524 -0.1072  0.2409  0.2873
  130OSM    C1513965   3.696   4.765   6.583  1.0459 -0.1144 -0.0662
  130OSM   H15A13966   3.654   4.810   6.672 -3.4273 -2.0056 -0.9390
  130OSM   H15B13967   3.726   4.840   6.512  0.0495  0.0353 -0.3497
  130OSM   H15C13968   3.786   4.707   6.594  0.5268 -1.0823 -0.7759
  130OSM    C1413969   3.581   4.562   6.625 -0.4773  0.3983 -0.1720
  130OSM   H14A13970   3.674   4.509   6.644 -0.7804 -1.5650 -3.4753
  130OSM   H14B13971   3.513   4.481   6.604  1.1535 -0.8458 -0.9376
  130OSM   H14C13972   3.541   4.610   6.713 -1.3701  0.8714 -0.8297
  130OSM    C1313973   3.453   4.713   6.505 -0.1301  0.5987  0.3680
  130OSM   H13A13974   3.403   4.727   6.599  0.5167  0.1235  0.7913
  130OSM   H13B13975   3.400   4.652   6.433 -0.4412  1.3767 -0.0843
  130OSM   H13C13976   3.462   4.810   6.457 -1.7681  0.2645 -0.6876
  130OSM    C1213977   3.645   4.611   6.396 -0.0298  0.5309 -0.0016
  130OSM   H12A13978   3.594   4.517   6.382 -1.3103  1.2216 -0.0968
  130OSM   H12B13979   3.750   4.600   6.421 -0.1177 -2.1306 -0.4775
  130OSM    C1113980   3.635   4.698   6.262  0.0001 -0.4538 -0.0514
  130OSM   H11A13981   3.540   4.683   6.207 -0.0436 -0.3864  0.0048
  130OSM   H11B13982   3.717   4.650   6.204 -0.0830 -1.3360  0.5401
  130OSM      P13983   3.790   4.906   6.278 -0.1807  0.0740 -0.1822
  130OSM    O1313984   3.780   5.031   6.355  0.2620 -0.2345  0.0860
  130OSM    O1413985   3.892   4.810   6.325  0.0560 -0.0290  0.4162
  130OSM    O1113986   3.821   4.933   6.125  0.1006 -0.2862  0.3811
  130OSM    O1213987   3.651   4.836   6.266  0.8074  0.1880 -0.1283
  130OSM    C1S13988   3.732   5.031   6.062  0.2048 -0.6905  0.3828
  130OSM    H1S13989   3.745   5.138   6.089  0.5312 -0.7823  0.5853
  130OSM    H1T13990   3.624   5.015   6.086  0.4513 -1.2612  1.1182
  130OSM     NF13991   3.654   5.130   5.855  0.1505  0.4285 -0.4679
  130OSM    HNF13992   3.558   5.119   5.835 -0.1315 -0.8917  1.3108
  130OSM    C2S13993   3.736   5.018   5.908  0.0220 -0.4147  0.3214
  130OSM    H2S13994   3.837   5.036   5.867 -0.0934 -0.7540 -0.1208
  130OSM    C3S13995   3.673   4.878   5.869  0.0260 -0.1916 -0.3110
  130OSM    H3S13996   3.570   4.883   5.913  0.2530 -0.9740  0.3242
  130OSM     O313997   3.721   4.765   5.935  0.0034 -0.1061 -0.1799
  130OSM    HO313998   3.774   4.803   6.006  0.6473  0.3579 -0.8972
  130OSM    C4S13999   3.669   4.851   5.721 -0.2229  0.0877 -0.3787
  130OSM    H4S14000   3.573   4.882   5.676 -0.9872  1.3027  1.9357
  130OSM    C5S14001   3.765   4.797   5.644  0.4370  0.1327  0.3237
  130OSM    H5S14002   3.858   4.770   5.696  0.9496  0.2193 -0.5171
  130OSM    C6S14003   3.771   4.772   5.497  0.2600  0.0594 -0.4775
  130OSM    H6S14004   3.799   4.666   5.479  0.5423  0.5961 -3.8525
  130OSM    H6T14005   3.862   4.828   5.464  1.4587 -2.3322 -1.5113
  130OSM    C7S14006   3.662   4.831   5.408 -0.0128 -0.3792 -0.4133
  130OSM    H7S14007   3.645   4.937   5.438 -2.2704 -1.4705  2.7770
  130OSM    H7T14008   3.565   4.781   5.430  0.4808 -1.8604 -1.4299
  130OSM    C8S14009   3.696   4.820   5.265  0.4386 -0.0577  0.6523
  130OSM    H8S14010   3.703   4.715   5.232 -0.1538 -0.2658  1.1618
  130OSM    H8T14011   3.795   4.867   5.245  0.4720  0.3002  1.5969
  130OSM    C9S14012   3.596   4.886   5.167 -0.4396 -0.1877 -0.8420
  130OSM    H9S14013   3.593   4.996   5.185 -1.5279 -0.0328 -1.8740
  130OSM    H9T14014   3.494   4.854   5.195  0.5186 -2.2184  0.6018
  130OSM   C10S14015   3.626   4.854   5.026  0.0803 -0.3201  0.0545
  130OSM   H10S14016   3.617   4.743   5.025  1.7818 -0.5958  2.7328
  130OSM   H10T14017   3.731   4.888   5.014 -0.9499  3.0269 -0.4577
  130OSM   C11S14018   3.543   4.939   4.922 -0.3183  0.5270 -0.2744
  130OSM   H11S14019   3.563   4.889   4.824  0.2120 -4.4859  2.0935
  130OSM   H11T14020   3.579   5.043   4.935 -2.1797  1.2332 -0.5456
  130OSM   C12S14021   3.396   4.941   4.959 -0.0099 -0.5493  0.0439
  130OSM   H12S14022   3.368   5.000   5.050 -3.1333 -0.1721 -1.0417
  130OSM   H12T14023   3.373   4.838   4.993  0.8396 -0.2316  1.7140
  130OSM   C13S14024   3.290   4.972   4.846  0.4615 -0.0927 -0.4312
  130OSM   H13S14025   3.201   4.988   4.910  2.3161  1.2378  1.9941
  130OSM   H13T14026   3.285   4.891   4.770 -0.9328  0.0092 -0.4744
  130OSM   C14S14027   3.323   5.098   4.763 -0.8097 -0.3713  0.1938
  130OSM   H14S14028   3.423   5.086   4.715 -0.4735 -1.3823  1.0924
  130OSM   H14T14029   3.333   5.184   4.832 -3.6646  0.2829 -0.0850
  130OSM   C15S14030   3.226   5.136   4.653 -0.5295 -1.0491  0.1081
  130OSM   H15S14031   3.124   5.157   4.693 -1.3840 -1.9820 -1.4750
  130OSM   H15T14032   3.226   5.046   4.588  0.9625 -1.0998  0.1504
  130OSM   C16S14033   3.268   5.254   4.556 -0.2264 -0.0160 -0.6430
  130OSM   H16S14034   3.210   5.233   4.463 -1.7088 -1.7996  0.5982
  130OSM   H16T14035   3.374   5.245   4.525  0.4389  0.4017  1.3670
  130OSM   C17S14036   3.225   5.394   4.612 -0.4057  0.0177  0.2384
  130OSM   H17S14037   3.272   5.466   4.542 -2.0289  1.1967  0.3044
  130OSM   H17T14038   3.253   5.402   4.719 -1.9083 -1.0632  0.7523
  130OSM   C18S14039   3.074   5.416   4.608  0.6294 -0.0385 -0.0737
  130OSM   H18S14040   3.035   5.383   4.510  0.4463 -1.1958  0.3748
  130OSM   H18T14041   3.043   5.519   4.633 -1.1644 -0.2669 -1.2007
  130OSM   H18U14042   3.023   5.363   4.691 -0.2755  2.4557  1.0658
  130OSM    C1F14043   3.708   5.248   5.823  0.6131 -0.0751 -0.2642
  130OSM     OF14044   3.812   5.289   5.874  0.5576  0.5615 -0.1258
  130OSM    C2F14045   3.641   5.321   5.709  0.3289  1.1596 -0.3085
  130OSM    H2F14046   3.567   5.245   5.674  1.3296  0.4515 -0.9689
  130OSM    H2G14047   3.723   5.339   5.636  0.6671  0.8787 -0.0053
  130OSM    C3F14048   3.565   5.438   5.756  0.0308  0.2073 -0.4953
  130OSM    H3F14049   3.643   5.508   5.792 -0.6076  0.4076  0.5473
  130OSM    H3G14050   3.505   5.415   5.847  0.7294  0.6566  0.0925
  130OSM    C4F14051   3.466   5.479   5.652 -0.4092 -0.2573  0.7188
  130OSM    H4F14052   3.392   5.398   5.634 -1.4815  0.8169  0.0936
  130OSM    H4G14053   3.506   5.492   5.549 -2.0986  0.8409  0.1695
  130OSM    C5F14054   3.391   5.613   5.684  0.2525 -0.0702  0.3620
  130OSM    H5F14055   3.466   5.689   5.715  1.6716 -1.2301 -0.1442
  130OSM    H5G14056   3.308   5.605   5.758 -1.9251  2.9528 -1.5456
  130OSM    C6F14057   3.313   5.671   5.563 -0.0155  0.2587  0.1680
  130OSM    H6F14058   3.256   5.596   5.504  0.7565  0.5123 -0.9401
  130OSM    H6G14059   3.386   5.720   5.495  1.0648 -0.9156  0.4414
  130OSM    C7F14060   3.218   5.794   5.596  0.1615 -0.1438 -0.6955
  130OSM    H7F14061   3.284   5.879   5.623  0.3754 -0.5614  0.1319
  130OSM    H7G14062   3.150   5.766   5.680  0.3730 -0.6819 -0.6986
  130OSM    C8F14063   3.135   5.837   5.473 -0.3219 -0.4910  0.4111
  130OSM    H8F14064   3.205   5.831   5.386 -2.0741 -0.9635 -1.0368
  130OSM    H8G14065   3.111   5.943   5.494 -0.4158 -0.3249 -0.4882
  130OSM    C9F14066   3.009   5.754   5.446  0.3346 -0.4637  0.3460
  130OSM    H9F14067   2.931   5.746   5.523 -1.3577 -1.8417 -1.3943
  130OSM   C10F14068   2.976   5.700   5.327 -0.9506 -0.1316 -1.6154
  130OSM   H10F14069   2.875   5.658   5.316 -0.4966 -1.5474 -0.6324
  130OSM   C11F14070   3.057   5.691   5.202 -0.2087 -0.3788 -0.8753
  130OSM   H11F14071   3.045   5.591   5.154  0.5782 -1.0386  0.2571
  130OSM   H11G14072   3.164   5.713   5.217  0.2267 -2.9219  0.2375
  130OSM   C12F14073   3.009   5.806   5.119  0.8251  0.4965  0.1467
  130OSM   H12F14074   3.049   5.897   5.169  0.7864 -0.5404  2.1679
  130OSM   H12G14075   2.899   5.816   5.113  1.0022  2.7100 -0.3467
  130OSM   C13F14076   3.044   5.813   4.964 -0.8698 -0.3262 -0.1399
  130OSM   H13F14077   3.048   5.915   4.921  1.1233 -0.3170 -0.0362
  130OSM   H13G14078   2.964   5.759   4.909 -1.7265  2.1644 -1.5145
  130OSM   C14F14079   3.184   5.743   4.935  0.7581 -0.6695 -0.9528
  130OSM   H14F14080   3.197   5.643   4.980  1.1023  0.0439  0.5924
  130OSM   H14G14081   3.252   5.814   4.987 -0.1928  0.3714 -1.0939
  130OSM   C15F14082   3.231   5.743   4.790 -1.2824 -0.1661 -0.4718
  130OSM   H15F14083   3.213   5.838   4.736 -3.2717  0.2102  0.7628
  130OSM   H15G14084   3.182   5.660   4.735 -0.4637  0.0975 -1.6230
  130OSM   C16F14085   3.388   5.727   4.783  0.5856  0.3183 -0.8703
  130OSM   H16F14086   3.408   5.630   4.833  1.5665 -0.9284 -3.5004
  130OSM   H16G14087   3.433   5.803   4.851  0.1885  0.4909 -0.7952
  130OSM   C17F14088   3.456   5.729   4.651  0.0217 -0.2702  0.3120
  130OSM   H17F14089   3.454   5.831   4.609  0.7891 -0.6787 -0.7660
  130OSM   H17G14090   3.407   5.662   4.577 -0.1825  2.3664 -2.1104
  130OSM   C18F14091   3.602   5.695   4.675  0.3641 -0.0157  0.9053
  130OSM   H18F14092   3.661   5.713   4.583 -0.6996 -2.7429 -0.3891
  130OSM   H18G14093   3.612   5.591   4.710 -0.1267 -0.6678 -0.7833
  130OSM   H18H14094   3.638   5.759   4.758 -0.0124 -1.0451  1.8864
  131OSM      N14095   3.601   1.782   6.393 -0.0899  0.8157  0.8918
  131OSM    C1514096   3.475   1.705   6.396  0.4469  0.1845 -0.9196
  131OSM   H15A14097   3.406   1.737   6.320 -0.5015  0.3237 -0.0257
  131OSM   H15B14098   3.418   1.726   6.485 -0.6069 -0.3304 -1.4551
  131OSM   H15C14099   3.493   1.600   6.379  1.5080  0.4784 -1.6875
  131OSM    C1414100   3.572   1.926   6.419 -0.3320 -0.3079  0.5423
  131OSM   H14A14101   3.504   1.965   6.345 -0.0674  0.6734  0.8114
  131OSM   H14B14102   3.659   1.990   6.414 -0.9222  0.4374 -0.4001
  131OSM   H14C14103   3.529   1.937   6.518  1.9316 -0.3455  1.5965
  131OSM    C1314104   3.698   1.737   6.500  0.9367 -0.9216  0.5794
  131OSM   H13A14105   3.654   1.740   6.598 -0.0740 -2.4022  0.2001
  131OSM   H13B14106   3.784   1.802   6.502  0.5105 -0.3634  1.2559
  131OSM   H13C14107   3.740   1.638   6.496 -0.5860 -1.6498  1.6173
  131OSM    C1214108   3.670   1.765   6.262 -1.3985  1.1296 -0.5304
  131OSM   H12A14109   3.684   1.659   6.242  0.1030  1.1795  0.1379
  131OSM   H12B14110   3.764   1.817   6.271 -1.2639  0.6794  1.0222
  131OSM    C1114111   3.598   1.806   6.129  0.8075 -0.6236 -0.4476
  131OSM   H11A14112   3.511   1.742   6.105 -0.7780  0.8440  1.0517
  131OSM   H11B14113   3.666   1.775   6.047  0.4090  0.1040 -1.0691
  131OSM      P14114   3.652   2.058   6.061 -0.0712  0.1634 -0.5204
  131OSM    O1314115   3.594   2.188   6.094  0.5193 -0.1754 -0.0665
  131OSM    O1414116   3.792   2.026   6.105 -0.1909 -0.0428  0.3446
  131OSM    O1114117   3.650   2.033   5.898  0.4697 -0.0299 -0.6758
  131OSM    O1214118   3.558   1.945   6.123  0.0866  0.5007 -0.0678
  131OSM    C1S14119   3.728   2.126   5.821 -0.1064  0.3913  0.3204
  131OSM    H1S14120   3.829   2.122   5.868 -0.9578  0.3411  2.2272
  131OSM    H1T14121   3.700   2.234   5.821  0.4836  0.5778 -1.3584
  131OSM     NF14122   3.866   2.121   5.614 -0.0893 -0.1644 -0.6767
  131OSM    HNF14123   3.866   2.194   5.545 -0.6440  0.2798 -0.2146
  131OSM    C2S14124   3.740   2.075   5.671  0.0617  0.5631 -0.5424
  131OSM    H2S14125   3.748   1.965   5.680 -1.6299  0.4811  0.2437
  131OSM    C3S14126   3.613   2.104   5.594  0.1829 -0.0324 -0.2141
  131OSM    H3S14127   3.585   2.211   5.580 -0.0887  0.0396  0.7967
  131OSM     O314128   3.496   2.070   5.677 -0.4471  0.2722  0.2031
  131OSM    HO314129   3.523   2.055   5.767  0.0169 -0.5593 -0.0683
  131OSM    C4S14130   3.618   2.032   5.465  0.4091  0.1051 -0.1627
  131OSM    H4S14131   3.673   2.081   5.384  0.1070 -0.6532 -0.8441
  131OSM    C5S14132   3.575   1.911   5.431  0.5193  0.5112 -0.0937
  131OSM    H5S14133   3.531   1.853   5.514 -1.0972 -1.9993 -2.5289
  131OSM    C6S14134   3.580   1.833   5.300 -0.1683 -0.0446  0.4585
  131OSM    H6S14135   3.482   1.813   5.250 -1.0988 -1.8292  2.8247
  131OSM    H6T14136   3.616   1.731   5.327  0.7880  0.0008 -0.5632
  131OSM    C7S14137   3.668   1.893   5.186  0.1488 -0.3558 -0.1295
  131OSM    H7S14138   3.668   1.814   5.109  0.0264  0.4658 -0.9881
  131OSM    H7T14139   3.774   1.911   5.214 -0.0153  1.4487 -0.5193
  131OSM    C8S14140   3.616   2.020   5.129 -0.8286  0.4989 -1.0163
  131OSM    H8S14141   3.609   2.100   5.206 -1.7671 -2.1185  1.8298
  131OSM    H8T14142   3.510   2.007   5.099 -1.9377  2.0763  1.8333
  131OSM    C9S14143   3.689   2.061   5.005 -0.5688  0.0380  0.6725
  131OSM    H9S14144   3.633   2.138   4.949 -0.3418 -0.6274 -0.5110
  131OSM    H9T14145   3.696   1.975   4.934  1.3067 -1.6217  2.6990
  131OSM   C10S14146   3.831   2.110   5.029 -0.2266  0.3456 -0.6260
  131OSM   H10S14147   3.883   2.043   5.101 -2.6868 -0.4307  0.5132
  131OSM   H10T14148   3.818   2.216   5.060 -1.2357  0.1700 -0.4158
  131OSM   C11S14149   3.914   2.114   4.891  1.0494  0.7547  0.0613
  131OSM   H11S14150   3.877   2.192   4.822  1.4158  0.9508  0.0839
  131OSM   H11T14151   3.892   2.017   4.840 -0.9567  2.1900 -1.9808
  131OSM   C12S14152   4.057   2.132   4.928 -0.2474  0.5682 -0.1266
  131OSM   H12S14153   4.087   2.035   4.972  1.8005  2.1727  2.3149
  131OSM   H12T14154   4.071   2.216   4.999  1.8676  0.2733 -0.1227
  131OSM   C13S14155   4.142   2.153   4.799  0.0139  0.2881  0.3107
  131OSM   H13S14156   4.248   2.166   4.828  0.9423 -2.7595 -1.2103
  131OSM   H13T14157   4.109   2.248   4.752  1.7050  1.1410  0.7487
  131OSM   C14S14158   4.134   2.048   4.690  0.8860 -0.2878 -0.6364
  131OSM   H14S14159   4.028   2.019   4.671  0.6749 -0.5797  0.8955
  131OSM   H14T14160   4.190   1.956   4.718 -1.0172 -0.6586  2.4576
  131OSM   C15S14161   4.203   2.099   4.569 -0.4400  0.1380 -0.2174
  131OSM   H15S14162   4.290   2.038   4.537 -0.6103  1.1834 -2.8854
  131OSM   H15T14163   4.247   2.199   4.591 -1.6022  0.6626 -0.2394
  131OSM   C16S14164   4.108   2.094   4.456  0.6147 -0.3251 -0.2311
  131OSM   H16S14165   4.012   2.145   4.482  1.2923  0.8819 -0.0328
  131OSM   H16T14166   4.076   1.989   4.440  0.8899 -0.3461 -0.6606
  131OSM   C17S14167   4.160   2.152   4.319 -0.2761 -0.7452 -0.4934
  131OSM   H17S14168   4.215   2.071   4.268 -0.8801 -0.1060 -2.2120
  131OSM   H17T14169   4.225   2.241   4.333  0.6384 -1.2910 -1.1989
  131OSM   C18S14170   4.056   2.198   4.219 -0.4637 -1.1550  0.0683
  131OSM   H18S14171   4.097   2.220   4.118  0.4389 -0.5475  0.5535
  131OSM   H18T14172   4.004   2.286   4.261  1.9765  0.2957  0.2372
  131OSM   H18U14173   3.969   2.130   4.211 -2.0769  0.7256  0.8751
  131OSM    C1F14174   3.985   2.069   5.648  0.1204  0.6557 -0.5019
  131OSM     OF14175   3.984   1.969   5.717 -0.0869 -0.2881 -0.8502
  131OSM    C2F14176   4.110   2.140   5.602 -0.3206  0.2275 -0.6116
  131OSM    H2F14177   4.150   2.178   5.698  2.8532 -2.9344 -0.4948
  131OSM    H2G14178   4.082   2.221   5.531  0.6398 -0.1961 -1.4904
  131OSM    C3F14179   4.213   2.052   5.526 -0.3032 -0.7597 -0.7495
  131OSM    H3F14180   4.251   1.973   5.594 -1.6792  0.0214  0.9998
  131OSM    H3G14181   4.296   2.123   5.508 -0.0212 -1.0395 -0.5502
  131OSM    C4F14182   4.170   2.008   5.386 -0.0462  0.3709 -1.0880
  131OSM    H4F14183   4.152   2.100   5.326 -0.9348  1.2504  0.4360
  131OSM    H4G14184   4.079   1.944   5.394  1.5665 -1.8102  1.8611
  131OSM    C5F14185   4.276   1.928   5.313  0.3079  0.1062  0.1803
  131OSM    H5F14186   4.319   1.841   5.367  1.5814  0.8530  0.4172
  131OSM    H5G14187   4.372   1.984   5.318 -0.4861  1.6505 -0.9217
  131OSM    C6F14188   4.237   1.896   5.169  0.2170  0.3892  0.9574
  131OSM    H6F14189   4.232   1.981   5.098 -0.6439 -1.0680 -0.8305
  131OSM    H6G14190   4.133   1.858   5.175  0.2338  0.4879  1.9319
  131OSM    C7F14191   4.338   1.791   5.111  0.1541  0.1193 -0.3212
  131OSM    H7F14192   4.330   1.701   5.174 -0.4258 -1.3411 -2.3586
  131OSM    H7G14193   4.440   1.835   5.117 -0.0231  0.9921 -2.5262
  131OSM    C8F14194   4.296   1.749   4.969 -0.2212  0.0262  0.2956
  131OSM    H8F14195   4.286   1.843   4.911 -0.3410  0.4057  0.9316
  131OSM    H8G14196   4.194   1.704   4.975 -0.8310  1.5481  3.3565
  131OSM    C9F14197   4.399   1.656   4.909  0.0424  0.7729 -0.1078
  131OSM    H9F14198   4.421   1.567   4.970  1.3901 -0.0063 -1.6300
  131OSM   C10F14199   4.478   1.681   4.802  0.4095 -0.6234  0.1244
  131OSM   H10F14200   4.537   1.599   4.758  0.2377 -0.4526 -0.4300
  131OSM   C11F14201   4.465   1.807   4.726 -0.3078 -0.7517 -0.3147
  131OSM   H11F14202   4.511   1.895   4.775  1.1760 -1.5491 -0.2196
  131OSM   H11G14203   4.357   1.828   4.710  0.1386  2.1092  0.0206
  131OSM   C12F14204   4.537   1.808   4.589  0.5610 -0.4672 -0.0004
  131OSM   H12F14205   4.490   1.896   4.539  0.9323  0.0439  0.5377
  131OSM   H12G14206   4.512   1.722   4.523  1.0362 -1.9751  1.6982
  131OSM   C13F14207   4.686   1.833   4.602  0.0888 -0.2865  0.4662
  131OSM   H13F14208   4.726   1.734   4.634  0.0543  0.0136  1.4675
  131OSM   H13G14209   4.721   1.913   4.670 -0.6081  1.6552 -1.3697
  131OSM   C14F14210   4.745   1.857   4.468  0.3699  0.7991  0.3269
  131OSM   H14F14211   4.712   1.954   4.426 -0.6006  0.4574  0.2805
  131OSM   H14G14212   4.713   1.779   4.396  3.3201 -0.7234  0.4874
  131OSM   C15F14213   4.890   1.833   4.450 -0.2888 -0.2640 -0.6131
  131OSM   H15F14214   4.922   1.737   4.496  0.2711  1.0794  2.0108
  131OSM   H15G14215   4.937   1.909   4.517  1.0011 -0.9377 -0.7276
  131OSM   C16F14216   4.932   1.835   4.304  0.0446  0.0706 -0.3157
  131OSM   H16F14217   4.931   1.937   4.262  0.2546  1.1513  2.1379
  131OSM   H16G14218   4.855   1.775   4.252 -0.2090  0.0950  0.0300
  131OSM   C17F14219   5.062   1.767   4.268 -0.0648 -0.5166  0.2635
  131OSM   H17F14220   5.071   1.659   4.292  0.9064  0.0193  2.5376
  131OSM   H17G14221   5.144   1.813   4.327 -1.0816  0.5113  0.9193
  131OSM   C18F14222   5.097   1.793   4.121  0.0266  0.0681 -0.2961
  131OSM   H18F14223   5.180   1.729   4.085  1.4590  0.0023  2.8038
  131OSM   H18G14224   5.118   1.901   4.105 -2.5283  0.6226 -0.3702
  131OSM   H18H14225   5.006   1.767   4.063 -0.9785 -0.1962  1.3204
  132OSM      N14226   5.052   5.062   6.148  0.3932 -0.0500 -0.3082
  132OSM    C1514227   4.973   5.034   6.022  0.7504 -0.0960 -0.1593
  132OSM   H15A14228   4.962   4.930   5.997 -1.0490  0.1718 -0.5829
  132OSM   H15B14229   5.015   5.078   5.932 -0.5262  1.8728  0.1494
  132OSM   H15C14230   4.878   5.084   6.032  2.0206  2.5512 -0.2691
  132OSM    C1414231   5.073   5.214   6.169 -0.8260 -0.2208 -0.2385
  132OSM   H14A14232   5.170   5.245   6.131 -1.6054  2.2382 -0.4038
  132OSM   H14B14233   5.053   5.240   6.272 -0.0890 -2.5982  0.5775
  132OSM   H14C14234   5.006   5.278   6.113  1.9721  1.1281 -2.3014
  132OSM    C1314235   4.978   5.019   6.275 -0.2176  0.1200  0.4087
  132OSM   H13A14236   5.052   5.004   6.352  0.5998  1.3973 -0.0916
  132OSM   H13B14237   4.945   4.918   6.259  2.4027 -0.7000 -0.2741
  132OSM   H13C14238   4.893   5.078   6.309 -0.5608  0.1541 -0.4915
  132OSM    C1214239   5.191   5.007   6.132  0.5693  0.1377  1.5206
  132OSM   H12A14240   5.184   4.900   6.129  0.8980  0.1026  2.0058
  132OSM   H12B14241   5.239   5.038   6.223 -0.8434  0.3923  2.2104
  132OSM    C1114242   5.272   5.046   6.002 -0.1774  0.0706  0.1022
  132OSM   H11A14243   5.222   5.004   5.912  0.0329  1.8755 -0.8935
  132OSM   H11B14244   5.367   4.989   6.014 -0.6688 -1.1218 -1.3862
  132OSM      P14245   5.428   5.255   6.009 -0.1059  0.5234 -0.2923
  132OSM    O1314246   5.424   5.390   5.948  0.4354 -0.0817 -0.3399
  132OSM    O1414247   5.456   5.247   6.152  0.8686 -0.1320  0.3769
  132OSM    O1114248   5.534   5.174   5.929 -0.1276  0.1329 -0.1652
  132OSM    O1214249   5.286   5.188   5.983 -0.1302 -0.1637  0.4823
  132OSM    C1S14250   5.526   5.152   5.786 -0.6940  0.0857  0.1894
  132OSM    H1S14251   5.456   5.225   5.740  0.8171  0.0507 -2.3978
  132OSM    H1T14252   5.474   5.057   5.762 -0.3355 -0.2583  0.7455
  132OSM     NF14253   5.650   5.169   5.576 -0.3839  0.2885 -0.5292
  132OSM    HNF14254   5.691   5.088   5.535  0.9208  0.6956 -0.0877
  132OSM    C2S14255   5.665   5.173   5.721  0.3100  0.4810  0.4818
  132OSM    H2S14256   5.702   5.274   5.747 -0.6326  1.4480 -1.7473
  132OSM    C3S14257   5.762   5.062   5.778 -0.8851  0.4289  0.0940
  132OSM    H3S14258   5.708   4.966   5.786  2.7774 -1.7526  1.0776
  132OSM     O314259   5.796   5.111   5.911  0.1900  0.2257  0.1284
  132OSM    HO314260   5.712   5.150   5.935  0.4408  0.2914  0.9342
  132OSM    C4S14261   5.889   5.048   5.704 -0.6794 -0.6088 -0.2309
  132OSM    H4S14262   5.946   5.141   5.708 -1.1332 -0.3498  0.2915
  132OSM    C5S14263   5.934   4.937   5.638  0.2555  0.2451 -0.2196
  132OSM    H5S14264   5.870   4.848   5.638 -0.3094  0.6412 -1.1579
  132OSM    C6S14265   6.068   4.928   5.566 -0.6709 -0.2884  0.4356
  132OSM    H6S14266   6.097   4.822   5.552 -1.9237 -0.5058 -0.6840
  132OSM    H6T14267   6.147   4.971   5.632 -0.3124 -1.3713  0.7261
  132OSM    C7S14268   6.080   5.004   5.435 -0.6131  0.4325  0.7039
  132OSM    H7S14269   6.173   4.971   5.385 -0.1680 -0.7865  2.2287
  132OSM    H7T14270   6.088   5.113   5.453 -2.1970  0.8029 -0.6193
  132OSM    C8S14271   5.961   4.991   5.331 -0.3430  0.9645  0.5053
  132OSM    H8S14272   5.870   5.012   5.390 -2.3022  1.4152 -2.4528
  132OSM    H8T14273   5.960   4.889   5.286  0.9507  1.3619 -0.4767
  132OSM    C9S14274   5.958   5.093   5.220 -0.0924  0.0808  0.2686
  132OSM    H9S14275   5.961   5.195   5.265 -0.1952 -0.5089  1.6450
  132OSM    H9T14276   5.861   5.085   5.166  0.7789 -0.1055 -1.3561
  132OSM   C10S14277   6.071   5.084   5.120 -0.2168 -0.3385  0.2868
  132OSM   H10S14278   6.073   4.980   5.081 -0.3300  0.1183 -0.9983
  132OSM   H10T14279   6.170   5.096   5.168  0.2116 -0.8376 -0.4453
  132OSM   C11S14280   6.063   5.190   5.008 -0.1668 -1.1060  0.0214
  132OSM   H11S14281   6.075   5.291   5.053 -2.4160 -0.2934 -1.0593
  132OSM   H11T14282   5.961   5.188   4.964  0.1364  3.7127 -1.4733
  132OSM   C12S14283   6.165   5.161   4.895  0.4711 -0.3358 -0.0514
  132OSM   H12S14284   6.151   5.054   4.868 -1.4842 -0.9001  2.8332
  132OSM   H12T14285   6.271   5.160   4.928  1.2188 -1.0566 -2.2510
  132OSM   C13S14286   6.152   5.262   4.777  0.5573 -0.6944  0.1284
  132OSM   H13S14287   6.234   5.251   4.703 -0.1590  1.9462 -1.1796
  132OSM   H13T14288   6.156   5.366   4.815  1.5913 -0.8964  0.6266
  132OSM   C14S14289   6.017   5.246   4.702 -0.6540 -0.0293  0.5733
  132OSM   H14S14290   5.941   5.298   4.763 -1.2081  2.0775 -1.7839
  132OSM   H14T14291   5.997   5.136   4.707  0.1300 -0.2245 -0.2666
  132OSM   C15S14292   6.013   5.315   4.568 -0.2954 -0.0871  0.0380
  132OSM   H15S14293   6.085   5.274   4.494  0.9703  0.8131  0.7462
  132OSM   H15T14294   6.045   5.420   4.586  2.3350 -0.5833 -1.2083
  132OSM   C16S14295   5.873   5.304   4.502  0.1277 -0.4681  0.2518
  132OSM   H16S14296   5.799   5.330   4.581  1.5179 -0.8753  1.7252
  132OSM   H16T14297   5.869   5.197   4.472  0.3113 -0.6128  0.7321
  132OSM   C17S14298   5.844   5.382   4.367 -0.2951 -0.2562 -0.2934
  132OSM   H17S14299   5.749   5.338   4.330 -0.0391 -1.6621  0.6516
  132OSM   H17T14300   5.919   5.344   4.294 -1.2354  0.0341 -1.4621
  132OSM   C18S14301   5.830   5.538   4.373 -1.0146  0.2393  0.2876
  132OSM   H18S14302   5.903   5.586   4.441 -0.7545  2.4944 -1.4620
  132OSM   H18T14303   5.732   5.570   4.414 -0.3397 -0.3622  2.5398
  132OSM   H18U14304   5.835   5.578   4.270  0.2554 -2.4227 -0.7839
  132OSM    C1F14305   5.602   5.261   5.501 -0.1077 -0.0738  0.2307
  132OSM     OF14306   5.573   5.368   5.542 -0.3599 -0.3972 -0.0456
  132OSM    C2F14307   5.588   5.241   5.348  0.2104 -0.8258  0.3824
  132OSM    H2F14308   5.517   5.158   5.327  1.1911 -1.8782  1.0591
  132OSM    H2G14309   5.680   5.199   5.302 -1.1878 -2.1383 -1.3586
  132OSM    C3F14310   5.535   5.369   5.269  0.0337 -0.1393  0.3074
  132OSM    H3F14311   5.618   5.435   5.300  0.0653 -0.6207  1.2852
  132OSM    H3G14312   5.439   5.406   5.311 -0.6961  1.7584 -2.6786
  132OSM    C4F14313   5.523   5.349   5.120  0.1398 -0.1819 -0.1791
  132OSM    H4F14314   5.502   5.240   5.108 -1.3331 -0.1747  1.9074
  132OSM    H4G14315   5.627   5.364   5.083 -0.7100  0.2898 -2.5916
  132OSM    C5F14316   5.421   5.444   5.055  0.4514 -0.0338 -0.3249
  132OSM    H5F14317   5.321   5.415   5.095  0.7702  0.3004  0.7705
  132OSM    H5G14318   5.411   5.427   4.946 -1.4587  0.3893 -0.2482
  132OSM    C6F14319   5.445   5.595   5.067 -0.5447 -0.4302 -0.2006
  132OSM    H6F14320   5.544   5.622   5.022  1.2715 -2.8635  2.0465
  132OSM    H6G14321   5.462   5.623   5.173 -1.2601  0.6052 -0.3412
  132OSM    C7F14322   5.335   5.688   5.023  0.3433  0.3544 -0.5704
  132OSM    H7F14323   5.354   5.793   5.053 -3.1070  0.8261  0.4534
  132OSM    H7G14324   5.256   5.655   5.095  0.1362 -0.4153 -1.1308
  132OSM    C8F14325   5.303   5.678   4.870 -0.0030 -0.4241 -0.4654
  132OSM    H8F14326   5.291   5.570   4.846 -1.4144 -0.5020  0.4575
  132OSM    H8G14327   5.384   5.710   4.802  0.0568 -0.7490 -0.5497
  132OSM    C9F14328   5.172   5.746   4.835  0.3786  0.6421 -0.2793
  132OSM    H9F14329   5.122   5.803   4.915  0.2946  1.1076 -0.6551
  132OSM   C10F14330   5.104   5.732   4.718  0.3115 -0.1849 -0.2867
  132OSM   H10F14331   5.022   5.804   4.702  0.8021  0.3394 -0.4724
  132OSM   C11F14332   5.153   5.650   4.598 -0.2997 -0.0739 -0.2538
  132OSM   H11F14333   5.074   5.594   4.543  1.8719 -1.7383 -1.8967
  132OSM   H11G14334   5.229   5.578   4.637  1.2823  1.1964 -0.9033
  132OSM   C12F14335   5.227   5.732   4.485 -0.9520  0.4225 -0.4394
  132OSM   H12F14336   5.158   5.790   4.420  0.7676  3.2869  0.1474
  132OSM   H12G14337   5.281   5.650   4.433  0.4355 -0.0010  1.5690
  132OSM   C13F14338   5.339   5.829   4.530  0.1334  0.0784  0.1007
  132OSM   H13F14339   5.400   5.785   4.611 -2.0360 -1.7546  0.8462
  132OSM   H13G14340   5.285   5.910   4.584 -1.2523 -1.5040  1.1851
  132OSM   C14F14341   5.423   5.902   4.419 -0.0481 -0.0881  0.2859
  132OSM   H14F14342   5.460   5.997   4.463 -0.4193  0.3806 -0.3893
  132OSM   H14G14343   5.351   5.923   4.337  0.5770  2.3548  0.2815
  132OSM   C15F14344   5.531   5.817   4.360 -0.0335 -0.2637  0.0428
  132OSM   H15F14345   5.513   5.709   4.379 -1.8427  0.1923  1.1192
  132OSM   H15G14346   5.628   5.842   4.407  0.2399  0.7816 -1.0312
  132OSM   C16F14347   5.547   5.825   4.203  0.4290  0.0464  0.2080
  132OSM   H16F14348   5.526   5.929   4.171 -2.1389 -0.9625 -1.8116
  132OSM   H16G14349   5.465   5.768   4.155  2.4658 -1.4524 -1.7286
  132OSM   C17F14350   5.676   5.774   4.144  0.2582 -0.3248  0.3340
  132OSM   H17F14351   5.690   5.666   4.162  2.3799 -0.3956 -1.3221
  132OSM   H17G14352   5.756   5.824   4.204 -0.8659  1.6766  0.2666
  132OSM   C18F14353   5.690   5.803   4.000 -0.0286  0.3435 -0.4548
  132OSM   H18F14354   5.593   5.780   3.950 -0.7056  1.8653  0.1088
  132OSM   H18G14355   5.783   5.754   3.965  1.1902  2.4107 -0.2615
  132OSM   H18H14356   5.708   5.910   3.977 -1.0764  0.5051 -0.5976
  133OSM      N14357   1.836   5.686   6.128 -0.0418 -0.4639 -0.9755
  133OSM    C1514358   1.705   5.748   6.155  0.2700 -0.1981 -0.5187
  133OSM   H15A14359   1.711   5.849   6.117 -1.5800  0.3768  0.5482
  133OSM   H15B14360   1.693   5.750   6.262  0.0726  0.6595 -0.5440
  133OSM   H15C14361   1.616   5.701   6.115 -0.1618 -2.5070  2.7978
  133OSM    C1414362   1.871   5.745   5.994 -0.4931 -0.2145  0.6621
  133OSM   H14A14363   1.965   5.703   5.961 -0.2327  1.4855 -0.8692
  133OSM   H14B14364   1.865   5.852   6.003  0.0820 -0.2784  2.2550
  133OSM   H14C14365   1.801   5.708   5.921 -0.2538  0.5036  0.0669
  133OSM    C1314366   1.943   5.740   6.226  0.1988  0.0165  0.6900
  133OSM   H13A14367   1.905   5.761   6.324  0.5910  2.4810  0.3645
  133OSM   H13B14368   1.995   5.819   6.174 -1.0554 -0.5218 -1.5446
  133OSM   H13C14369   2.022   5.667   6.240  0.6542  0.1762 -0.8689
  133OSM    C1214370   1.835   5.532   6.122 -0.5054 -0.1138 -0.5953
  133OSM   H12A14371   1.745   5.507   6.067 -1.6816  0.2698  1.0681
  133OSM   H12B14372   1.814   5.500   6.223  0.9459  1.5220  0.2706
  133OSM    C1114373   1.961   5.463   6.067 -0.2326 -0.1325 -0.1152
  133OSM   H11A14374   1.959   5.491   5.959 -2.5909 -0.8131 -0.2902
  133OSM   H11B14375   1.942   5.354   6.063  0.3252 -0.1988 -2.2306
  133OSM      P14376   2.115   5.393   6.257 -0.4143  0.2973 -0.2052
  133OSM    O1314377   2.211   5.455   6.353  0.0478  0.0797  0.7099
  133OSM    O1414378   1.990   5.331   6.304  0.7108  0.3993 -0.8003
  133OSM    O1114379   2.190   5.284   6.163 -0.1470 -0.5345 -0.2069
  133OSM    O1214380   2.081   5.496   6.141 -0.4860 -0.3516  0.0085
  133OSM    C1S14381   2.327   5.297   6.132 -0.2348  0.0135  0.3584
  133OSM    H1S14382   2.386   5.252   6.215 -1.7195 -1.9435  0.4116
  133OSM    H1T14383   2.364   5.399   6.109  0.4683 -0.2515  0.2865
  133OSM     NF14384   2.499   5.174   5.992 -0.5448  0.8216  0.2282
  133OSM    HNF14385   2.558   5.212   5.921 -0.5302 -0.7552 -0.6376
  133OSM    C2S14386   2.359   5.208   5.998  0.1359 -0.4555  0.5308
  133OSM    H2S14387   2.302   5.113   6.009 -1.1446  0.1404 -0.6578
  133OSM    C3S14388   2.302   5.272   5.870 -0.6102  0.2891 -0.7410
  133OSM    H3S14389   2.356   5.368   5.858  3.6451 -1.0345  3.8167
  133OSM     O314390   2.165   5.297   5.890  0.5196  0.0653 -0.1601
  133OSM    HO314391   2.157   5.292   5.986 -0.9321  0.7310 -0.2304
  133OSM    C4S14392   2.307   5.190   5.751  1.2055  0.4569 -0.2454
  133OSM    H4S14393   2.224   5.119   5.758  0.8904  0.5467 -2.2795
  133OSM    C5S14394   2.376   5.219   5.641  0.0316 -0.5472  0.5091
  133OSM    H5S14395   2.436   5.311   5.645 -1.0111  0.1514  0.6879
  133OSM    C6S14396   2.360   5.154   5.505  0.3542 -0.0241 -0.1309
  133OSM    H6S14397   2.337   5.045   5.513  2.0240 -0.5809 -1.9749
  133OSM    H6T14398   2.458   5.158   5.453 -0.3998 -1.6895 -1.7903
  133OSM    C7S14399   2.267   5.235   5.415  0.3491  0.1305 -0.2749
  133OSM    H7S14400   2.161   5.241   5.449  0.4288  0.3915 -0.0756
  133OSM    H7T14401   2.256   5.190   5.314  0.7565 -1.2068  0.2561
  133OSM    C8S14402   2.307   5.383   5.393  0.5544  0.1970 -0.6138
  133OSM    H8S14403   2.415   5.394   5.366  0.9572  1.2111  1.2237
  133OSM    H8T14404   2.299   5.433   5.492  1.0855  0.0205 -0.4782
  133OSM    C9S14405   2.206   5.456   5.304 -0.3481 -0.1074  0.5512
  133OSM    H9S14406   2.229   5.564   5.313  2.4502 -0.3904 -1.6270
  133OSM    H9T14407   2.102   5.431   5.335 -0.2972 -1.1969 -0.0835
  133OSM   C10S14408   2.247   5.434   5.159  0.3752 -0.0758 -0.1975
  133OSM   H10S14409   2.236   5.325   5.136 -0.4213  0.2310 -1.3646
  133OSM   H10T14410   2.352   5.460   5.132  0.1037 -0.6781 -2.0131
  133OSM   C11S14411   2.153   5.495   5.051 -0.4884 -0.9070 -0.1290
  133OSM   H11S14412   2.152   5.606   5.057 -1.6429 -0.9084 -0.1144
  133OSM   H11T14413   2.051   5.458   5.072 -0.2836 -1.0579  0.6255
  133OSM   C12S14414   2.186   5.459   4.906  0.4857 -0.3918 -0.7966
  133OSM   H12S14415   2.116   5.379   4.877 -0.6899  1.0541 -2.0879
  133OSM   H12T14416   2.289   5.418   4.897  0.4592  0.0152 -4.9783
  133OSM   C13S14417   2.159   5.574   4.811  0.2530  1.0264  0.2927
  133OSM   H13S14418   2.152   5.674   4.861 -1.2243  2.0305 -1.7747
  133OSM   H13T14419   2.058   5.555   4.771  0.0923  0.7769  0.8099
  133OSM   C14S14420   2.260   5.593   4.704 -0.9464  0.2457 -0.2908
  133OSM   H14S14421   2.357   5.576   4.755 -2.5613 -2.5000  2.1932
  133OSM   H14T14422   2.257   5.691   4.651  0.7881  0.3383 -0.2836
  133OSM   C15S14423   2.225   5.499   4.596  0.2862  0.2012  0.1956
  133OSM   H15S14424   2.146   5.546   4.534 -0.6979  0.4673  1.6053
  133OSM   H15T14425   2.181   5.400   4.622  2.1896 -1.5398 -2.5965
  133OSM   C16S14426   2.342   5.464   4.505 -0.0545 -0.2293  0.6054
  133OSM   H16S14427   2.309   5.386   4.434  2.2536  0.5645 -1.4881
  133OSM   H16T14428   2.415   5.411   4.570  2.1545 -0.8751 -2.2184
  133OSM   C17S14429   2.424   5.595   4.447  0.3051 -0.2153  0.2909
  133OSM   H17S14430   2.523   5.555   4.419  0.0770 -0.1701 -0.6074
  133OSM   H17T14431   2.430   5.667   4.532 -0.1723 -1.3730  1.3430
  133OSM   C18S14432   2.369   5.663   4.320  0.2080 -0.0732  0.3185
  133OSM   H18S14433   2.267   5.700   4.341 -0.1425 -0.4433 -0.6479
  133OSM   H18T14434   2.362   5.593   4.234 -0.6770  0.1152  0.2291
  133OSM   H18U14435   2.432   5.751   4.294  1.3048 -1.6193 -2.8166
  133OSM    C1F14436   2.544   5.077   6.073  0.0986  0.8421  0.3977
  133OSM     OF14437   2.470   5.023   6.157 -0.5951  0.0977  0.1868
  133OSM    C2F14438   2.689   5.060   6.066 -0.1383 -0.4424 -0.6695
  133OSM    H2F14439   2.704   4.983   6.144  0.3141  1.7306  1.4992
  133OSM    H2G14440   2.749   5.149   6.094 -1.2084  0.7330 -1.9263
  133OSM    C3F14441   2.733   5.000   5.930  0.4012 -0.6894  0.3148
  133OSM    H3F14442   2.841   4.977   5.928  1.8473  4.1678  3.6517
  133OSM    H3G14443   2.711   5.077   5.853 -0.3895  0.0122  1.2071
  133OSM    C4F14444   2.664   4.861   5.888 -0.3276  0.0568  0.3858
  133OSM    H4F14445   2.564   4.842   5.932  0.5684 -1.9555  1.7245
  133OSM    H4G14446   2.722   4.784   5.944  1.3562 -0.5457 -2.0283
  133OSM    C5F14447   2.670   4.848   5.735  0.6226 -0.0214  0.2397
  133OSM    H5F14448   2.590   4.911   5.689  0.1604 -0.1751  0.8296
  133OSM    H5G14449   2.645   4.742   5.714  2.4363 -0.5690  0.6361
  133OSM    C6F14450   2.810   4.873   5.679 -0.1786  0.8411  0.1527
  133OSM    H6F14451   2.886   4.831   5.749 -1.1311 -0.7168  0.3021
  133OSM    H6G14452   2.830   4.981   5.661 -3.0419  1.2401 -1.1716
  133OSM    C7F14453   2.820   4.810   5.540  0.0790 -0.2274  0.8902
  133OSM    H7F14454   2.806   4.700   5.547  0.0053 -0.1377  3.0517
  133OSM    H7G14455   2.924   4.821   5.502  0.3379 -0.4460  1.5195
  133OSM    C8F14456   2.731   4.888   5.439  0.0147  0.7946  0.0821
  133OSM    H8F14457   2.781   4.985   5.414 -0.2742  1.1219  0.7576
  133OSM    H8G14458   2.624   4.895   5.468 -0.3280 -0.5773 -0.7852
  133OSM    C9F14459   2.724   4.811   5.305  0.3651 -0.1386  0.2872
  133OSM    H9F14460   2.819   4.791   5.254  0.0636 -0.4456 -0.1567
  133OSM   C10F14461   2.619   4.764   5.234 -0.4258 -0.2297 -0.5911
  133OSM   H10F14462   2.625   4.708   5.140  0.2001 -3.0416  1.0341
  133OSM   C11F14463   2.478   4.788   5.277 -0.0078  0.1706  0.1483
  133OSM   H11F14464   2.458   4.777   5.386  0.2417  0.4472  0.2237
  133OSM   H11G14465   2.405   4.720   5.229 -0.2708  1.6442 -1.6129
  133OSM   C12F14466   2.424   4.933   5.257 -0.5191  0.0327 -0.0908
  133OSM   H12F14467   2.490   5.015   5.294  1.8044 -0.0777 -3.5080
  133OSM   H12G14468   2.326   4.956   5.304  0.7873  1.3476  2.1899
  133OSM   C13F14469   2.390   4.947   5.106 -0.1581  0.1371  0.1197
  133OSM   H13F14470   2.325   4.864   5.071  0.7419 -0.0716 -1.1547
  133OSM   H13G14471   2.487   4.927   5.054 -0.0979 -3.8630  1.4342
  133OSM   C14F14472   2.319   5.078   5.074 -0.0007  0.1266 -0.0595
  133OSM   H14F14473   2.369   5.169   5.113  2.1720 -1.2197  0.3950
  133OSM   H14G14474   2.223   5.071   5.130 -0.0086  1.0312  0.0622
  133OSM   C15F14475   2.272   5.094   4.930 -0.3996 -0.0200 -0.4258
  133OSM   H15F14476   2.202   5.176   4.904  3.4601  2.9489 -2.4893
  133OSM   H15G14477   2.218   5.005   4.891 -3.5572  1.9061 -0.8006
  133OSM   C16F14478   2.392   5.108   4.825 -0.4803  0.0651  0.6665
  133OSM   H16F14479   2.458   5.018   4.822  0.1514  0.3884  2.9872
  133OSM   H16G14480   2.462   5.187   4.860  1.6150 -1.5069  0.2089
  133OSM   C17F14481   2.335   5.154   4.692  0.0134  0.5768 -0.3152
  133OSM   H17F14482   2.414   5.164   4.615 -0.9580  0.0190 -1.4388
  133OSM   H17G14483   2.301   5.258   4.707  0.4759  0.8838 -1.3005
  133OSM   C18F14484   2.226   5.065   4.631 -0.3079 -0.0197 -0.2915
  133OSM   H18F14485   2.221   5.072   4.520  2.4460 -0.3861 -0.5173
  133OSM   H18G14486   2.123   5.077   4.672 -0.5568 -2.0526 -0.2265
  133OSM   H18H14487   2.252   4.958   4.643  1.6106  0.6115  1.8966
  134OSM      N14488   1.659   2.724   6.232 -0.7080  0.1865 -0.7570
  134OSM    C1514489   1.698   2.850   6.304  0.1341  0.2045  0.2555
  134OSM   H15A14490   1.757   2.914   6.239 -1.1480  2.0736  0.8396
  134OSM   H15B14491   1.753   2.837   6.397 -1.2378  1.2172  1.2640
  134OSM   H15C14492   1.611   2.909   6.327  2.6831  3.8548  1.5785
  134OSM    C1414493   1.599   2.765   6.103 -0.2099 -0.0350  0.4298
  134OSM   H14A14494   1.530   2.841   6.135 -1.2402 -0.9008  0.3602
  134OSM   H14B14495   1.562   2.677   6.051  0.4204 -0.2950  0.4121
  134OSM   H14C14496   1.677   2.805   6.040  1.7792 -1.5782  1.7890
  134OSM    C1314497   1.774   2.636   6.219 -0.0764  0.2673  0.0289
  134OSM   H13A14498   1.839   2.659   6.135  0.8670  1.4826  1.0604
  134OSM   H13B14499   1.747   2.537   6.187 -0.8059 -0.1449  1.8177
  134OSM   H13C14500   1.826   2.621   6.312 -2.1073  0.3924  1.2454
  134OSM    C1214501   1.561   2.640   6.322  0.1352  0.2511 -0.0449
  134OSM   H12A14502   1.479   2.702   6.355  0.4875  0.0916  1.1642
  134OSM   H12B14503   1.615   2.609   6.410  1.2410 -0.6778 -1.0105
  134OSM    C1114504   1.505   2.511   6.260  0.4208 -0.7840 -0.3801
  134OSM   H11A14505   1.429   2.467   6.328 -3.2375  0.1626 -3.4626
  134OSM   H11B14506   1.581   2.430   6.263 -0.7085 -1.9060 -0.9415
  134OSM      P14507   1.297   2.533   6.099  0.3127  0.2694  0.0650
  134OSM    O1314508   1.234   2.407   6.146  0.1764 -0.3085 -0.0789
  134OSM    O1414509   1.234   2.661   6.139 -0.3209  0.5168 -0.1120
  134OSM    O1114510   1.311   2.531   5.937  0.7588  0.6404 -0.3515
  134OSM    O1214511   1.449   2.529   6.129  0.2539  0.0266 -1.0186
  134OSM    C1S14512   1.206   2.574   5.847 -0.4772  0.4736 -0.3744
  134OSM    H1S14513   1.109   2.532   5.883 -0.0935 -0.7192 -0.6952
  134OSM    H1T14514   1.224   2.536   5.744 -0.7985  0.6829 -0.5113
  134OSM     NF14515   1.106   2.755   5.722  0.2689 -0.3953 -0.0831
  134OSM    HNF14516   1.135   2.753   5.626  0.4247 -1.6679 -0.0338
  134OSM    C2S14517   1.198   2.731   5.834  0.9104  0.5045 -0.2114
  134OSM    H2S14518   1.162   2.777   5.928 -0.2757 -2.0370  0.6621
  134OSM    C3S14519   1.345   2.790   5.800  1.0474 -0.3545  0.0196
  134OSM    H3S14520   1.411   2.776   5.888  2.0924 -1.2680 -0.8838
  134OSM     O314521   1.338   2.933   5.794 -0.0178 -0.0837 -0.3872
  134OSM    HO314522   1.248   2.948   5.824 -1.4524 -4.4881 -1.6987
  134OSM    C4S14523   1.411   2.722   5.679  0.5529 -0.2388 -0.0802
  134OSM    H4S14524   1.481   2.647   5.718  0.6180 -0.3007 -0.3150
  134OSM    C5S14525   1.408   2.756   5.548 -0.2343  0.4067 -0.2127
  134OSM    H5S14526   1.340   2.833   5.509 -0.2299  1.2555  1.3853
  134OSM    C6S14527   1.480   2.678   5.444 -0.0304 -0.2736  0.1192
  134OSM    H6S14528   1.424   2.691   5.348 -0.2189  1.2924  0.4038
  134OSM    H6T14529   1.483   2.573   5.478 -1.8494 -0.3130  0.2567
  134OSM    C7S14530   1.617   2.741   5.428  0.1586  0.3946  0.2488
  134OSM    H7S14531   1.676   2.741   5.522  0.4124 -2.5895  0.1845
  134OSM    H7T14532   1.594   2.847   5.405  0.1504  0.5567  0.9806
  134OSM    C8S14533   1.696   2.697   5.299 -0.0880  0.6561 -0.3781
  134OSM    H8S14534   1.739   2.594   5.308 -1.4971  0.2053  1.8630
  134OSM    H8T14535   1.780   2.769   5.298 -0.0059  0.5604 -1.1360
  134OSM    C9S14536   1.613   2.700   5.167 -0.6173  0.6669  0.4659
  134OSM    H9S14537   1.531   2.775   5.172 -1.3279 -0.0493 -0.2545
  134OSM    H9T14538   1.567   2.600   5.154  0.7174 -0.0360  0.9745
  134OSM   C10S14539   1.709   2.738   5.053  0.2262 -1.1896  0.1577
  134OSM   H10S14540   1.794   2.668   5.061  2.1828  1.0631  0.1039
  134OSM   H10T14541   1.744   2.841   5.076 -0.8937 -1.1375  1.7654
  134OSM   C11S14542   1.645   2.721   4.912  0.0776  1.1358  0.0920
  134OSM   H11S14543   1.545   2.768   4.895 -0.9391 -0.7789  0.4772
  134OSM   H11T14544   1.640   2.611   4.897  1.1915  1.0265  0.4187
  134OSM   C12S14545   1.738   2.767   4.794 -0.0757  0.0109  0.3568
  134OSM   H12S14546   1.826   2.699   4.787  0.9187  1.2574  0.3294
  134OSM   H12T14547   1.772   2.870   4.817 -0.3060  0.5601 -1.5940
  134OSM   C13S14548   1.659   2.776   4.661 -0.4185  0.0297 -0.3558
  134OSM   H13S14549   1.565   2.827   4.693  0.5258 -0.4682  3.9460
  134OSM   H13T14550   1.631   2.672   4.637  0.9001 -0.3432 -0.3510
  134OSM   C14S14551   1.740   2.850   4.552  0.3620  0.4785  0.5719
  134OSM   H14S14552   1.827   2.794   4.514 -0.8830 -0.4911 -0.9585
  134OSM   H14T14553   1.790   2.939   4.596  0.1251  0.9653 -0.1165
  134OSM   C15S14554   1.648   2.899   4.439  0.3831  0.4688 -0.9511
  134OSM   H15S14555   1.713   2.934   4.355  0.7731  1.4059 -0.2824
  134OSM   H15T14556   1.580   2.980   4.472 -3.0412 -2.2576 -0.7392
  134OSM   C16S14557   1.556   2.786   4.380  0.4133  0.0852  0.9420
  134OSM   H16S14558   1.458   2.788   4.432 -0.3998  2.7550 -0.5709
  134OSM   H16T14559   1.611   2.690   4.395 -1.0872 -0.6411  2.0446
  134OSM   C17S14560   1.537   2.806   4.231  0.1255 -0.2413 -0.6820
  134OSM   H17S14561   1.628   2.826   4.171  0.4290  1.2973  0.2524
  134OSM   H17T14562   1.477   2.899   4.223  1.0439  0.4645  0.4741
  134OSM   C18S14563   1.457   2.699   4.159  0.0067 -0.1280  0.0688
  134OSM   H18S14564   1.442   2.725   4.052  3.7498  0.2518 -0.5001
  134OSM   H18T14565   1.361   2.688   4.214  0.4354 -2.5795  0.4414
  134OSM   H18U14566   1.511   2.602   4.166  1.2590  0.5918  0.7914
  134OSM    C1F14567   0.983   2.757   5.748 -0.1730 -0.0426 -1.0017
  134OSM     OF14568   0.931   2.720   5.856 -0.7036 -0.0794  0.1978
  134OSM    C2F14569   0.892   2.803   5.640 -0.7239 -0.6245  0.4654
  134OSM    H2F14570   0.821   2.877   5.681  0.6796  0.6540  0.7033
  134OSM    H2G14571   0.832   2.715   5.608  0.7326 -1.2655 -0.6751
  134OSM    C3F14572   0.964   2.858   5.513  0.0281 -0.0162 -1.0835
  134OSM    H3F14573   1.020   2.952   5.534 -1.1728  0.8955 -1.8393
  134OSM    H3G14574   0.878   2.900   5.457 -1.7264  0.2476  1.6351
  134OSM    C4F14575   1.046   2.764   5.421 -0.1581  0.1297  0.0797
  134OSM    H4F14576   0.967   2.700   5.376 -0.6318  0.8525 -0.1237
  134OSM    H4G14577   1.113   2.697   5.479  0.7647  1.5070  0.6647
  134OSM    C5F14578   1.132   2.834   5.312 -0.2996  0.5718  0.0637
  134OSM    H5F14579   1.218   2.769   5.285  0.1380  1.0174  0.3594
  134OSM    H5G14580   1.195   2.923   5.334  2.2912 -1.0320 -0.5587
  134OSM    C6F14581   1.049   2.873   5.196  0.1537  0.4072 -0.7437
  134OSM    H6F14582   0.976   2.949   5.232  2.4469  2.7604 -0.8210
  134OSM    H6G14583   0.991   2.787   5.155 -3.7427  2.5662 -0.3207
  134OSM    C7F14584   1.131   2.938   5.078  0.2152  0.4240  0.6028
  134OSM    H7F14585   1.210   2.866   5.047 -0.3075  0.8232 -1.8295
  134OSM    H7G14586   1.170   3.038   5.107 -2.6406  1.2963  1.7616
  134OSM    C8F14587   1.039   2.978   4.952  0.1812 -0.4700  0.4157
  134OSM    H8F14588   1.100   3.052   4.897 -0.6105 -1.8823 -2.5738
  134OSM    H8G14589   0.947   3.033   4.981 -0.5831 -1.1207 -0.6903
  134OSM    C9F14590   0.990   2.876   4.856 -0.4808 -0.4894  0.0341
  134OSM    H9F14591   0.887   2.853   4.885 -0.9194  0.4654 -0.7051
  134OSM   C10F14592   1.059   2.820   4.760  0.1251  0.0751  0.0779
  134OSM   H10F14593   0.997   2.767   4.686 -0.2721  1.5755 -0.7265
  134OSM   C11F14594   1.195   2.859   4.724  0.3963 -0.0240 -0.3081
  134OSM   H11F14595   1.263   2.781   4.766  0.8031 -0.5359 -1.8260
  134OSM   H11G14596   1.228   2.959   4.759 -0.7570  1.3776 -2.9386
  134OSM   C12F14597   1.212   2.865   4.575  0.0135 -0.4761 -0.0867
  134OSM   H12F14598   1.193   2.768   4.523 -0.4107 -0.1288 -0.5829
  134OSM   H12G14599   1.321   2.870   4.551 -0.4433 -1.5462 -2.8527
  134OSM   C13F14600   1.138   2.988   4.519  0.0070 -0.0635  0.3949
  134OSM   H13F14601   1.173   3.070   4.585 -2.1173  0.8365  0.4859
  134OSM   H13G14602   1.031   2.965   4.538 -0.0878 -1.3935 -1.4533
  134OSM   C14F14603   1.165   2.998   4.370  0.3760 -0.3219  0.3134
  134OSM   H14F14604   1.124   2.906   4.323 -1.4764  1.0216 -0.8479
  134OSM   H14G14605   1.272   3.009   4.342  0.0768 -0.0265 -0.7467
  134OSM   C15F14606   1.102   3.130   4.304 -0.5590 -0.4388  0.2588
  134OSM   H15F14607   1.124   3.225   4.357  1.8074 -0.0814 -1.1818
  134OSM   H15G14608   0.992   3.130   4.319 -0.6105 -0.2709 -0.1115
  134OSM   C16F14609   1.127   3.148   4.151  0.1153  0.5129  0.1069
  134OSM   H16F14610   1.097   3.050   4.109 -2.2450  1.7354 -1.2301
  134OSM   H16G14611   1.236   3.154   4.129 -0.2415 -1.3749 -2.5891
  134OSM   C17F14612   1.054   3.262   4.096 -0.2685 -1.0711 -0.0254
  134OSM   H17F14613   1.072   3.351   4.160 -2.7245 -1.4527  1.3014
  134OSM   H17G14614   0.948   3.229   4.101 -0.5675 -0.9970 -3.4292
  134OSM   C18F14615   1.101   3.285   3.954 -0.4144 -0.6686  0.1388
  134OSM   H18F14616   1.211   3.299   3.950 -0.6461  1.1748 -1.1792
  134OSM   H18G14617   1.059   3.376   3.906 -0.5086 -1.4655 -1.3483
  134OSM   H18H14618   1.085   3.200   3.883 -0.7980  1.5067 -2.5352
  135OSM      N14619   2.524   2.489   6.453 -0.2411 -0.0649 -0.5666
  135OSM    C1514620   2.654   2.568   6.452  1.0379 -0.2167 -0.1211
  135OSM   H15A14621   2.673   2.594   6.555  1.6770 -1.8840  0.2196
  135OSM   H15B14622   2.644   2.655   6.389 -0.3116 -0.5408 -0.3852
  135OSM   H15C14623   2.740   2.515   6.413  1.4049  0.9726 -0.9587
  135OSM    C1414624   2.494   2.466   6.309  0.0422 -0.1694 -0.7170
  135OSM   H14A14625   2.476   2.565   6.271  1.8406  0.7957  0.8020
  135OSM   H14B14626   2.399   2.414   6.298 -0.3712  0.3822  0.1275
  135OSM   H14C14627   2.558   2.400   6.253 -0.0896 -0.8869 -0.0445
  135OSM    C1314628   2.536   2.360   6.531 -0.5082 -0.3045 -0.1264
  135OSM   H13A14629   2.563   2.370   6.635  0.3778  2.3802 -0.5392
  135OSM   H13B14630   2.610   2.297   6.485  0.9015  1.2782 -0.1217
  135OSM   H13C14631   2.441   2.308   6.525 -0.7179  0.1251 -0.6150
  135OSM    C1214632   2.409   2.564   6.512  0.2731  0.8398  0.6897
  135OSM   H12A14633   2.426   2.568   6.618  1.4432 -0.5742  0.5827
  135OSM   H12B14634   2.320   2.502   6.515  1.6593 -1.2031  2.9379
  135OSM    C1114635   2.373   2.699   6.446 -0.3818 -0.4172  0.2273
  135OSM   H11A14636   2.465   2.757   6.424  0.7012 -1.6631  1.2725
  135OSM   H11B14637   2.312   2.752   6.522 -1.6754 -3.0080  1.1256
  135OSM      P14638   2.140   2.663   6.326 -0.1142  0.2526 -0.6084
  135OSM    O1314639   2.103   2.548   6.410  0.5045 -0.0407  0.4193
  135OSM    O1414640   2.087   2.792   6.378 -0.0280  0.0401 -0.3552
  135OSM    O1114641   2.101   2.642   6.170  0.1043 -0.4604 -0.0488
  135OSM    O1214642   2.299   2.675   6.325 -0.1576  0.0496 -0.2942
  135OSM    C1S14643   2.169   2.547   6.083 -0.5532 -0.1187 -0.6351
  135OSM    H1S14644   2.168   2.447   6.131 -0.0585  0.0246 -0.3243
  135OSM    H1T14645   2.270   2.585   6.057 -0.1284  2.0574  3.4194
  135OSM     NF14646   2.184   2.431   5.872  0.3170  0.1786  0.5187
  135OSM    HNF14647   2.256   2.465   5.811 -1.4474  0.6703 -1.4319
  135OSM    C2S14648   2.104   2.527   5.942 -0.0131  0.2133  0.1891
  135OSM    H2S14649   2.001   2.491   5.963 -0.4008  1.3003  0.2157
  135OSM    C3S14650   2.096   2.664   5.867  0.1031  0.5582 -0.1350
  135OSM    H3S14651   2.198   2.705   5.853 -0.2997  1.9769  0.8300
  135OSM     O314652   2.031   2.756   5.950  0.2137  0.4578 -0.6470
  135OSM    HO314653   2.054   2.730   6.039 -1.3595  2.8565  0.5581
  135OSM    C4S14654   2.039   2.677   5.729 -0.4381  0.4547 -0.3958
  135OSM    H4S14655   1.930   2.674   5.717 -0.4377 -0.0284 -0.3125
  135OSM    C5S14656   2.103   2.713   5.621 -0.7526  0.1643  0.1106
  135OSM    H5S14657   2.213   2.720   5.616 -0.5167 -2.4678  0.0654
  135OSM    C6S14658   2.032   2.738   5.491  0.1263  0.3351  0.0247
  135OSM    H6S14659   1.958   2.820   5.496 -0.5162  0.0270 -2.6891
  135OSM    H6T14660   1.973   2.652   5.452  1.3680 -0.0360 -1.1244
  135OSM    C7S14661   2.128   2.781   5.378  0.2692  0.8885  0.3781
  135OSM    H7S14662   2.208   2.711   5.349 -0.1783  0.9284 -1.0195
  135OSM    H7T14663   2.171   2.883   5.389  0.6840  0.6962  0.5371
  135OSM    C8S14664   2.048   2.806   5.243 -0.1882  0.1110  0.0273
  135OSM    H8S14665   1.977   2.890   5.259  0.3063  0.6529 -0.5720
  135OSM    H8T14666   1.991   2.718   5.207 -0.2914 -0.2635  1.0769
  135OSM    C9S14667   2.139   2.854   5.126  0.0091 -0.2255  0.0684
  135OSM    H9S14668   2.221   2.779   5.114 -0.6373 -0.8600 -0.4421
  135OSM    H9T14669   2.177   2.958   5.140  1.3984 -0.8945  1.7438
  135OSM   C10S14670   2.066   2.846   4.999  0.0061  0.0644  0.0958
  135OSM   H10S14671   1.973   2.906   5.008  0.2908  0.4646  0.4083
  135OSM   H10T14672   2.035   2.744   4.969  1.9823 -0.4975 -0.1571
  135OSM   C11S14673   2.150   2.904   4.882 -0.0397  0.0679  0.3364
  135OSM   H11S14674   2.239   2.839   4.864  0.1523  0.0888  1.1608
  135OSM   H11T14675   2.183   3.005   4.917 -0.7557  0.5433 -0.3380
  135OSM   C12S14676   2.072   2.920   4.743 -0.1264 -0.2713  0.0497
  135OSM   H12S14677   2.007   3.010   4.745 -0.8706 -0.8089  0.1649
  135OSM   H12T14678   2.013   2.832   4.711  1.7785 -1.3714 -0.6334
  135OSM   C13S14679   2.179   2.930   4.631 -0.1741  0.3693  0.1890
  135OSM   H13S14680   2.268   2.864   4.644 -0.0190  0.0967 -1.8629
  135OSM   H13T14681   2.231   3.027   4.651  0.3693 -0.2088  1.6959
  135OSM   C14S14682   2.127   2.918   4.489 -0.1263  0.8581  1.1252
  135OSM   H14S14683   2.049   2.991   4.459 -1.1338 -0.0172  1.5438
  135OSM   H14T14684   2.077   2.821   4.472  0.5017  0.4511  1.5365
  135OSM   C15S14685   2.244   2.927   4.379  0.7560  0.1202 -0.2414
  135OSM   H15S14686   2.314   2.845   4.408 -0.2413 -0.3594  0.9550
  135OSM   H15T14687   2.304   3.020   4.377  0.1630  0.5699  1.2840
  135OSM   C16S14688   2.182   2.882   4.245 -0.0091 -0.3430 -0.2860
  135OSM   H16S14689   2.097   2.947   4.213  2.0864  2.0626 -1.3516
  135OSM   H16T14690   2.137   2.781   4.246 -0.8744  0.0278  0.9349
  135OSM   C17S14691   2.284   2.881   4.134 -0.8420 -0.1151  0.6197
  135OSM   H17S14692   2.375   2.822   4.156 -2.1060 -1.9540  1.1751
  135OSM   H17T14693   2.328   2.983   4.126 -0.6187 -0.2923 -0.6154
  135OSM   C18S14694   2.241   2.826   4.001 -0.2610  0.0443 -0.2262
  135OSM   H18S14695   2.318   2.789   3.931 -1.4156 -0.4324 -1.2885
  135OSM   H18T14696   2.177   2.901   3.949  0.4194 -0.4757 -1.8490
  135OSM   H18U14697   2.181   2.735   4.022  1.9444 -1.3010  0.5535
  135OSM    C1F14698   2.169   2.302   5.896 -0.4171 -0.5616  0.1045
  135OSM     OF14699   2.083   2.260   5.975  0.0027  0.2961  0.9762
  135OSM    C2F14700   2.259   2.211   5.826 -0.7452 -0.4240 -0.4271
  135OSM    H2F14701   2.356   2.262   5.808 -0.0070 -1.6651 -0.0966
  135OSM    H2G14702   2.214   2.197   5.725 -1.8567 -0.1700  0.0233
  135OSM    C3F14703   2.286   2.075   5.900 -0.1177  0.8970  0.3326
  135OSM    H3F14704   2.192   2.044   5.952  0.1500  0.7461  0.7339
  135OSM    H3G14705   2.353   2.106   5.983  0.2670  0.2622  0.2635
  135OSM    C4F14706   2.345   1.962   5.815  0.9061  0.3195  0.4765
  135OSM    H4F14707   2.382   1.877   5.877  1.5575  0.0323 -0.2979
  135OSM    H4G14708   2.266   1.923   5.748  1.5167 -1.1501  0.5633
  135OSM    C5F14709   2.461   1.993   5.717  0.5630  0.0356 -0.5379
  135OSM    H5F14710   2.551   1.989   5.782  1.0033  1.1825 -1.0554
  135OSM    H5G14711   2.464   2.098   5.682  3.6814  0.0217 -0.5409
  135OSM    C6F14712   2.477   1.880   5.609  0.3688 -0.5767  0.0810
  135OSM    H6F14713   2.563   1.902   5.541 -0.1424  4.6311  0.7243
  135OSM    H6G14714   2.393   1.884   5.537  1.4185 -0.2436 -1.1722
  135OSM    C7F14715   2.496   1.736   5.658 -0.8123  0.2575 -0.3098
  135OSM    H7F14716   2.404   1.687   5.696  0.4515 -1.5250  0.6248
  135OSM    H7G14717   2.551   1.743   5.755 -2.2830 -2.6553  0.8581
  135OSM    C8F14718   2.574   1.643   5.564 -0.3571 -0.0842 -0.6844
  135OSM    H8F14719   2.621   1.570   5.634 -1.0753  1.5091  1.6071
  135OSM    H8G14720   2.656   1.706   5.522 -0.1371  0.4623  0.5158
  135OSM    C9F14721   2.496   1.572   5.452  0.6083  0.6381 -0.6295
  135OSM    H9F14722   2.435   1.483   5.473 -1.4271  1.9166 -0.8437
  135OSM   C10F14723   2.490   1.629   5.328  0.7894  0.6318  0.3372
  135OSM   H10F14724   2.454   1.562   5.248  1.0496 -1.3845  1.8174
  135OSM   C11F14725   2.550   1.755   5.274  0.1459  0.9352  0.3955
  135OSM   H11F14726   2.641   1.731   5.215  0.1386 -1.4176  1.2417
  135OSM   H11G14727   2.584   1.821   5.357  1.1363  3.8380 -2.1214
  135OSM   C12F14728   2.466   1.837   5.174 -0.5094  0.5399  0.0810
  135OSM   H12F14729   2.513   1.936   5.159  1.1408 -0.2434 -0.1435
  135OSM   H12G14730   2.366   1.852   5.221 -0.2660  1.6187  0.2724
  135OSM   C13F14731   2.440   1.751   5.048  0.5256 -0.4554 -0.5370
  135OSM   H13F14732   2.378   1.821   4.987 -1.0246 -1.2026  0.1054
  135OSM   H13G14733   2.369   1.675   5.087 -0.8387  0.4811 -1.0951
  135OSM   C14F14734   2.553   1.687   4.966  0.6408  0.3094 -0.3987
  135OSM   H14F14735   2.617   1.627   5.034 -1.2756 -1.0415  0.3101
  135OSM   H14G14736   2.617   1.764   4.918  1.5527  0.2930  0.7493
  135OSM   C15F14737   2.498   1.597   4.851 -0.7248  0.2451 -0.2878
  135OSM   H15F14738   2.445   1.506   4.888  0.4417 -0.1156  0.5448
  135OSM   H15G14739   2.593   1.565   4.804  0.5078  1.0045  1.5586
  135OSM   C16F14740   2.410   1.677   4.754  0.5174  0.2352 -0.0643
  135OSM   H16F14741   2.479   1.761   4.729  2.1880 -0.2791  2.4308
  135OSM   H16G14742   2.324   1.720   4.810  2.6915  3.0188  1.3995
  135OSM   C17F14743   2.363   1.588   4.642  0.1130  0.4779  0.2951
  135OSM   H17F14744   2.281   1.644   4.593  1.0016  1.0704 -0.5480
  135OSM   H17G14745   2.321   1.492   4.679  0.1041  0.7628  1.0378
  135OSM   C18F14746   2.466   1.554   4.534  0.1195  1.0427 -0.1431
  135OSM   H18F14747   2.503   1.644   4.480  0.0988  1.4567  0.5135
  135OSM   H18G14748   2.424   1.473   4.472 -1.7590  1.2252  0.8236
  135OSM   H18H14749   2.554   1.508   4.583 -0.9795 -0.7749  0.2153
  136OSM      N14750   6.027   3.914   6.289 -0.3967 -0.3609 -0.3529
  136OSM    C1514751   6.055   4.032   6.380  0.4593  0.4611 -0.1493
  136OSM   H15A14752   6.109   4.104   6.321 -2.5533  2.4859 -0.6483
  136OSM   H15B14753   6.098   4.016   6.478 -0.2469 -0.6893 -0.0056
  136OSM   H15C14754   5.963   4.085   6.399 -0.0951 -0.6147  0.2652
  136OSM    C1414755   5.976   3.974   6.161  0.1291 -0.1401 -0.1304
  136OSM   H14A14756   5.896   4.045   6.180  0.8702  0.4543  0.8849
  136OSM   H14B14757   5.948   3.891   6.098  2.8064 -1.2366 -0.0187
  136OSM   H14C14758   6.044   4.037   6.106  0.5901  1.8904  2.5187
  136OSM    C1314759   6.160   3.849   6.264  0.1835 -0.5910  0.3866
  136OSM   H13A14760   6.180   3.783   6.347  1.4296  1.1724  1.5783
  136OSM   H13B14761   6.239   3.922   6.254  1.2102 -1.6566  0.4817
  136OSM   H13C14762   6.156   3.791   6.174  1.5675  1.2125 -0.9278
  136OSM    C1214763   5.926   3.823   6.357 -0.7204 -0.3177  0.5148
  136OSM   H12A14764   5.831   3.874   6.353 -0.9959 -0.9175 -1.2032
  136OSM   H12B14765   5.953   3.793   6.457  2.4252  0.7872  0.1141
  136OSM    C1114766   5.903   3.683   6.285  0.1621 -0.0101 -0.1717
  136OSM   H11A14767   5.822   3.632   6.341 -2.6366  2.1421 -1.9992
  136OSM   H11B14768   5.992   3.618   6.298 -0.7900 -1.1260  0.9947
  136OSM      P14769   5.883   3.581   6.048 -0.3579 -0.2053  0.0404
  136OSM    O1314770   6.024   3.531   6.054 -0.0918  0.2108  0.1749
  136OSM    O1414771   5.789   3.473   6.072  0.3811  0.1291  0.3789
  136OSM    O1114772   5.849   3.645   5.914 -0.0522 -0.1014  0.3059
  136OSM    O1214773   5.852   3.702   6.149  0.5588  0.8722 -0.0513
  136OSM    C1S14774   5.892   3.774   5.875 -0.1277 -0.3466 -0.0315
  136OSM    H1S14775   5.997   3.801   5.898 -0.4433  2.0903 -1.0614
  136OSM    H1T14776   5.829   3.839   5.940 -0.7334 -2.8759  2.0616
  136OSM     NF14777   5.911   3.932   5.698  0.7017 -0.3399  0.3744
  136OSM    HNF14778   5.835   3.997   5.695  0.3966 -0.7045  0.0341
  136OSM    C2S14779   5.860   3.799   5.721 -0.3283 -0.5355 -0.0311
  136OSM    H2S14780   5.919   3.732   5.656  0.5680 -0.5170  0.7414
  136OSM    C3S14781   5.710   3.786   5.689  0.0768 -0.0210 -0.0929
  136OSM    H3S14782   5.650   3.856   5.751 -1.3561 -0.7928 -0.5624
  136OSM     O314783   5.665   3.654   5.721  0.2495 -0.5907 -0.1042
  136OSM    HO314784   5.737   3.617   5.773  0.2551 -0.8001 -0.2602
  136OSM    C4S14785   5.684   3.828   5.545  0.4105 -0.1285 -0.6468
  136OSM    H4S14786   5.645   3.931   5.532 -0.4580 -0.4651 -0.7546
  136OSM    C5S14787   5.680   3.749   5.434 -0.5875 -0.5784 -0.0819
  136OSM    H5S14788   5.694   3.640   5.448 -1.8755 -1.1992 -2.9613
  136OSM    C6S14789   5.659   3.788   5.288  0.3516 -0.3121 -0.1185
  136OSM    H6S14790   5.581   3.717   5.252 -0.3518  1.0434 -1.3266
  136OSM    H6T14791   5.756   3.774   5.236 -0.0283 -1.3835 -0.5697
  136OSM    C7S14792   5.616   3.930   5.261 -0.4630 -0.1684  0.2431
  136OSM    H7S14793   5.701   3.998   5.279 -0.6473  0.7281 -1.9311
  136OSM    H7T14794   5.535   3.957   5.331 -0.5990 -0.3104  0.1414
  136OSM    C8S14795   5.577   3.939   5.116  0.9358 -0.6439 -0.2910
  136OSM    H8S14796   5.526   4.037   5.099  0.7470 -0.8093 -0.6985
  136OSM    H8T14797   5.504   3.857   5.098 -1.9482  1.5069  0.8126
  136OSM    C9S14798   5.697   3.940   5.022 -0.8182  0.3449 -0.2181
  136OSM    H9S14799   5.735   3.837   5.013 -1.7876  0.0530 -1.2379
  136OSM    H9T14800   5.784   3.996   5.063 -0.6566  0.1100 -0.2384
  136OSM   C10S14801   5.660   3.991   4.886 -0.3970 -0.5435  0.4127
  136OSM   H10S14802   5.614   4.092   4.894 -0.9201 -0.4605 -2.5983
  136OSM   H10T14803   5.575   3.931   4.848 -1.5351  0.8265  0.7272
  136OSM   C11S14804   5.775   4.011   4.793 -0.4473 -0.7758 -0.9381
  136OSM   H11S14805   5.822   3.914   4.768 -1.2536 -0.7634 -2.6510
  136OSM   H11T14806   5.850   4.070   4.851  0.5016  0.6022 -3.4038
  136OSM   C12S14807   5.742   4.102   4.676 -0.4652  0.1079  0.6368
  136OSM   H12S14808   5.716   4.198   4.724 -0.1664  0.0455  0.9276
  136OSM   H12T14809   5.658   4.066   4.613  1.2570 -2.1388 -0.5295
  136OSM   C13S14810   5.859   4.122   4.579 -0.9896 -0.0789 -0.5903
  136OSM   H13S14811   5.874   4.028   4.521 -0.6975 -0.4615  0.0992
  136OSM   H13T14812   5.951   4.149   4.634 -1.5164  1.2092 -0.3099
  136OSM   C14S14813   5.822   4.232   4.483 -0.1932  0.7687 -0.1560
  136OSM   H14S14814   5.819   4.330   4.534  0.2859  0.2518  0.9044
  136OSM   H14T14815   5.719   4.205   4.452  0.7482 -1.2791 -1.7542
  136OSM   C15S14816   5.906   4.246   4.354 -0.1177 -0.6114 -0.0736
  136OSM   H15S14817   5.894   4.157   4.289  1.6560 -0.5087 -0.6042
  136OSM   H15T14818   6.014   4.253   4.381 -0.1048 -1.1073  0.0104
  136OSM   C16S14819   5.880   4.372   4.273  0.2178  0.6234 -0.5776
  136OSM   H16S14820   5.960   4.383   4.197  0.2094  1.1070 -0.5222
  136OSM   H16T14821   5.907   4.450   4.348  0.4912 -1.5318  1.6874
  136OSM   C17S14822   5.742   4.388   4.220  0.1946 -0.3032  0.7555
  136OSM   H17S14823   5.675   4.388   4.309 -1.5976  2.3365 -0.4660
  136OSM   H17T14824   5.714   4.310   4.146 -1.9770  2.4470 -1.6047
  136OSM   C18S14825   5.726   4.528   4.152 -0.2367 -0.3925 -0.0503
  136OSM   H18S14826   5.620   4.559   4.154 -0.1204  0.0233 -0.0356
  136OSM   H18T14827   5.761   4.515   4.047 -1.0293 -0.9565 -0.2494
  136OSM   H18U14828   5.792   4.610   4.189  0.9860 -0.8008 -1.2173
  136OSM    C1F14829   6.039   3.969   5.672  0.5346 -0.2582 -0.4238
  136OSM     OF14830   6.137   3.893   5.684  0.4026 -0.5677 -0.0082
  136OSM    C2F14831   6.064   4.102   5.616 -0.3061 -0.1681 -0.6414
  136OSM    H2F14832   6.163   4.133   5.654 -1.4156  1.9144  0.7160
  136OSM    H2G14833   5.993   4.174   5.663  0.5991 -0.7225  1.6570
  136OSM    C3F14834   6.048   4.106   5.468 -0.5725 -0.4185  0.4358
  136OSM    H3F14835   6.047   4.208   5.425  3.0975 -0.8168 -0.9585
  136OSM    H3G14836   5.948   4.069   5.441 -1.0169 -0.2223  1.7172
  136OSM    C4F14837   6.175   4.039   5.398  0.3305 -0.0138 -0.4938
  136OSM    H4F14838   6.190   3.934   5.430  0.1244  0.6166  1.8394
  136OSM    H4G14839   6.262   4.096   5.439  0.0489 -1.0101  1.6355
  136OSM    C5F14840   6.178   4.045   5.241 -0.3825  0.6233  0.2213
  136OSM    H5F14841   6.106   3.967   5.208 -1.5369  2.8745 -3.0773
  136OSM    H5G14842   6.281   4.032   5.201 -0.8812 -1.1784 -0.5919
  136OSM    C6F14843   6.115   4.163   5.177  0.3767 -0.0761  0.3337
  136OSM    H6F14844   6.169   4.254   5.212  2.8945 -0.6048 -1.8359
  136OSM    H6G14845   6.008   4.174   5.204  0.6048  0.7107  0.9569
  136OSM    C7F14846   6.108   4.166   5.026  0.1040  0.4569 -0.2990
  136OSM    H7F14847   6.044   4.249   4.988 -0.8322  0.1934  0.6671
  136OSM    H7G14848   6.048   4.075   5.008 -1.3569  1.7107 -2.2256
  136OSM    C8F14849   6.244   4.168   4.954 -0.5433 -0.5817  0.4146
  136OSM    H8F14850   6.215   4.129   4.854 -1.2216  0.7462  0.0813
  136OSM    H8G14851   6.309   4.093   5.005  1.6285 -0.0813 -1.4149
  136OSM    C9F14852   6.315   4.304   4.971  0.3076 -0.1205  0.3710
  136OSM    H9F14853   6.314   4.341   5.074  1.0447 -0.3933  0.4810
  136OSM   C10F14854   6.364   4.380   4.866  0.6309  0.0165 -0.0406
  136OSM   H10F14855   6.420   4.472   4.891 -1.6473  1.0204  1.6894
  136OSM   C11F14856   6.378   4.342   4.720  0.5032 -0.0540  0.2411
  136OSM   H11F14857   6.351   4.235   4.707 -1.6960  0.5629 -0.8863
  136OSM   H11G14858   6.480   4.355   4.679  0.5208 -2.3703 -0.6512
  136OSM   C12F14859   6.271   4.412   4.624  0.2705  0.7159 -0.8929
  136OSM   H12F14860   6.280   4.521   4.607  3.8872  0.3755 -2.1354
  136OSM   H12G14861   6.168   4.388   4.658  0.0192  0.9752 -1.4664
  136OSM   C13F14862   6.288   4.367   4.473  0.1772  0.1701 -0.2667
  136OSM   H13F14863   6.207   4.424   4.422 -0.7952 -0.3907  0.6025
  136OSM   H13G14864   6.251   4.262   4.465  1.2194 -0.5604  2.8840
  136OSM   C14F14865   6.422   4.386   4.398 -0.3856  0.2787 -0.3561
  136OSM   H14F14866   6.508   4.342   4.453 -0.2450 -0.6512 -1.2856
  136OSM   H14G14867   6.446   4.495   4.402  2.6295 -0.3051  2.4027
  136OSM   C15F14868   6.407   4.347   4.249  0.0880 -0.1848 -0.2045
  136OSM   H15F14869   6.494   4.388   4.192 -0.3750  1.1099 -0.0128
  136OSM   H15G14870   6.308   4.387   4.218 -1.0738 -0.8941  2.3551
  136OSM   C16F14871   6.418   4.191   4.233 -0.1416  0.2452  0.2241
  136OSM   H16F14872   6.359   4.143   4.314  1.1331  2.4222  2.5589
  136OSM   H16G14873   6.521   4.160   4.262 -1.0194 -1.8779  1.3064
  136OSM   C17F14874   6.384   4.142   4.093 -0.4644  0.6017  0.2650
  136OSM   H17F14875   6.385   4.031   4.091  2.3493  0.4754  2.4236
  136OSM   H17G14876   6.471   4.174   4.032  1.8647 -1.3953  2.2740
  136OSM   C18F14877   6.255   4.199   4.035  0.0675  0.3349  0.4203
  136OSM   H18F14878   6.226   4.133   3.951 -0.7939  1.7052 -0.4183
  136OSM   H18G14879   6.265   4.306   4.003  1.2780 -0.3790 -1.8361
  136OSM   H18H14880   6.169   4.193   4.105 -1.9220  0.3619 -1.8873
  137OSM      N14881   2.612   1.223   6.442  0.9543 -0.3536 -0.2547
  137OSM    C1514882   2.692   1.112   6.380  0.7304 -0.2209 -0.3377
  137OSM   H15A14883   2.709   1.031   6.448 -0.9433  0.4510  0.9516
  137OSM   H15B14884   2.787   1.147   6.341  0.5380  4.3039  2.4711
  137OSM   H15C14885   2.638   1.064   6.300  0.8879 -0.1693 -0.4762
  137OSM    C1414886   2.490   1.154   6.502 -0.1174 -0.0204 -0.4753
  137OSM   H14A14887   2.447   1.083   6.432  1.0308 -1.2250  0.0084
  137OSM   H14B14888   2.423   1.238   6.515  0.4911  1.1723 -3.8348
  137OSM   H14C14889   2.513   1.098   6.590  0.9618 -0.0325 -0.7556
  137OSM    C1314890   2.683   1.274   6.566 -0.1027 -0.2242  0.0121
  137OSM   H13A14891   2.747   1.199   6.608 -0.7983 -1.5697 -1.2386
  137OSM   H13B14892   2.607   1.294   6.641 -1.2450 -0.6717 -0.9922
  137OSM   H13C14893   2.738   1.363   6.542 -0.1782 -0.5472 -1.4560
  137OSM    C1214894   2.572   1.327   6.348 -0.8645  1.0540  0.3663
  137OSM   H12A14895   2.659   1.348   6.288 -1.3037  1.8415 -0.0100
  137OSM   H12B14896   2.551   1.416   6.407  0.7870  0.1526  2.4327
  137OSM    C1114897   2.457   1.307   6.248  0.6564 -0.0948  0.7368
  137OSM   H11A14898   2.471   1.208   6.199  0.1965 -1.1010  2.5668
  137OSM   H11B14899   2.459   1.378   6.163 -0.2547  0.5393  1.2424
  137OSM      P14900   2.255   1.411   6.367  0.0183  0.0558 -0.0579
  137OSM    O1314901   2.120   1.368   6.410 -0.7030  0.2022 -0.1940
  137OSM    O1414902   2.344   1.482   6.468  0.0777 -0.0121  0.3930
  137OSM    O1114903   2.236   1.501   6.243 -0.3163  0.5011 -0.3723
  137OSM    O1214904   2.333   1.289   6.316 -0.3075  0.5561 -0.6368
  137OSM    C1S14905   2.110   1.580   6.224 -0.3593  0.3621 -0.4466
  137OSM    H1S14906   2.107   1.668   6.292  0.1254 -0.3107  0.4662
  137OSM    H1T14907   2.023   1.511   6.229  0.4346 -0.5520  1.9088
  137OSM     NF14908   1.981   1.728   6.065 -0.1464  0.2534 -0.2020
  137OSM    HNF14909   1.901   1.678   6.033 -2.0674  1.3168  2.5628
  137OSM    C2S14910   2.100   1.648   6.083  0.1168 -0.4210  0.2560
  137OSM    H2S14911   2.191   1.708   6.062 -0.3035  0.2679  0.4123
  137OSM    C3S14912   2.106   1.533   5.974  0.2117 -0.2641  0.0328
  137OSM    H3S14913   2.005   1.487   5.966 -0.6062  1.4434  0.0481
  137OSM     O314914   2.194   1.422   6.007 -0.2551 -0.2031  0.3520
  137OSM    HO314915   2.205   1.428   6.102 -2.8869  0.0449  0.7219
  137OSM    C4S14916   2.141   1.584   5.833 -0.3108 -0.1627  0.0877
  137OSM    H4S14917   2.249   1.605   5.825 -0.3077 -0.0561  0.4130
  137OSM    C5S14918   2.062   1.619   5.736  0.2218 -0.6699 -0.3523
  137OSM    H5S14919   1.953   1.610   5.748  0.1121  1.8765  1.3568
  137OSM    C6S14920   2.094   1.669   5.598 -0.0458  0.0346 -0.1454
  137OSM    H6S14921   2.081   1.583   5.528 -0.4005 -1.2919  1.4767
  137OSM    H6T14922   2.202   1.693   5.586 -0.4573  2.3296  0.3229
  137OSM    C7S14923   2.013   1.787   5.548  0.4008 -0.4804 -0.1539
  137OSM    H7S14924   2.009   1.875   5.615  1.0706  0.1322 -0.8945
  137OSM    H7T14925   1.905   1.761   5.540  0.3380 -0.4090  0.4197
  137OSM    C8S14926   2.048   1.840   5.408 -0.1486 -1.0450  0.0044
  137OSM    H8S14927   2.149   1.884   5.420 -1.1916  0.8832  2.7409
  137OSM    H8T14928   1.973   1.921   5.392 -1.0554 -1.3784  2.2282
  137OSM    C9S14929   2.049   1.748   5.290  0.3683 -0.1765  0.0998
  137OSM    H9S14930   1.962   1.679   5.290 -1.2494  1.7664 -0.6713
  137OSM    H9T14931   2.135   1.679   5.297  0.0014 -0.9988 -2.4547
  137OSM   C10S14932   2.048   1.818   5.154  0.7653 -0.0752  0.2790
  137OSM   H10S14933   2.100   1.751   5.081  1.1114 -1.8528  2.0739
  137OSM   H10T14934   2.106   1.912   5.157 -0.0366  0.4094  3.6393
  137OSM   C11S14935   1.909   1.858   5.105 -0.1278  1.2007 -0.2521
  137OSM   H11S14936   1.857   1.918   5.182 -1.5215 -1.6270  1.1414
  137OSM   H11T14937   1.854   1.767   5.073  0.8438  0.6967 -0.5233
  137OSM   C12S14938   1.904   1.960   4.984  0.0980  0.5684 -0.2385
  137OSM   H12S14939   1.920   2.061   5.027  2.2354  0.2306 -0.1548
  137OSM   H12T14940   1.800   1.954   4.944  0.6473  1.1188 -1.8248
  137OSM   C13S14941   1.999   1.942   4.868  0.0503 -0.6863  0.2195
  137OSM   H13S14942   1.981   1.842   4.823 -1.2512 -1.5503  2.5089
  137OSM   H13T14943   2.104   1.949   4.905  0.6015 -2.1486 -0.9726
  137OSM   C14S14944   1.967   2.045   4.754  0.2610  0.0985  0.3232
  137OSM   H14S14945   1.978   2.141   4.808  3.4611  0.1679 -0.2391
  137OSM   H14T14946   1.859   2.053   4.732  0.1582  4.3533  1.4782
  137OSM   C15S14947   2.056   2.033   4.628 -0.0040 -0.2575 -0.4072
  137OSM   H15S14948   2.161   2.034   4.665 -0.3516 -0.6591  0.6066
  137OSM   H15T14949   2.028   2.117   4.561 -0.6661  2.4962  3.0016
  137OSM   C16S14950   2.038   1.900   4.555  0.1817 -0.2546 -0.3557
  137OSM   H16S14951   1.932   1.885   4.527 -0.0942 -0.4810  0.7684
  137OSM   H16T14952   2.082   1.812   4.608  0.7109 -0.1803 -0.6572
  137OSM   C17S14953   2.110   1.902   4.416 -0.1896  0.1051 -0.0257
  137OSM   H17S14954   2.063   1.978   4.351 -1.0762  2.3586  3.0201
  137OSM   H17T14955   2.099   1.795   4.386 -1.5553  0.2026  0.1018
  137OSM   C18S14956   2.259   1.938   4.426  0.2965  1.0511 -0.4319
  137OSM   H18S14957   2.300   1.871   4.504 -2.2666  0.4795  0.5069
  137OSM   H18T14958   2.272   2.043   4.461  2.3820  0.4719  0.7007
  137OSM   H18U14959   2.309   1.920   4.328 -2.8857 -1.6610 -1.7405
  137OSM    C1F14960   1.967   1.849   6.112  0.1435  0.3199 -0.1337
  137OSM     OF14961   2.056   1.903   6.178 -0.1320 -0.2401 -0.3352
  137OSM    C2F14962   1.836   1.919   6.084 -0.5381  0.4061  0.5548
  137OSM    H2F14963   1.839   2.017   6.137 -0.1369 -0.0484  1.3910
  137OSM    H2G14964   1.739   1.876   6.117 -0.3303  1.0260  2.0565
  137OSM    C3F14965   1.839   1.946   5.930 -0.4281 -0.2317  0.5473
  137OSM    H3F14966   1.813   1.852   5.878  0.9836  0.5818 -1.8077
  137OSM    H3G14967   1.938   1.982   5.895 -0.8791  0.5570  0.0488
  137OSM    C4F14968   1.721   2.041   5.888  0.8327  0.3189 -0.6839
  137OSM    H4F14969   1.720   2.133   5.951 -0.1898  0.0979 -0.3705
  137OSM    H4G14970   1.630   1.987   5.922  0.7312  0.5709 -0.5487
  137OSM    C5F14971   1.722   2.081   5.741 -0.1580 -1.3439 -0.8364
  137OSM    H5F14972   1.623   2.129   5.722 -0.6652 -2.6237 -1.5656
  137OSM    H5G14973   1.727   1.994   5.673  0.6314  0.4581 -3.2187
  137OSM    C6F14974   1.837   2.180   5.704  0.6409 -0.2473  0.3164
  137OSM    H6F14975   1.935   2.132   5.728 -0.0327 -1.3550  0.9227
  137OSM    H6G14976   1.838   2.278   5.756 -0.4294 -1.2767  2.3884
  137OSM    C7F14977   1.813   2.198   5.548 -0.7275  0.1309 -0.9091
  137OSM    H7F14978   1.707   2.233   5.549 -0.8787 -0.2135  1.8670
  137OSM    H7G14979   1.818   2.101   5.495  0.8026  0.2602 -1.0319
  137OSM    C8F14980   1.891   2.309   5.486 -0.5229  0.6536  0.2597
  137OSM    H8F14981   2.001   2.294   5.488 -0.4757  1.0359  0.8413
  137OSM    H8G14982   1.877   2.409   5.533 -0.6315 -0.2596  2.2641
  137OSM    C9F14983   1.850   2.315   5.342 -0.0108 -0.3483 -0.2945
  137OSM    H9F14984   1.741   2.327   5.336 -0.0078 -0.8123 -1.8881
  137OSM   C10F14985   1.916   2.314   5.231 -0.9146 -0.2023  0.5308
  137OSM   H10F14986   1.860   2.302   5.138 -0.2933 -0.2889  0.1637
  137OSM   C11F14987   2.063   2.308   5.216 -0.6293 -0.3227 -0.2084
  137OSM   H11F14988   2.116   2.226   5.268  2.2000  2.3965  1.5045
  137OSM   H11G14989   2.113   2.399   5.254 -2.8899  1.1901 -0.6466
  137OSM   C12F14990   2.119   2.320   5.068 -0.1838  0.6372 -0.7777
  137OSM   H12F14991   2.138   2.219   5.026  0.0707  0.7192 -0.8647
  137OSM   H12G14992   2.220   2.364   5.079  0.0838  0.0764 -0.9483
  137OSM   C13F14993   2.040   2.402   4.962 -0.3080  0.3049  0.2494
  137OSM   H13F14994   2.015   2.503   5.002 -2.0719 -0.8434  2.1998
  137OSM   H13G14995   1.941   2.360   4.935  0.8144 -2.5237  0.2314
  137OSM   C14F14996   2.129   2.421   4.841 -0.1473 -0.3449  0.9295
  137OSM   H14F14997   2.144   2.320   4.797 -2.7792  0.7258 -2.9777
  137OSM   H14G14998   2.213   2.485   4.875 -0.3004  1.2618 -1.4828
  137OSM   C15F14999   2.055   2.501   4.726  0.4545  0.2002  0.8419
  137OSM   H15F15000   2.007   2.596   4.756  0.1780  0.9322 -1.6970
  137OSM   H15G15001   1.971   2.438   4.691  1.9800 -2.0107  0.9506
  137OSM   C16F15002   2.138   2.519   4.588 -0.2122  0.1951  0.5505
  137OSM   H16F15003   2.224   2.585   4.614 -0.3811 -0.1320  2.0779
  137OSM   H16G15004   2.074   2.571   4.514 -0.2487  0.8848  1.0531
  137OSM   C17F15005   2.195   2.392   4.528 -0.2134 -0.8462  0.4232
  137OSM   H17F15006   2.110   2.327   4.499 -0.4416 -0.3899  0.0457
  137OSM   H17G15007   2.250   2.343   4.611 -0.3917 -1.5156  0.1523
  137OSM   C18F15008   2.303   2.419   4.418 -0.1705  0.7126 -0.1903
  137OSM   H18F15009   2.255   2.470   4.332  1.1250 -0.5460 -1.7137
  137OSM   H18G15010   2.333   2.324   4.369  1.1124 -0.0782  1.9768
  137OSM   H18H15011   2.390   2.475   4.459 -0.7084  1.2338  0.2619
  138OSM      N15012   5.892   1.656   6.526  0.5580  0.0205 -0.0374
  138OSM    C1515013   5.970   1.596   6.416  0.5114 -0.0607 -0.3508
  138OSM   H15A15014   5.933   1.634   6.322 -0.5004  2.1343  0.8457
  138OSM   H15B15015   5.952   1.490   6.416 -0.3289  0.0220  1.8169
  138OSM   H15C15016   6.075   1.621   6.417 -0.0263  2.6389 -1.8240
  138OSM    C1415017   5.760   1.599   6.549 -0.0135 -0.6247  0.6698
  138OSM   H14A15018   5.712   1.617   6.644 -0.9977 -0.2209  0.1130
  138OSM   H14B15019   5.765   1.492   6.567 -2.4090 -0.9855 -0.3944
  138OSM   H14C15020   5.703   1.619   6.459  1.8283  1.2493 -0.1473
  138OSM    C1315021   5.961   1.636   6.661 -0.3715  0.0594  0.5373
  138OSM   H13A15022   5.969   1.529   6.676 -1.7042 -0.0938  0.3429
  138OSM   H13B15023   5.897   1.675   6.739 -1.0210  1.5595 -0.7120
  138OSM   H13C15024   6.064   1.666   6.666  0.0622 -1.1668 -0.5683
  138OSM    C1215025   5.867   1.811   6.495 -0.4373 -0.1332 -0.2347
  138OSM   H12A15026   5.807   1.839   6.581  0.7329  0.3469  0.4629
  138OSM   H12B15027   5.813   1.807   6.402 -2.5065 -0.0207  0.9079
  138OSM    C1115028   6.003   1.891   6.512  0.3070  0.8259  0.8266
  138OSM   H11A15029   6.050   1.856   6.607  0.9071 -2.2499 -0.4896
  138OSM   H11B15030   5.992   2.001   6.518  0.5728  1.1200 -2.4222
  138OSM      P15031   6.089   1.931   6.266 -0.2232 -0.1716 -0.0434
  138OSM    O1315032   6.105   2.077   6.275  0.2626  0.1182  0.0012
  138OSM    O1415033   6.187   1.856   6.186  0.3086 -0.5054 -0.5596
  138OSM    O1115034   5.954   1.889   6.206  0.5024  0.1184  0.4900
  138OSM    O1215035   6.083   1.858   6.404 -0.3716  0.1685 -0.1643
  138OSM    C1S15036   5.860   1.978   6.155  0.1148 -0.3259  0.2027
  138OSM    H1S15037   5.896   2.083   6.152 -0.6379 -0.0566  0.3499
  138OSM    H1T15038   5.766   1.983   6.214 -0.8985  1.9889 -1.4861
  138OSM     NF15039   5.743   2.045   5.956  0.9202  0.1379  0.3181
  138OSM    HNF15040   5.660   2.019   5.907  1.2804  1.5673 -1.1305
  138OSM    C2S15041   5.825   1.942   6.008 -0.3309  0.5165 -0.1306
  138OSM    H2S15042   5.919   1.956   5.950 -0.0041  2.3089  0.7709
  138OSM    C3S15043   5.775   1.794   5.978  0.5317  0.2574 -0.0345
  138OSM    H3S15044   5.675   1.790   6.026  1.4347 -0.6854  1.8864
  138OSM     O315045   5.856   1.697   6.048  0.8214  0.1161 -0.2774
  138OSM    HO315046   5.900   1.751   6.114  0.9190  0.3844 -0.5575
  138OSM    C4S15047   5.771   1.771   5.833  0.4094 -0.0472  0.0200
  138OSM    H4S15048   5.869   1.752   5.786  1.2930  0.4052  1.6171
  138OSM    C5S15049   5.654   1.774   5.759  0.0539  0.0785 -0.4351
  138OSM    H5S15050   5.557   1.793   5.807 -0.1608 -0.7903 -0.5017
  138OSM    C6S15051   5.630   1.749   5.609 -0.0356 -0.7614  0.0767
  138OSM    H6S15052   5.558   1.823   5.569 -0.0561 -1.0048 -0.3520
  138OSM    H6T15053   5.585   1.649   5.595 -0.8591 -0.3127 -0.5756
  138OSM    C7S15054   5.753   1.753   5.514 -0.7897 -0.5650 -0.2403
  138OSM    H7S15055   5.842   1.702   5.556 -0.6571  0.3495  0.6329
  138OSM    H7T15056   5.785   1.859   5.504 -1.9134 -0.0373  1.4268
  138OSM    C8S15057   5.727   1.702   5.374  0.0229  0.2676 -0.0674
  138OSM    H8S15058   5.687   1.599   5.368  0.6945  0.0287 -0.5531
  138OSM    H8T15059   5.822   1.697   5.317 -1.4018  0.8606 -2.6716
  138OSM    C9S15060   5.638   1.788   5.285  0.1548  0.5117 -0.3395
  138OSM    H9S15061   5.691   1.886   5.284  0.9262  0.2129  2.6407
  138OSM    H9T15062   5.537   1.800   5.329  0.1239 -0.2263 -0.2026
  138OSM   C10S15063   5.615   1.737   5.141  0.6378 -0.1735 -0.1041
  138OSM   H10S15064   5.537   1.797   5.090 -2.5784 -2.1026  2.1689
  138OSM   H10T15065   5.558   1.642   5.127  0.4362 -0.2349  1.0468
  138OSM   C11S15066   5.744   1.731   5.058 -0.1830  0.2622 -0.1174
  138OSM   H11S15067   5.828   1.682   5.112 -0.5921  2.2872  2.5958
  138OSM   H11T15068   5.766   1.839   5.072  1.0809 -0.0013  0.0504
  138OSM   C12S15069   5.725   1.674   4.914  0.4585 -0.0366  0.3721
  138OSM   H12S15070   5.686   1.571   4.923  0.4303 -0.3623 -2.3907
  138OSM   H12T15071   5.825   1.674   4.864  0.6576  2.2413  0.6337
  138OSM   C13S15072   5.627   1.739   4.814 -0.0804 -0.3516 -0.3385
  138OSM   H13S15073   5.527   1.738   4.863  1.5183 -3.1544  3.3281
  138OSM   H13T15074   5.625   1.682   4.718 -2.9900 -0.3833 -0.3582
  138OSM   C14S15075   5.644   1.887   4.799  0.3756  0.3285 -0.1620
  138OSM   H14S15076   5.750   1.901   4.771  1.2614 -0.1395  2.6978
  138OSM   H14T15077   5.627   1.937   4.897  0.6013 -0.4978  0.3101
  138OSM   C15S15078   5.542   1.960   4.705 -0.1563 -0.7238  0.1865
  138OSM   H15S15079   5.438   1.951   4.743 -0.1760 -4.6593 -0.3799
  138OSM   H15T15080   5.551   1.896   4.615  1.0880 -0.1251 -0.1406
  138OSM   C16S15081   5.569   2.112   4.676  0.3137 -0.0754  0.5120
  138OSM   H16S15082   5.488   2.157   4.615  2.1664 -0.9396 -2.8083
  138OSM   H16T15083   5.653   2.125   4.605 -0.0485  1.0442  0.2778
  138OSM   C17S15084   5.595   2.216   4.788 -0.6828  1.0280  0.8084
  138OSM   H17S15085   5.693   2.199   4.838 -0.3046 -0.3371 -0.3684
  138OSM   H17T15086   5.509   2.206   4.858 -3.8295  0.5445 -2.8030
  138OSM   C18S15087   5.581   2.354   4.736  0.2919 -0.7225 -0.3457
  138OSM   H18S15088   5.476   2.365   4.703  0.1766 -0.7358  0.0122
  138OSM   H18T15089   5.661   2.384   4.664 -1.7168 -0.5778 -2.6310
  138OSM   H18U15090   5.595   2.433   4.814 -0.1528 -1.0315  0.0503
  138OSM    C1F15091   5.773   2.170   5.929 -0.3124 -0.3337 -0.0988
  138OSM     OF15092   5.877   2.219   5.978  0.3139  0.0281  0.0482
  138OSM    C2F15093   5.677   2.245   5.844  0.6444 -0.1054  0.2368
  138OSM    H2F15094   5.719   2.346   5.821 -0.3644  0.1956 -0.3482
  138OSM    H2G15095   5.579   2.240   5.895  0.6155 -1.8363  0.0865
  138OSM    C3F15096   5.648   2.170   5.702 -0.0728 -0.5342 -0.3898
  138OSM    H3F15097   5.553   2.223   5.676 -0.9077 -0.1847  2.8631
  138OSM    H3G15098   5.613   2.065   5.712 -1.7887  0.1611  1.6627
  138OSM    C4F15099   5.779   2.174   5.611 -0.3516 -0.0467 -0.3817
  138OSM    H4F15100   5.843   2.084   5.620 -1.2119 -0.8202 -1.6692
  138OSM    H4G15101   5.838   2.266   5.631 -1.5639  0.5664  0.4770
  138OSM    C5F15102   5.734   2.185   5.461 -0.8080  0.0146 -0.3416
  138OSM    H5F15103   5.662   2.269   5.448 -0.5875  0.0996 -1.0919
  138OSM    H5G15104   5.677   2.090   5.452 -1.4824  0.3930 -0.1243
  138OSM    C6F15105   5.841   2.178   5.357 -0.8095  0.0168  0.2919
  138OSM    H6F15106   5.911   2.092   5.364 -0.8429  0.0861  1.7822
  138OSM    H6G15107   5.906   2.267   5.369 -0.4161 -0.5264  2.6092
  138OSM    C7F15108   5.785   2.183   5.214  0.6377 -0.0481  0.0971
  138OSM    H7F15109   5.742   2.285   5.205 -0.2861 -0.3704  0.6904
  138OSM    H7G15110   5.702   2.109   5.205 -0.4994  1.3151 -1.2873
  138OSM    C8F15111   5.888   2.162   5.100 -0.4392  0.0579 -0.0447
  138OSM    H8F15112   5.965   2.241   5.110  0.0224 -0.4339  0.3327
  138OSM    H8G15113   5.837   2.186   5.004 -2.8656 -0.9338  0.9177
  138OSM    C9F15114   5.957   2.028   5.071  0.1101 -0.0613 -0.4839
  138OSM    H9F15115   5.940   1.945   5.141 -3.2728  0.2238 -0.7789
  138OSM   C10F15116   6.050   2.018   4.975  0.1172 -0.3095  0.9126
  138OSM   H10F15117   6.106   1.924   4.964  1.8955  0.7894  0.1068
  138OSM   C11F15118   6.106   2.124   4.881  0.3259 -0.1539  0.4364
  138OSM   H11F15119   6.087   2.226   4.923 -0.1229 -0.8474  2.0130
  138OSM   H11G15120   6.048   2.117   4.787 -0.2257 -2.2470  0.8904
  138OSM   C12F15121   6.254   2.127   4.842 -0.0013  0.3852 -0.0669
  138OSM   H12F15122   6.315   2.127   4.935  1.1881  2.2033 -0.7895
  138OSM   H12G15123   6.287   2.216   4.785  0.0821  0.5383  0.2170
  138OSM   C13F15124   6.302   2.005   4.765  0.3376  0.2491 -0.0264
  138OSM   H13F15125   6.239   2.008   4.674  2.3862  0.6416 -1.5044
  138OSM   H13G15126   6.284   1.913   4.824  0.7714  0.2247  0.0741
  138OSM   C14F15127   6.450   2.009   4.712 -0.1377 -0.3637  0.6147
  138OSM   H14F15128   6.517   1.987   4.797  1.1197 -2.2007 -0.7703
  138OSM   H14G15129   6.469   2.116   4.688 -2.8268  0.4103  1.5742
  138OSM   C15F15130   6.486   1.906   4.604  0.2402 -0.0399  0.7759
  138OSM   H15F15131   6.412   1.919   4.522 -1.6183 -3.3480  1.7132
  138OSM   H15G15132   6.462   1.810   4.656 -1.6150 -0.2321 -0.3307
  138OSM   C16F15133   6.628   1.925   4.559 -0.4605 -0.4776  0.7897
  138OSM   H16F15134   6.705   1.919   4.639 -0.3657  1.0093  0.8514
  138OSM   H16G15135   6.635   2.027   4.514  0.9840 -2.0883 -3.0923
  138OSM   C17F15136   6.674   1.831   4.442 -0.0761 -0.6770 -0.0089
  138OSM   H17F15137   6.778   1.849   4.405 -0.1612 -1.6327 -0.7661
  138OSM   H17G15138   6.614   1.853   4.351 -0.0156 -1.5793 -0.2833
  138OSM   C18F15139   6.654   1.676   4.484  0.5826 -0.5746 -0.2327
  138OSM   H18F15140   6.544   1.657   4.487 -0.3690  3.6132 -1.4622
  138OSM   H18G15141   6.702   1.647   4.579  1.3659 -0.6720 -0.6514
  138OSM   H18H15142   6.691   1.610   4.402 -2.0892 -2.1516 -0.2896
  139OSM      N15143   6.171   5.755   6.399 -0.1412 -0.3551  1.2735
  139OSM    C1515144   6.140   5.742   6.251  0.8716  0.4682 -0.6099
  139OSM   H15A15145   6.033   5.733   6.249  1.0157 -2.5680 -0.1771
  139OSM   H15B15146   6.195   5.658   6.210  0.1116  0.2342 -1.1690
  139OSM   H15C15147   6.183   5.823   6.194  1.2399  0.5300 -0.2526
  139OSM    C1415148   6.120   5.885   6.451 -0.0650  0.1262  0.0618
  139OSM   H14A15149   6.169   5.907   6.544  0.3528 -0.3649 -0.0382
  139OSM   H14B15150   6.012   5.886   6.453 -0.1621 -1.8757 -1.2483
  139OSM   H14C15151   6.141   5.962   6.379  0.7956 -0.1452  0.0150
  139OSM    C1315152   6.102   5.643   6.467 -0.1001  0.2602 -0.4495
  139OSM   H13A15153   6.115   5.651   6.574  2.7508 -1.3611 -0.5947
  139OSM   H13B15154   6.143   5.550   6.431 -0.4805 -0.2684  0.4358
  139OSM   H13C15155   5.995   5.637   6.452 -0.4890 -1.0395  2.1781
  139OSM    C1215156   6.323   5.750   6.424 -0.3791 -0.1796 -0.4470
  139OSM   H12A15157   6.368   5.655   6.399 -1.0874 -0.7792  0.4897
  139OSM   H12B15158   6.349   5.762   6.528  1.1981 -1.8524 -0.5944
  139OSM    C1115159   6.409   5.848   6.342  0.3053  0.3587 -0.2560
  139OSM   H11A15160   6.401   5.949   6.387  2.7402  0.6235 -0.2759
  139OSM   H11B15161   6.372   5.868   6.240 -0.7756  0.6099  0.1681
  139OSM      P15162   6.598   5.661   6.323  0.2627  0.4070 -0.2056
  139OSM    O1315163   6.737   5.650   6.274 -0.0072 -0.1740  0.4206
  139OSM    O1415164   6.570   5.614   6.464  0.1326 -0.5045  0.3499
  139OSM    O1115165   6.501   5.593   6.218 -0.2488  0.2638 -0.0494
  139OSM    O1215166   6.552   5.812   6.330  0.6597  0.4856  0.4955
  139OSM    C1S15167   6.524   5.623   6.080 -0.2700  0.0163 -0.3486
  139OSM    H1S15168   6.632   5.623   6.058  0.6091 -0.9174  3.3047
  139OSM    H1T15169   6.495   5.729   6.065  0.7866  0.2959 -0.4802
  139OSM     NF15170   6.436   5.605   5.852 -0.0635  0.6067  0.2410
  139OSM    HNF15171   6.360   5.662   5.822 -0.1175 -0.5823 -2.0610
  139OSM    C2S15172   6.444   5.533   5.978  0.3573  0.4322  0.1649
  139OSM    H2S15173   6.505   5.443   5.956 -0.0219  0.4174 -0.8756
  139OSM    C3S15174   6.305   5.506   6.033  0.1931  0.2683 -0.2214
  139OSM    H3S15175   6.255   5.604   6.050  1.3084  0.7458  0.4046
  139OSM     O315176   6.285   5.442   6.153  0.5400 -0.2541  0.2470
  139OSM    HO315177   6.370   5.458   6.195  0.0853  1.1508  0.6859
  139OSM    C4S15178   6.218   5.431   5.932  0.2576  0.4032  0.3894
  139OSM    H4S15179   6.249   5.328   5.910 -1.9906 -0.1550 -0.4730
  139OSM    C5S15180   6.110   5.480   5.873 -0.1538 -0.0739  0.1993
  139OSM    H5S15181   6.088   5.587   5.884 -0.5767 -0.0667 -0.6143
  139OSM    C6S15182   6.016   5.407   5.781 -0.2034  0.1203 -0.9009
  139OSM    H6S15183   5.909   5.400   5.810 -0.3237  1.4123 -1.0055
  139OSM    H6T15184   6.055   5.303   5.768  2.1453  0.5822  1.5191
  139OSM    C7S15185   6.007   5.470   5.645  0.2588  0.1632  0.7064
  139OSM    H7S15186   6.105   5.496   5.601 -0.4370  1.4886 -0.1104
  139OSM    H7T15187   5.951   5.563   5.668 -3.1978 -1.0220 -2.0388
  139OSM    C8S15188   5.929   5.398   5.535  0.1363  0.0262  0.4015
  139OSM    H8S15189   5.827   5.377   5.576 -0.0906 -1.6333 -0.8891
  139OSM    H8T15190   5.981   5.309   5.495 -1.1978 -0.5754 -0.0718
  139OSM    C9S15191   5.904   5.483   5.407 -0.0845 -0.0125  0.2590
  139OSM    H9S15192   5.847   5.569   5.448  0.8675 -0.3262  2.4053
  139OSM    H9T15193   5.829   5.434   5.341 -1.3997  0.3269  1.4602
  139OSM   C10S15194   6.031   5.533   5.333 -0.2438  0.8975  0.0858
  139OSM   H10S15195   6.087   5.456   5.274 -1.3482  1.1205 -1.3176
  139OSM   H10T15196   6.105   5.569   5.407  0.4596 -1.2606  0.5251
  139OSM   C11S15197   6.009   5.658   5.250 -0.6282 -0.1624 -0.3528
  139OSM   H11S15198   6.096   5.726   5.260  0.6291 -1.9697  3.3661
  139OSM   H11T15199   5.923   5.703   5.304  0.2532 -0.7730  1.7081
  139OSM   C12S15200   5.986   5.637   5.102  0.0035 -0.9385  0.4782
  139OSM   H12S15201   6.072   5.590   5.050  1.1438  1.5129  0.0287
  139OSM   H12T15202   5.966   5.737   5.059 -1.9360 -0.9687  1.1786
  139OSM   C13S15203   5.874   5.544   5.055  0.7792  0.4754 -0.1367
  139OSM   H13S15204   5.779   5.561   5.110  0.1335 -0.8347 -0.7993
  139OSM   H13T15205   5.896   5.443   5.096  0.9487  0.4633 -0.2568
  139OSM   C14S15206   5.848   5.559   4.905  0.5973 -0.1176 -0.1588
  139OSM   H14S15207   5.778   5.479   4.871 -1.5411  1.6286 -0.0709
  139OSM   H14T15208   5.943   5.546   4.849  0.1276 -0.0676 -0.9984
  139OSM   C15S15209   5.798   5.701   4.867  0.0680 -0.5267  0.3471
  139OSM   H15S15210   5.886   5.764   4.843 -0.5966  0.0233 -0.7240
  139OSM   H15T15211   5.738   5.749   4.947 -2.1311 -0.5700 -1.1927
  139OSM   C16S15212   5.707   5.712   4.742 -0.0037 -0.7216  0.0193
  139OSM   H16S15213   5.627   5.636   4.757 -2.2372  1.1539 -1.7069
  139OSM   H16T15214   5.767   5.679   4.654  1.1550  3.5004 -0.9792
  139OSM   C17S15215   5.645   5.852   4.731  0.1884 -0.5795  0.8452
  139OSM   H17S15216   5.565   5.869   4.805 -1.3339 -2.7295 -0.2070
  139OSM   H17T15217   5.604   5.854   4.628  1.5983  2.6268  0.2155
  139OSM   C18S15218   5.752   5.963   4.741  0.0868 -0.5867  0.8764
  139OSM   H18S15219   5.701   6.061   4.748  0.8524  0.1778 -2.7341
  139OSM   H18T15220   5.804   5.977   4.644 -0.5400  1.4383  0.8025
  139OSM   H18U15221   5.825   5.949   4.824  1.9434  0.3619 -0.5086
  139OSM    C1F15222   6.537   5.614   5.767 -0.5573  0.1185 -0.5474
  139OSM     OF15223   6.632   5.540   5.777  0.1177  0.4138 -0.4091
  139OSM    C2F15224   6.531   5.724   5.653 -0.0408  0.1198 -0.0359
  139OSM    H2F15225   6.629   5.775   5.662  0.5661 -1.1064  0.6735
  139OSM    H2G15226   6.454   5.801   5.676 -0.3776 -0.5734  1.2782
  139OSM    C3F15227   6.498   5.660   5.516 -0.2155 -0.1930  0.2225
  139OSM    H3F15228   6.402   5.606   5.527 -0.5013 -0.3676 -2.4586
  139OSM    H3G15229   6.567   5.580   5.480 -1.1703 -0.4239 -1.1848
  139OSM    C4F15230   6.487   5.767   5.412  0.6207 -0.3389  0.5417
  139OSM    H4F15231   6.589   5.797   5.380 -0.4681 -0.5782 -3.9367
  139OSM    H4G15232   6.430   5.856   5.446  0.9631 -0.0114  0.2707
  139OSM    C5F15233   6.415   5.706   5.286 -0.3883 -0.3256 -0.8509
  139OSM    H5F15234   6.306   5.700   5.306 -0.3836  0.4504 -0.5471
  139OSM    H5G15235   6.445   5.603   5.258  0.0189 -0.3878 -0.2047
  139OSM    C6F15236   6.436   5.789   5.168 -0.4244 -0.0604 -0.1936
  139OSM    H6F15237   6.542   5.772   5.139 -0.7828 -2.4395 -0.3291
  139OSM    H6G15238   6.428   5.896   5.196 -0.5015  0.1207 -0.9103
  139OSM    C7F15239   6.359   5.728   5.049  0.0242 -0.2695 -0.2055
  139OSM    H7F15240   6.259   5.692   5.078 -0.0318  2.0816  3.1622
  139OSM    H7G15241   6.419   5.639   5.020 -0.1161  0.0682 -1.6080
  139OSM    C8F15242   6.354   5.818   4.923 -0.8740 -0.7788  0.6412
  139OSM    H8F15243   6.456   5.812   4.879 -0.7890  0.3092  0.6749
  139OSM    H8G15244   6.346   5.922   4.961  0.4408 -0.6346  0.5761
  139OSM    C9F15245   6.247   5.776   4.827  0.5053  0.2283  0.3984
  139OSM    H9F15246   6.146   5.808   4.858  0.6846 -0.8279  2.1929
  139OSM   C10F15247   6.263   5.726   4.702  0.1047  0.4358 -0.1027
  139OSM   H10F15248   6.179   5.712   4.632 -0.5887 -0.8115  0.9409
  139OSM   C11F15249   6.389   5.668   4.639  0.6728 -0.0653  0.0175
  139OSM   H11F15250   6.373   5.558   4.633 -0.4705  0.0591  0.4937
  139OSM   H11G15251   6.485   5.686   4.692  0.4748  1.1352 -0.0020
  139OSM   C12F15252   6.419   5.727   4.492 -0.3585  0.0819  0.1704
  139OSM   H12F15253   6.428   5.837   4.497 -2.3338  0.2293  2.4493
  139OSM   H12G15254   6.331   5.705   4.428 -0.1287 -0.1786 -0.0615
  139OSM   C13F15255   6.545   5.664   4.428  0.1727 -0.9417 -0.3533
  139OSM   H13F15256   6.529   5.557   4.404 -0.7497 -0.9521  0.2361
  139OSM   H13G15257   6.632   5.667   4.497 -1.7643  1.5857  2.2766
  139OSM   C14F15258   6.591   5.730   4.293 -0.8298 -0.4129  0.1238
  139OSM   H14F15259   6.628   5.832   4.314 -1.7287  0.1352 -0.8557
  139OSM   H14G15260   6.506   5.737   4.221  0.1347 -2.8279 -1.3832
  139OSM   C15F15261   6.699   5.651   4.219  0.6785 -0.4747  0.2158
  139OSM   H15F15262   6.670   5.544   4.214 -0.8858 -0.0645 -0.5430
  139OSM   H15G15263   6.789   5.654   4.283 -0.0688  0.7864  1.2572
  139OSM   C16F15264   6.731   5.699   4.082  0.2412  0.1994 -0.2559
  139OSM   H16F15265   6.811   5.775   4.089 -0.2838  0.6914  0.5965
  139OSM   H16G15266   6.639   5.737   4.033  0.1218 -1.4214 -1.3714
  139OSM   C17F15267   6.787   5.586   3.993  0.0537 -0.1228  0.4549
  139OSM   H17F15268   6.801   5.601   3.884 -1.2431 -0.3985  0.2342
  139OSM   H17G15269   6.704   5.511   3.995 -2.0578  2.0836  0.1663
  139OSM   C18F15270   6.915   5.528   4.041 -0.1679 -0.1203  0.4300
  139OSM   H18F15271   6.953   5.446   3.977  0.4424  0.6533 -0.2265
  139OSM   H18G15272   6.900   5.481   4.141  1.0643 -0.4624  0.4715
  139OSM   H18H15273   7.002   5.595   4.058 -0.9239  0.9255  0.3231
  140OSM      N15274   1.532   1.861   6.691  0.3870  0.1158  0.2886
  140OSM    C1515275   1.663   1.796   6.725 -0.0190  0.7200  0.1398
  140OSM   H15A15276   1.653   1.744   6.820 -0.8438  1.5612  0.5291
  140OSM   H15B15277   1.746   1.862   6.745 -0.9926  1.4697  1.9004
  140OSM   H15C15278   1.696   1.741   6.638  0.5125  2.2629 -0.6656
  140OSM    C1415279   1.486   1.922   6.819 -0.1352 -0.2677  0.5566
  140OSM   H14A15280   1.565   1.964   6.879 -1.7103  2.6240  0.8277
  140OSM   H14B15281   1.434   1.856   6.887  0.7415 -0.1033  1.4097
  140OSM   H14C15282   1.425   2.010   6.803 -1.7458 -1.2536  1.0111
  140OSM    C1315283   1.561   1.966   6.595 -0.2293 -0.0498  0.5131
  140OSM   H13A15284   1.603   2.049   6.650  1.0072  1.2142 -2.1452
  140OSM   H13B15285   1.464   2.000   6.560 -0.7105 -0.8732  1.0224
  140OSM   H13C15286   1.623   1.935   6.513  1.2725  0.1419  1.5412
  140OSM    C1215287   1.429   1.763   6.631  0.6750  0.0516  0.6108
  140OSM   H12A15288   1.335   1.816   6.631 -0.7344 -2.3102  1.4445
  140OSM   H12B15289   1.405   1.681   6.696  0.0570  1.7826  2.6863
  140OSM    C1115290   1.438   1.716   6.476  0.5213 -0.3584 -0.4745
  140OSM   H11A15291   1.440   1.813   6.421 -1.5930  0.1587  0.2542
  140OSM   H11B15292   1.344   1.665   6.446  0.2544  1.0183 -2.1522
  140OSM      P15293   1.670   1.654   6.371  0.0107  0.0038  0.1963
  140OSM    O1315294   1.712   1.794   6.365 -0.3487  0.6390  0.5965
  140OSM    O1415295   1.780   1.559   6.394 -0.3300  0.0696  0.0767
  140OSM    O1115296   1.591   1.625   6.229  0.5495  0.6050  0.2305
  140OSM    O1215297   1.552   1.639   6.472 -0.0171  0.1879 -0.3769
  140OSM    C1S15298   1.533   1.495   6.215 -0.5733 -0.3129  0.6131
  140OSM    H1S15299   1.427   1.505   6.249 -0.5243 -0.5788  0.8514
  140OSM    H1T15300   1.575   1.413   6.277  1.3722  2.1353  2.8046
  140OSM     NF15301   1.479   1.315   6.056  0.5104 -0.2549  0.0781
  140OSM    HNF15302   1.543   1.242   6.076  1.3007  0.6705  1.0963
  140OSM    C2S15303   1.531   1.453   6.066 -0.9986 -0.2235 -0.8184
  140OSM    H2S15304   1.465   1.525   6.013 -0.7737  1.2066  0.7564
  140OSM    C3S15305   1.673   1.464   6.001 -0.2984  0.0158  0.1689
  140OSM    H3S15306   1.739   1.394   6.056  3.1741  1.4537 -1.8476
  140OSM     O315307   1.738   1.587   6.023  0.1634 -0.1196 -0.2223
  140OSM    HO315308   1.682   1.626   6.090 -0.2278  0.0979 -0.6729
  140OSM    C4S15309   1.672   1.435   5.851  0.2907 -0.2570  0.9899
  140OSM    H4S15310   1.719   1.338   5.831  0.9347  0.6844 -3.0621
  140OSM    C5S15311   1.679   1.519   5.748 -0.3160 -0.0607  0.3847
  140OSM    H5S15312   1.673   1.628   5.765 -0.0027  0.0249 -0.0467
  140OSM    C6S15313   1.721   1.476   5.610  0.3057 -0.2091  0.4299
  140OSM    H6S15314   1.799   1.548   5.579  2.3033 -2.5364 -0.2922
  140OSM    H6T15315   1.631   1.481   5.546 -0.2693 -1.9384  1.0316
  140OSM    C7S15316   1.789   1.333   5.586 -0.0396  0.1885  0.0578
  140OSM    H7S15317   1.712   1.255   5.603 -0.5883  0.7963  0.4517
  140OSM    H7T15318   1.873   1.319   5.657  2.1692 -0.3809 -2.5187
  140OSM    C8S15319   1.830   1.313   5.436 -0.5868 -0.0210  0.7625
  140OSM    H8S15320   1.863   1.208   5.420 -0.7847  0.2451 -1.7932
  140OSM    H8T15321   1.919   1.377   5.415 -0.4586 -0.0951  1.0781
  140OSM    C9S15322   1.720   1.343   5.332 -0.7311  0.3727  0.6253
  140OSM    H9S15323   1.695   1.451   5.322  1.1036  0.8741  0.9947
  140OSM    H9T15324   1.626   1.293   5.364 -0.8005 -1.2480 -1.8614
  140OSM   C10S15325   1.760   1.298   5.195  0.0353 -0.4170  0.1914
  140OSM   H10S15326   1.664   1.289   5.139  0.7224 -0.2737 -1.0652
  140OSM   H10T15327   1.808   1.198   5.201  0.3127 -0.4485 -1.7542
  140OSM   C11S15328   1.859   1.401   5.133  0.2785 -0.3342 -0.1581
  140OSM   H11S15329   1.957   1.411   5.184 -1.3313  2.3599  2.8326
  140OSM   H11T15330   1.801   1.493   5.156 -1.1203 -1.0684 -0.6595
  140OSM   C12S15331   1.877   1.391   4.981 -0.8361  0.3241 -0.1471
  140OSM   H12S15332   1.784   1.380   4.921 -1.3118 -1.0865  0.8008
  140OSM   H12T15333   1.928   1.294   4.963  2.2148  1.8653 -0.4874
  140OSM   C13S15334   1.971   1.495   4.928  0.7607  0.2008  0.4187
  140OSM   H13S15335   2.055   1.496   5.000  1.1312  1.5563 -0.0126
  140OSM   H13T15336   1.922   1.595   4.932  0.6219  0.0872  1.6567
  140OSM   C14S15337   2.028   1.461   4.787  0.8897  0.3492 -0.4986
  140OSM   H14S15338   2.099   1.376   4.785  0.1601 -0.3178  0.7557
  140OSM   H14T15339   2.067   1.556   4.745  0.1968  0.7651 -0.2186
  140OSM   C15S15340   1.914   1.418   4.685  0.0455  0.6406  0.1632
  140OSM   H15S15341   1.827   1.487   4.677 -1.0991 -0.7405  0.2155
  140OSM   H15T15342   1.867   1.322   4.714  3.1389 -2.0285 -2.7077
  140OSM   C16S15343   1.978   1.378   4.552 -0.7479 -0.4482  0.1232
  140OSM   H16S15344   2.045   1.292   4.573  1.2467  1.3985  1.7211
  140OSM   H16T15345   2.041   1.460   4.514 -0.9776 -0.6732 -0.7689
  140OSM   C17S15346   1.888   1.323   4.444 -0.0530 -0.3816 -0.4477
  140OSM   H17S15347   1.835   1.229   4.468  2.2234 -1.4090  0.8924
  140OSM   H17T15348   1.961   1.307   4.361  2.5885  0.5080  1.5469
  140OSM   C18S15349   1.801   1.435   4.396  0.4896  0.1810  0.2558
  140OSM   H18S15350   1.753   1.479   4.485  0.5970  0.7595  0.0326
  140OSM   H18T15351   1.724   1.403   4.322 -0.0361  1.7917  0.0760
  140OSM   H18U15352   1.845   1.514   4.331 -1.7245  2.6177  1.5268
  140OSM    C1F15353   1.349   1.300   6.062  0.6244  0.4770  0.2658
  140OSM     OF15354   1.278   1.389   6.107 -0.3838  0.3517  0.6315
  140OSM    C2F15355   1.299   1.170   6.022  0.5281  0.1527  0.6177
  140OSM    H2F15356   1.188   1.176   6.024  0.3731 -1.2513 -1.1618
  140OSM    H2G15357   1.318   1.098   6.105  0.0876 -0.8967 -0.1633
  140OSM    C3F15358   1.345   1.127   5.878 -0.3689  0.6415 -0.5049
  140OSM    H3F15359   1.295   1.030   5.859 -0.1184  0.1469  1.1727
  140OSM    H3G15360   1.453   1.103   5.892 -0.6178 -0.2807 -0.0875
  140OSM    C4F15361   1.317   1.244   5.781  0.3494  0.2557  0.0048
  140OSM    H4F15362   1.372   1.339   5.801 -2.5596  2.2602 -0.9349
  140OSM    H4G15363   1.208   1.259   5.774  0.4425  0.6155 -0.7143
  140OSM    C5F15364   1.367   1.207   5.634  0.0492  0.4653  0.4892
  140OSM    H5F15365   1.319   1.108   5.613 -0.7536  0.9780 -0.1722
  140OSM    H5G15366   1.478   1.211   5.644 -0.0687  0.3256  2.0824
  140OSM    C6F15367   1.322   1.305   5.525  0.2248  0.5086 -0.1667
  140OSM    H6F15368   1.390   1.392   5.532 -1.0663  1.4746  0.9192
  140OSM    H6G15369   1.216   1.321   5.554  0.2607 -1.3470  1.1886
  140OSM    C7F15370   1.330   1.247   5.384 -0.1987  0.2268 -0.7038
  140OSM    H7F15371   1.291   1.143   5.376 -0.3436  0.3373 -1.4777
  140OSM    H7G15372   1.436   1.236   5.356  0.8770 -0.5520  3.0497
  140OSM    C8F15373   1.276   1.341   5.274 -0.6841  0.0134 -0.3118
  140OSM    H8F15374   1.317   1.302   5.178 -2.3997 -1.9658 -0.3011
  140OSM    H8G15375   1.321   1.442   5.292 -1.1230 -0.2019  2.3321
  140OSM    C9F15376   1.134   1.340   5.247  0.0481  0.4426  0.1818
  140OSM    H9F15377   1.079   1.364   5.339  2.1450 -0.6590  1.8130
  140OSM   C10F15378   1.061   1.304   5.139  0.1182 -0.1152 -0.0359
  140OSM   H10F15379   0.951   1.295   5.150  0.0720 -0.1051 -0.5072
  140OSM   C11F15380   1.118   1.257   5.005 -0.1664 -0.9280  0.4162
  140OSM   H11F15381   1.227   1.255   4.986  0.0934  2.0069  1.1151
  140OSM   H11G15382   1.088   1.329   4.925  1.8061  0.3497  0.7572
  140OSM   C12F15383   1.086   1.111   4.965 -0.0370  0.3416 -0.4092
  140OSM   H12F15384   0.984   1.079   4.997  0.1898  0.2247  0.2197
  140OSM   H12G15385   1.152   1.050   5.031 -2.2247 -1.8571 -0.1089
  140OSM   C13F15386   1.101   1.072   4.819 -0.2202 -0.4471  0.5940
  140OSM   H13F15387   1.202   1.106   4.787  0.4202 -3.0373 -0.3938
  140OSM   H13G15388   1.013   1.119   4.770 -0.5165 -0.5669  1.0055
  140OSM   C14F15389   1.087   0.920   4.802  0.7057 -0.0018 -0.0021
  140OSM   H14F15390   1.038   0.882   4.894  1.2441 -2.2603 -0.5853
  140OSM   H14G15391   1.187   0.872   4.787  1.0981  0.9004 -0.3272
  140OSM   C15F15392   0.991   0.878   4.684 -0.1103 -0.5224 -0.4308
  140OSM   H15F15393   1.046   0.913   4.593  0.3264 -2.4127 -0.9311
  140OSM   H15G15394   0.889   0.922   4.695  0.4238  0.3691  1.3480
  140OSM   C16F15395   0.984   0.726   4.663  0.0045  0.4260 -0.5629
  140OSM   H16F15396   0.952   0.672   4.754 -1.1371  0.5859 -0.8573
  140OSM   H16G15397   1.088   0.695   4.639 -0.6569 -0.2410 -2.9136
  140OSM   C17F15398   0.890   0.676   4.555 -0.0512 -0.4063 -0.5261
  140OSM   H17F15399   0.887   0.751   4.474  1.9601  0.7524  0.3947
  140OSM   H17G15400   0.787   0.677   4.598 -0.0772  0.9253 -0.5611
  140OSM   C18F15401   0.930   0.543   4.492 -0.5460  0.2281 -0.1338
  140OSM   H18F15402   0.844   0.499   4.437 -0.9841 -0.3713  0.9933
  140OSM   H18G15403   0.964   0.466   4.565  1.0587 -1.2892 -2.3586
  140OSM   H18H15404   1.013   0.559   4.420  1.3399 -4.0635  0.7766
  141OSM      N15405   6.794   3.150   6.316 -0.1826 -0.7803 -0.1789
  141OSM    C1515406   6.746   3.204   6.448 -0.4826 -0.3173 -0.8026
  141OSM   H15A15407   6.715   3.122   6.511 -0.9857  0.9244  0.6388
  141OSM   H15B15408   6.652   3.257   6.441 -0.2799  0.6808  2.4177
  141OSM   H15C15409   6.817   3.265   6.502  0.1559 -2.7056  1.2285
  141OSM    C1415410   6.904   3.061   6.372 -0.6615 -0.3478  0.3002
  141OSM   H14A15411   6.978   3.108   6.435  1.4857 -3.0296 -0.0496
  141OSM   H14B15412   6.976   3.024   6.300  0.3285  1.3703  0.3475
  141OSM   H14C15413   6.861   2.984   6.433 -2.3503  1.1835  1.1450
  141OSM    C1315414   6.684   3.088   6.244  0.6283 -0.8450  0.6092
  141OSM   H13A15415   6.717   3.030   6.158  0.4035  1.5132 -1.1716
  141OSM   H13B15416   6.623   3.167   6.203  2.4888  0.5426  0.3511
  141OSM   H13C15417   6.629   3.017   6.304  0.3516 -1.4010 -0.2711
  141OSM    C1215418   6.868   3.261   6.240 -0.1720  0.6935  0.1058
  141OSM   H12A15419   6.941   3.312   6.302 -0.7991  0.3933  1.1098
  141OSM   H12B15420   6.787   3.325   6.209 -0.1645  0.5162 -0.2955
  141OSM    C1115421   6.945   3.214   6.112 -0.4633 -0.2070 -0.1410
  141OSM   H11A15422   6.951   3.292   6.034  1.0359 -1.6095 -1.4961
  141OSM   H11B15423   6.877   3.139   6.067 -2.9151  0.5973  1.9736
  141OSM      P15424   7.194   3.227   6.160 -0.0797  0.2169  0.3834
  141OSM    O1315425   7.154   3.371   6.174  0.3393  0.3216  0.0475
  141OSM    O1415426   7.268   3.167   6.273  0.0980 -0.1073 -0.0831
  141OSM    O1115427   7.289   3.217   6.024  0.2990  0.1598  0.4133
  141OSM    O1215428   7.062   3.141   6.142  0.2378  0.0962 -0.0299
  141OSM    C1S15429   7.254   3.112   5.933  0.9541 -0.8007 -0.2741
  141OSM    H1S15430   7.145   3.111   5.912  0.4381  0.0004  2.0354
  141OSM    H1T15431   7.279   3.015   5.981 -1.3759 -2.0280 -1.3611
  141OSM     NF15432   7.280   3.067   5.690  0.2543  0.1017 -0.6744
  141OSM    HNF15433   7.329   2.983   5.667  0.6546 -0.3865  1.6579
  141OSM    C2S15434   7.335   3.128   5.802  0.2236 -0.8330 -0.4596
  141OSM    H2S15435   7.332   3.237   5.786  0.5800 -0.2626  2.6569
  141OSM    C3S15436   7.480   3.104   5.828  0.1683  0.3564 -0.1736
  141OSM    H3S15437   7.497   3.000   5.864 -1.3455  0.3764  0.6565
  141OSM     O315438   7.527   3.181   5.936  0.1518 -0.1868  0.5062
  141OSM    HO315439   7.446   3.206   5.980 -0.0146 -0.3682  0.3057
  141OSM    C4S15440   7.575   3.138   5.722  0.0270  0.4004  0.4374
  141OSM    H4S15441   7.576   3.244   5.694  1.2917  0.0910 -0.8302
  141OSM    C5S15442   7.648   3.055   5.646 -0.2397 -0.0252 -0.5286
  141OSM    H5S15443   7.661   2.948   5.668  2.9515  0.6411  1.5146
  141OSM    C6S15444   7.731   3.101   5.536 -0.3373 -0.0670  0.1419
  141OSM    H6S15445   7.838   3.071   5.530 -0.9534 -2.2523 -1.2466
  141OSM    H6T15446   7.743   3.210   5.525  0.1961 -0.0488  0.8128
  141OSM    C7S15447   7.666   3.043   5.405 -0.1206 -0.4564 -0.4709
  141OSM    H7S15448   7.630   2.938   5.415  1.4613 -0.8924  1.1089
  141OSM    H7T15449   7.742   3.047   5.325 -0.5318  1.6567 -0.8324
  141OSM    C8S15450   7.548   3.127   5.344  0.1188  0.1565  0.8128
  141OSM    H8S15451   7.558   3.234   5.372  2.3271 -0.3537  2.2036
  141OSM    H8T15452   7.452   3.094   5.390 -1.0388 -1.2457 -2.2844
  141OSM    C9S15453   7.537   3.106   5.185  0.1360 -0.0340  0.7990
  141OSM    H9S15454   7.635   3.108   5.133 -0.7068 -1.7876 -1.0168
  141OSM    H9T15455   7.474   3.194   5.160 -1.1782 -0.8341  1.1620
  141OSM   C10S15456   7.479   2.969   5.150 -0.5797 -0.1360 -0.0818
  141OSM   H10S15457   7.377   2.957   5.194 -0.6503 -0.7630 -0.4050
  141OSM   H10T15458   7.532   2.883   5.195  0.5979  1.4424  1.7133
  141OSM   C11S15459   7.458   2.942   5.002 -0.3164 -0.2303 -0.0688
  141OSM   H11S15460   7.405   3.028   4.956  0.0230  0.0374  0.0363
  141OSM   H11T15461   7.375   2.871   4.981 -0.1452 -0.0280 -1.5709
  141OSM   C12S15462   7.582   2.919   4.920 -0.6687 -0.2326 -0.2994
  141OSM   H12S15463   7.653   2.853   4.976  0.5376  2.4337  1.5613
  141OSM   H12T15464   7.637   3.013   4.902 -0.2183 -0.1330  1.4150
  141OSM   C13S15465   7.556   2.864   4.785 -0.2030 -0.2884  0.1612
  141OSM   H13S15466   7.472   2.918   4.736 -0.0716 -0.7201 -0.5596
  141OSM   H13T15467   7.532   2.756   4.785 -0.0470 -0.3448 -1.1035
  141OSM   C14S15468   7.679   2.887   4.695 -0.1904  0.0547 -0.1512
  141OSM   H14S15469   7.720   2.790   4.661 -2.2275 -0.7502 -0.4365
  141OSM   H14T15470   7.764   2.937   4.746 -1.7358  4.2566 -1.2021
  141OSM   C15S15471   7.654   2.971   4.566 -0.3390  0.2052 -0.4623
  141OSM   H15S15472   7.653   3.079   4.590  1.8726 -0.2305  2.0635
  141OSM   H15T15473   7.557   2.943   4.521 -0.7616 -0.0857  0.5969
  141OSM   C16S15474   7.768   2.941   4.466  0.5583 -0.4202  0.2362
  141OSM   H16S15475   7.761   2.834   4.438  0.5305 -0.3017 -0.2251
  141OSM   H16T15476   7.862   2.957   4.523 -0.2201 -1.6502  1.9369
  141OSM   C17S15477   7.766   3.030   4.341 -0.0765  0.5593 -0.8686
  141OSM   H17S15478   7.684   2.994   4.275 -0.9179 -0.4779  0.6532
  141OSM   H17T15479   7.859   3.026   4.281 -0.1773 -1.3741 -0.9773
  141OSM   C18S15480   7.751   3.177   4.375 -0.3662  0.1406 -0.3496
  141OSM   H18S15481   7.830   3.204   4.449 -1.9417  1.7942  0.8104
  141OSM   H18T15482   7.651   3.202   4.417  0.1703  0.9995  0.4477
  141OSM   H18U15483   7.759   3.243   4.287  0.2142  1.8836  0.9438
  141OSM    C1F15484   7.165   3.102   5.634  0.1143  0.4002 -0.6093
  141OSM     OF15485   7.101   3.199   5.673 -0.0398 -0.4865 -0.5277
  141OSM    C2F15486   7.123   3.012   5.516 -1.0158  0.2267 -0.2301
  141OSM    H2F15487   7.087   2.920   5.566  0.2542  0.9168  2.1061
  141OSM    H2G15488   7.212   2.991   5.454  2.1034  0.7389  3.6671
  141OSM    C3F15489   7.005   3.076   5.446 -0.2823  0.0006  0.0619
  141OSM    H3F15490   7.036   3.178   5.416  1.1420 -0.8366 -1.4482
  141OSM    H3G15491   6.926   3.083   5.525 -1.8819 -0.1645 -1.4507
  141OSM    C4F15492   6.945   3.001   5.334  0.6206 -0.5377 -0.0040
  141OSM    H4F15493   6.885   3.077   5.280  1.5500 -0.5167 -1.0483
  141OSM    H4G15494   6.869   2.930   5.372 -1.5896  0.1488 -2.7885
  141OSM    C5F15495   7.041   2.923   5.238 -0.4141 -0.6650 -0.8556
  141OSM    H5F15496   7.096   2.846   5.297 -1.4628  0.1682  1.3279
  141OSM    H5G15497   7.109   2.996   5.188  2.7577 -2.4109  0.5933
  141OSM    C6F15498   6.958   2.851   5.124 -0.5096 -0.8519  0.3155
  141OSM    H6F15499   6.848   2.840   5.135 -1.0839  2.6207 -0.7852
  141OSM    H6G15500   6.999   2.749   5.113  0.2994 -0.8036  2.3410
  141OSM    C7F15501   6.988   2.937   5.000  0.0335  0.2699  0.3850
  141OSM    H7F15502   7.095   2.949   4.974  0.6460 -3.5087  0.6545
  141OSM    H7G15503   6.950   3.037   5.033 -0.5685 -0.2510  1.3214
  141OSM    C8F15504   6.916   2.902   4.866  0.0632 -0.8043  0.0196
  141OSM    H8F15505   6.925   2.792   4.855 -2.0546 -1.2391  1.8699
  141OSM    H8G15506   6.975   2.957   4.789 -0.7875 -0.8883 -0.7228
  141OSM    C9F15507   6.769   2.941   4.853  1.1828 -0.4757 -0.4987
  141OSM    H9F15508   6.721   2.976   4.945  2.2572 -0.3728  0.0303
  141OSM   C10F15509   6.702   2.947   4.738  0.1514  0.2582 -0.4688
  141OSM   H10F15510   6.594   2.969   4.738  0.3262  1.1944  0.2072
  141OSM   C11F15511   6.751   2.903   4.607 -0.3279 -0.1541 -0.2691
  141OSM   H11F15512   6.669   2.862   4.544 -0.7674  1.5908 -0.8773
  141OSM   H11G15513   6.827   2.821   4.604 -0.6751 -0.4647 -0.9912
  141OSM   C12F15514   6.821   3.011   4.521  0.1934  0.2760  0.2430
  141OSM   H12F15515   6.902   3.060   4.578  0.1860  2.6317 -1.5991
  141OSM   H12G15516   6.739   3.085   4.502 -2.1968 -1.3399  3.3946
  141OSM   C13F15517   6.866   2.958   4.385  0.0009  0.3265  0.3445
  141OSM   H13F15518   6.918   2.861   4.377 -2.8065 -1.1692 -1.3943
  141OSM   H13G15519   6.941   3.034   4.354 -0.9532  1.4350  0.6671
  141OSM   C14F15520   6.757   2.955   4.280  0.5953  0.2259  0.3180
  141OSM   H14F15521   6.679   3.030   4.305  0.3549 -0.9734  3.6136
  141OSM   H14G15522   6.702   2.859   4.290 -0.0485  0.3712 -1.4200
  141OSM   C15F15523   6.793   2.956   4.135 -0.3138  0.1281  0.1668
  141OSM   H15F15524   6.858   2.871   4.109 -1.1011 -0.6509  0.6812
  141OSM   H15G15525   6.850   3.048   4.109  0.2872 -0.3865 -0.3660
  141OSM   C16F15526   6.666   2.928   4.045  0.0807  0.1986  0.1596
  141OSM   H16F15527   6.590   3.003   4.077  0.5125  0.0607  1.5779
  141OSM   H16G15528   6.627   2.825   4.057  3.0055 -1.0482 -0.1736
  141OSM   C17F15529   6.686   2.946   3.889  0.0243 -0.0055  0.6267
  141OSM   H17F15530   6.724   3.049   3.875  0.7176 -0.3968 -0.5270
  141OSM   H17G15531   6.590   2.931   3.835  1.0326 -2.0690 -0.7532
  141OSM   C18F15532   6.785   2.844   3.819  0.3528 -0.2821  0.7181
  141OSM   H18F15533   6.774   2.741   3.859 -0.4524 -0.1997  0.7183
  141OSM   H18G15534   6.892   2.871   3.838  1.0663 -1.4101 -1.3926
  141OSM   H18H15535   6.772   2.845   3.709 -0.0408  0.0321  0.7665
  142OSM      N15536   6.606   1.476   6.784 -0.1890 -0.3357 -0.1043
  142OSM    C1515537   6.579   1.400   6.907  0.4284  0.3764 -1.2749
  142OSM   H15A15538   6.477   1.415   6.941  0.2687  0.5153 -1.8050
  142OSM   H15B15539   6.655   1.437   6.975 -1.8161  3.2260 -0.0291
  142OSM   H15C15540   6.597   1.296   6.886  2.1545  0.7331 -1.7183
  142OSM    C1415541   6.568   1.618   6.813 -0.1047 -0.1814 -0.7661
  142OSM   H14A15542   6.469   1.621   6.854  0.2706 -1.5297  0.3230
  142OSM   H14B15543   6.555   1.670   6.719  1.8150  0.1902 -0.8853
  142OSM   H14C15544   6.641   1.666   6.877  0.8625 -0.6412 -1.4952
  142OSM    C1315545   6.750   1.480   6.745  0.1014  0.3057  0.1232
  142OSM   H13A15546   6.818   1.513   6.823  0.9469  0.2813 -0.5931
  142OSM   H13B15547   6.771   1.540   6.658 -0.2453  0.8459  0.4049
  142OSM   H13C15548   6.780   1.379   6.723  1.5075  0.3006  1.8281
  142OSM    C1215549   6.526   1.408   6.673  0.1187  0.2026 -0.8681
  142OSM   H12A15550   6.424   1.392   6.706  0.2880  1.3412  0.3080
  142OSM   H12B15551   6.556   1.305   6.666 -0.6598 -0.0695 -0.3703
  142OSM    C1115552   6.533   1.470   6.528 -0.0691  0.6295 -0.3681
  142OSM   H11A15553   6.639   1.453   6.499  0.5550  3.0949  0.2376
  142OSM   H11B15554   6.518   1.579   6.541  0.6283  0.9023 -1.6666
  142OSM      P15555   6.278   1.436   6.466  0.4917  0.0130  0.1808
  142OSM    O1315556   6.229   1.352   6.580 -0.5175 -0.0769  0.3957
  142OSM    O1415557   6.271   1.583   6.479 -0.0596  0.4023  0.6514
  142OSM    O1115558   6.210   1.380   6.338  0.1649  0.2864  0.1398
  142OSM    O1215559   6.435   1.403   6.440  0.1213 -0.1102  0.3881
  142OSM    C1S15560   6.247   1.440   6.212 -0.5190  0.1556  0.2495
  142OSM    H1S15561   6.357   1.449   6.215 -0.3381 -1.6437  0.1563
  142OSM    H1T15562   6.206   1.542   6.198 -1.6647 -0.4205 -0.8323
  142OSM     NF15563   6.284   1.400   5.970  0.0136  0.3954 -0.2341
  142OSM    HNF15564   6.271   1.490   5.929 -0.5187  0.5585  0.2872
  142OSM    C2S15565   6.199   1.362   6.088  0.3044 -0.4312 -0.3598
  142OSM    H2S15566   6.212   1.253   6.101 -0.0537 -0.7433 -2.2144
  142OSM    C3S15567   6.050   1.399   6.071  0.4407 -0.0581 -0.0284
  142OSM    H3S15568   6.035   1.509   6.080 -0.8111 -0.2994  1.1431
  142OSM     O315569   5.973   1.351   6.182  0.5498  0.1856 -0.2559
  142OSM    HO315570   6.037   1.310   6.241 -1.1340  0.3617  1.8380
  142OSM    C4S15571   5.984   1.357   5.933 -0.8364  0.8833 -0.2178
  142OSM    H4S15572   5.957   1.250   5.928  0.9660  0.3339  0.9894
  142OSM    C5S15573   5.948   1.436   5.834 -0.2520  0.0210  0.2970
  142OSM    H5S15574   5.966   1.544   5.848  3.4418 -0.4421  0.0758
  142OSM    C6S15575   5.872   1.400   5.713  0.3287  0.1275 -0.0862
  142OSM    H6S15576   5.776   1.457   5.712  0.6068  0.5984 -0.6869
  142OSM    H6T15577   5.849   1.291   5.717  0.6211 -0.2143 -3.7945
  142OSM    C7S15578   5.938   1.414   5.573 -0.5114 -0.1958  0.0246
  142OSM    H7S15579   6.039   1.367   5.577 -0.0893  0.6310 -0.4620
  142OSM    H7T15580   5.951   1.523   5.558 -0.3830 -0.2329 -0.1471
  142OSM    C8S15581   5.854   1.368   5.457  0.0367 -0.0927 -0.0168
  142OSM    H8S15582   5.751   1.410   5.461 -0.1594 -0.4628 -0.8353
  142OSM    H8T15583   5.838   1.260   5.472 -1.1264  0.3129  1.9257
  142OSM    C9S15584   5.921   1.403   5.332 -0.4512  0.1192 -0.0972
  142OSM    H9S15585   6.029   1.378   5.341 -0.2957  0.0484 -1.7374
  142OSM    H9T15586   5.926   1.512   5.316  0.7816 -0.0239 -0.8672
  142OSM   C10S15587   5.864   1.330   5.209  0.2853  0.1191 -0.2512
  142OSM   H10S15588   5.758   1.362   5.193 -0.0800 -0.8428  0.2008
  142OSM   H10T15589   5.859   1.220   5.222  2.0749  0.0059 -0.2552
  142OSM   C11S15590   5.943   1.351   5.079  0.5264 -0.1222  0.7054
  142OSM   H11S15591   6.042   1.306   5.102  1.5791  0.6010 -2.0398
  142OSM   H11T15592   5.945   1.462   5.069 -1.9313  0.1566  2.3046
  142OSM   C12S15593   5.877   1.295   4.954 -0.3347 -0.2273 -0.5863
  142OSM   H12S15594   5.784   1.355   4.953  1.3711  2.6348  0.0326
  142OSM   H12T15595   5.855   1.189   4.982  1.3798 -0.0863  1.6109
  142OSM   C13S15596   5.959   1.303   4.830  0.2929 -0.1390 -1.1181
  142OSM   H13S15597   6.065   1.293   4.860  0.2186  0.7693 -0.4895
  142OSM   H13T15598   5.945   1.406   4.790 -0.7049  0.4562  0.6275
  142OSM   C14S15599   5.908   1.193   4.738  0.3421  0.2205  0.5170
  142OSM   H14S15600   5.801   1.203   4.707  0.3736  0.0472  0.3519
  142OSM   H14T15601   5.923   1.093   4.784  1.5761 -0.3773 -1.0877
  142OSM   C15S15602   5.987   1.178   4.607  0.5298 -0.4120 -0.2536
  142OSM   H15S15603   5.962   1.078   4.565  1.1629 -0.7857  0.2524
  142OSM   H15T15604   6.094   1.183   4.635  0.5200  0.5910 -0.3579
  142OSM   C16S15605   5.954   1.289   4.503  0.6439 -0.1813  0.6124
  142OSM   H16S15606   6.046   1.288   4.442  0.8876 -1.6131  0.9667
  142OSM   H16T15607   5.939   1.389   4.549 -2.4552 -0.1381 -0.2542
  142OSM   C17S15608   5.830   1.267   4.421  0.0032 -0.0663  0.1328
  142OSM   H17S15609   5.743   1.262   4.489  0.6130 -0.4182  0.9076
  142OSM   H17T15610   5.842   1.173   4.363  2.3124  0.6794 -0.7118
  142OSM   C18S15611   5.812   1.375   4.313 -0.3393 -0.4168 -0.7967
  142OSM   H18S15612   5.723   1.350   4.251 -0.6672  0.5803 -0.7420
  142OSM   H18T15613   5.904   1.382   4.250  0.6371  1.0973  0.7210
  142OSM   H18U15614   5.788   1.474   4.357 -0.8711 -0.5409 -0.8020
  142OSM    C1F15615   6.398   1.348   5.950  0.7596  1.2828 -0.1810
  142OSM     OF15616   6.441   1.256   6.026 -0.2573  0.4827  0.3085
  142OSM    C2F15617   6.469   1.390   5.824 -0.4481  0.3152 -0.4338
  142OSM    H2F15618   6.480   1.305   5.753  0.3564  2.4096 -2.9586
  142OSM    H2G15619   6.569   1.434   5.840  0.1233 -0.7916 -0.8536
  142OSM    C3F15620   6.393   1.502   5.745  0.0409 -0.7274 -0.6428
  142OSM    H3F15621   6.394   1.594   5.809  2.0877 -1.8439  1.0667
  142OSM    H3G15622   6.287   1.482   5.719  0.3945  0.2750 -3.1652
  142OSM    C4F15623   6.463   1.525   5.609  0.4869  0.0522 -0.0511
  142OSM    H4F15624   6.573   1.534   5.621  0.1619  2.3137  2.0772
  142OSM    H4G15625   6.444   1.622   5.560  1.8799  0.4662  0.1792
  142OSM    C5F15626   6.451   1.411   5.508  1.1904 -0.4475  0.6105
  142OSM    H5F15627   6.456   1.306   5.545  1.3386  0.2798  2.8175
  142OSM    H5G15628   6.532   1.422   5.433  0.5462 -1.9225 -0.3349
  142OSM    C6F15629   6.316   1.426   5.426  0.2692  0.3541  0.5407
  142OSM    H6F15630   6.292   1.532   5.405  1.6404  0.4761 -0.5319
  142OSM    H6G15631   6.239   1.379   5.491  0.3469 -1.1828 -0.4307
  142OSM    C7F15632   6.316   1.350   5.293 -0.1725 -0.5468  0.0252
  142OSM    H7F15633   6.212   1.329   5.259 -0.1509 -1.0211  0.2404
  142OSM    H7G15634   6.370   1.253   5.297  1.0116  0.0092 -1.5422
  142OSM    C8F15635   6.358   1.449   5.171  0.5937  0.2117 -0.6581
  142OSM    H8F15636   6.457   1.493   5.197 -0.1956  0.9989  1.1706
  142OSM    H8G15637   6.284   1.531   5.160  1.3055  0.6990 -2.1039
  142OSM    C9F15638   6.363   1.377   5.044 -0.0427  0.0287  0.2847
  142OSM    H9F15639   6.419   1.282   5.053 -1.6098 -1.1584 -1.6994
  142OSM   C10F15640   6.305   1.418   4.930  0.0184 -0.4842  0.4222
  142OSM   H10F15641   6.285   1.351   4.845  0.2470 -0.3976  0.3003
  142OSM   C11F15642   6.247   1.553   4.898 -0.1351  0.0963 -0.1787
  142OSM   H11F15643   6.272   1.629   4.975  1.3135  0.9864 -1.4406
  142OSM   H11G15644   6.137   1.545   4.885 -0.0739  0.2947 -0.8674
  142OSM   C12F15645   6.293   1.614   4.763 -0.3360  0.3936 -0.8793
  142OSM   H12F15646   6.403   1.625   4.756  0.2358 -2.9978  0.5537
  142OSM   H12G15647   6.246   1.715   4.762  1.8890  1.4714 -1.3156
  142OSM   C13F15648   6.253   1.520   4.649  0.4062 -0.5451  0.5732
  142OSM   H13F15649   6.158   1.472   4.679  0.0796 -0.0170  0.3989
  142OSM   H13G15650   6.321   1.437   4.619  0.9011 -0.5076  1.5320
  142OSM   C14F15651   6.214   1.601   4.521  0.9818 -0.6807  0.1837
  142OSM   H14F15652   6.195   1.525   4.442  0.7746  0.8993 -1.3498
  142OSM   H14G15653   6.304   1.663   4.498  0.3207 -0.6791 -2.8005
  142OSM   C15F15654   6.091   1.692   4.536  0.3289 -0.1916  0.0116
  142OSM   H15F15655   6.129   1.790   4.571  0.9401 -0.0421 -1.0236
  142OSM   H15G15656   6.015   1.648   4.604  2.3632 -2.2846  1.0684
  142OSM   C16F15657   6.022   1.716   4.400 -0.4356  0.0650 -0.3025
  142OSM   H16F15658   5.924   1.665   4.391 -0.4981  0.1330 -0.0137
  142OSM   H16G15659   6.099   1.680   4.328  1.5754  0.2015  1.6676
  142OSM   C17F15660   5.992   1.855   4.372  0.7604 -0.3399 -0.1321
  142OSM   H17F15661   6.074   1.930   4.379 -0.8097  1.8603 -2.9212
  142OSM   H17G15662   5.906   1.885   4.435  0.5935 -0.7409 -0.1684
  142OSM   C18F15663   5.937   1.879   4.225 -0.5195  0.6697  0.1558
  142OSM   H18F15664   6.018   1.865   4.150 -0.5219 -0.5862  0.3722
  142OSM   H18G15665   5.893   1.978   4.202 -2.0592 -0.2040 -0.8011
  142OSM   H18H15666   5.850   1.811   4.219  1.1972 -1.8210  1.6702
  143OSM      N15667   6.841   5.052   6.083  0.4350  0.3259 -0.1668
  143OSM    C1515668   6.825   5.073   5.937  0.4541 -0.0471  0.2559
  143OSM   H15A15669   6.828   5.178   5.911 -2.7213  0.3023  0.9519
  143OSM   H15B15670   6.730   5.033   5.905 -0.6079  2.1094  0.5570
  143OSM   H15C15671   6.899   5.013   5.886 -1.6365 -0.7676 -2.0757
  143OSM    C1415672   6.743   5.134   6.156 -0.4407 -0.1150  0.6604
  143OSM   H14A15673   6.740   5.135   6.264 -1.8382 -2.2185  0.7087
  143OSM   H14B15674   6.642   5.104   6.133  0.6264 -1.4190 -3.0555
  143OSM   H14C15675   6.748   5.235   6.119 -1.2130 -0.5428 -0.6808
  143OSM    C1315676   6.807   4.908   6.111  0.4198  0.1786  0.1884
  143OSM   H13A15677   6.859   4.839   6.045  0.3945  2.3073 -2.2094
  143OSM   H13B15678   6.704   4.880   6.092  1.4807 -3.6394 -0.8924
  143OSM   H13C15679   6.823   4.884   6.215 -0.7606  1.0833  0.6016
  143OSM    C1215680   6.985   5.089   6.121 -0.3871  0.1226  0.2457
  143OSM   H12A15681   6.993   5.055   6.224  0.6684  0.3287  0.2429
  143OSM   H12B15682   7.012   5.193   6.122 -2.7143  0.7889  2.0122
  143OSM    C1115683   7.097   5.028   6.033 -0.2372  0.2150 -0.4577
  143OSM   H11A15684   7.086   5.058   5.926  0.1668 -1.2701 -0.9344
  143OSM   H11B15685   7.079   4.919   6.034  1.5287 -0.1089  0.7866
  143OSM      P15686   7.316   5.148   6.038 -0.6406  0.3052 -0.0249
  143OSM    O1315687   7.334   5.252   6.144  0.5517  0.0417 -0.7801
  143OSM    O1415688   7.441   5.086   5.983  0.8865  0.5489  0.9370
  143OSM    O1115689   7.242   5.216   5.918 -0.0267  0.7763 -0.1653
  143OSM    O1215690   7.226   5.035   6.093 -0.5785 -0.2726  0.4767
  143OSM    C1S15691   7.306   5.259   5.798 -0.3475  0.5180 -0.2987
  143OSM    H1S15692   7.362   5.175   5.751  2.6388  1.6345  1.0148
  143OSM    H1T15693   7.383   5.338   5.808 -0.1231  0.1136  1.4243
  143OSM     NF15694   7.261   5.333   5.571 -0.3768 -0.3875 -0.0011
  143OSM    HNF15695   7.309   5.420   5.559 -0.1505  0.5900  5.5022
  143OSM    C2S15696   7.203   5.299   5.695  0.0625 -0.3440 -0.1772
  143OSM    H2S15697   7.132   5.216   5.680 -2.1135  1.5529 -1.0008
  143OSM    C3S15698   7.102   5.405   5.760  0.1690  0.5678  0.3203
  143OSM    H3S15699   7.168   5.489   5.791  1.3469  0.5202 -1.9152
  143OSM     O315700   7.030   5.357   5.877  0.3899  0.6300  0.1192
  143OSM    HO315701   7.072   5.276   5.906 -0.7032 -1.0817 -2.6771
  143OSM    C4S15702   7.000   5.445   5.658 -0.0832  0.6573  0.4892
  143OSM    H4S15703   6.933   5.363   5.627  1.5736  0.0034 -1.5661
  143OSM    C5S15704   6.975   5.570   5.612 -0.5188 -0.1644  0.5037
  143OSM    H5S15705   7.036   5.654   5.649 -1.0302  0.6516 -0.4490
  143OSM    C6S15706   6.873   5.603   5.503 -0.5862  0.2017  0.3530
  143OSM    H6S15707   6.898   5.703   5.461  0.6623 -0.1839  0.1332
  143OSM    H6T15708   6.770   5.609   5.545 -0.8885 -1.6996 -0.0261
  143OSM    C7S15709   6.840   5.508   5.388  0.2204 -0.3027 -0.3484
  143OSM    H7S15710   6.770   5.429   5.424 -0.1785  0.3721  0.3762
  143OSM    H7T15711   6.931   5.461   5.345 -0.9725 -1.1173 -2.1453
  143OSM    C8S15712   6.788   5.582   5.265  0.2566 -0.1061 -0.1696
  143OSM    H8S15713   6.688   5.627   5.278  0.3368  0.0162  0.0233
  143OSM    H8T15714   6.774   5.504   5.187 -2.2364  1.1339 -1.0622
  143OSM    C9S15715   6.884   5.688   5.206  0.2148  0.6462 -0.5618
  143OSM    H9S15716   6.985   5.643   5.193 -0.7135 -2.3321  1.4462
  143OSM    H9T15717   6.885   5.774   5.276 -2.9775  0.8221 -0.6196
  143OSM   C10S15718   6.840   5.737   5.065 -0.2983 -0.2319 -0.3230
  143OSM   H10S15719   6.896   5.831   5.048  1.1602 -0.7821  1.1859
  143OSM   H10T15720   6.734   5.768   5.077 -0.7627 -1.9330  0.1643
  143OSM   C11S15721   6.857   5.640   4.948  0.1117 -0.3805  0.3996
  143OSM   H11S15722   6.816   5.540   4.975  1.6896 -0.3310  3.3077
  143OSM   H11T15723   6.966   5.634   4.927 -0.2241  0.2157 -1.7919
  143OSM   C12S15724   6.783   5.681   4.819  0.0103  0.5939  0.5100
  143OSM   H12S15725   6.677   5.706   4.842 -0.2819 -0.6052  0.5472
  143OSM   H12T15726   6.779   5.594   4.750  0.1615  1.2106 -0.2906
  143OSM   C13S15727   6.864   5.795   4.757 -0.9636 -0.0842 -0.8538
  143OSM   H13S15728   6.972   5.770   4.750 -0.7707  0.2087  0.7114
  143OSM   H13T15729   6.858   5.889   4.815  1.7514 -1.3063  1.7118
  143OSM   C14S15730   6.817   5.823   4.612  0.9389  0.3015 -0.2658
  143OSM   H14S15731   6.719   5.874   4.603  1.1573  1.3011  2.2929
  143OSM   H14T15732   6.814   5.723   4.563 -1.4723 -1.5395  3.2457
  143OSM   C15S15733   6.924   5.900   4.528 -0.8293 -0.1287  0.2130
  143OSM   H15S15734   6.984   5.978   4.581 -1.1983  1.1567 -1.1686
  143OSM   H15T15735   6.871   5.962   4.452 -1.4275  2.1545  2.3619
  143OSM   C16S15736   7.024   5.810   4.452  0.6652 -0.1115 -0.5565
  143OSM   H16S15737   6.963   5.729   4.409  0.2560 -0.7231  1.1013
  143OSM   H16T15738   7.090   5.759   4.526  1.6062 -0.6090 -1.7033
  143OSM   C17S15739   7.110   5.888   4.356 -0.5251 -0.5971 -0.2767
  143OSM   H17S15740   7.192   5.936   4.414 -0.4317 -1.2171  0.1139
  143OSM   H17T15741   7.053   5.971   4.308 -1.4084 -1.4004 -0.6389
  143OSM   C18S15742   7.179   5.818   4.243 -0.4055  0.4006  0.6995
  143OSM   H18S15743   7.101   5.773   4.177  0.2030  1.4553 -0.7775
  143OSM   H18T15744   7.238   5.732   4.281  0.1951 -1.0290 -3.0476
  143OSM   H18U15745   7.253   5.876   4.184  1.4492 -2.5554 -0.1378
  143OSM    C1F15746   7.294   5.241   5.483 -0.3898 -0.2332 -0.1132
  143OSM     OF15747   7.280   5.121   5.500  0.1600  0.1446 -0.6130
  143OSM    C2F15748   7.362   5.287   5.359 -0.2565 -0.4751  0.2795
  143OSM    H2F15749   7.435   5.210   5.326  0.2277 -0.0305  0.3035
  143OSM    H2G15750   7.420   5.381   5.364  0.4017 -0.7886 -0.9110
  143OSM    C3F15751   7.258   5.304   5.249  0.4231  0.2980 -0.0770
  143OSM    H3F15752   7.184   5.380   5.279 -0.1195 -0.4366  0.4745
  143OSM    H3G15753   7.203   5.209   5.233 -0.5695  0.9253 -0.4770
  143OSM    C4F15754   7.329   5.331   5.110 -0.5740 -0.9991 -0.2872
  143OSM    H4F15755   7.337   5.233   5.058  1.0423 -1.1072  0.0925
  143OSM    H4G15756   7.430   5.375   5.126 -1.3219  0.1358  1.7041
  143OSM    C5F15757   7.245   5.424   5.027  0.0756 -0.2127 -0.0996
  143OSM    H5F15758   7.195   5.497   5.094 -0.7120 -2.2095  1.6093
  143OSM    H5G15759   7.167   5.350   4.998 -0.2363 -0.2496  0.8136
  143OSM    C6F15760   7.310   5.472   4.898 -0.2629  0.0229  0.0561
  143OSM    H6F15761   7.342   5.378   4.848 -2.8650 -0.1559 -1.4703
  143OSM    H6G15762   7.408   5.516   4.926  0.0407 -1.1137  0.8067
  143OSM    C7F15763   7.230   5.567   4.818  0.4786 -0.0928  0.2265
  143OSM    H7F15764   7.222   5.668   4.862 -2.4971  0.4016 -1.1635
  143OSM    H7G15765   7.123   5.541   4.798 -0.4131  1.2940  2.8131
  143OSM    C8F15766   7.294   5.608   4.682 -0.5292  0.6284 -0.2171
  143OSM    H8F15767   7.398   5.643   4.704 -0.4175  0.4294 -0.4273
  143OSM    H8G15768   7.222   5.686   4.647 -1.5926 -1.3631 -2.7828
  143OSM    C9F15769   7.298   5.497   4.582  0.2008  0.1648  0.7993
  143OSM    H9F15770   7.232   5.409   4.587  0.3397  0.1076  1.6769
  143OSM   C10F15771   7.389   5.483   4.485 -0.1699 -0.7461  0.2444
  143OSM   H10F15772   7.365   5.407   4.410 -1.6508  0.1032 -0.1842
  143OSM   C11F15773   7.502   5.580   4.441  0.9030  0.4302 -0.2187
  143OSM   H11F15774   7.523   5.641   4.531  0.2117  0.7767 -0.2816
  143OSM   H11G15775   7.458   5.660   4.377 -0.2697  0.3962  0.5096
  143OSM   C12F15776   7.636   5.531   4.389 -0.4497  0.0030 -0.3267
  143OSM   H12F15777   7.672   5.462   4.468  1.2103  1.3225  0.1185
  143OSM   H12G15778   7.712   5.610   4.375  0.7478 -0.4605  2.8435
  143OSM   C13F15779   7.614   5.444   4.265 -0.2517 -0.3390 -0.3760
  143OSM   H13F15780   7.541   5.367   4.299  0.9530 -1.1201  0.5294
  143OSM   H13G15781   7.702   5.390   4.224  0.5920  2.3578 -2.3919
  143OSM   C14F15782   7.557   5.527   4.148  0.7845  0.2355  1.0011
  143OSM   H14F15783   7.624   5.615   4.138  3.4838 -1.6542  1.2000
  143OSM   H14G15784   7.454   5.558   4.175  0.7426  0.1198  0.9761
  143OSM   C15F15785   7.544   5.439   4.022  0.2922 -0.2092 -0.4077
  143OSM   H15F15786   7.646   5.419   3.982 -0.1414  0.4098 -1.9145
  143OSM   H15G15787   7.496   5.502   3.944  1.2285  1.5157  0.3338
  143OSM   C16F15788   7.465   5.308   4.037  1.0333 -0.4998  0.6951
  143OSM   H16F15789   7.369   5.333   4.087  0.2434 -0.0718 -0.9573
  143OSM   H16G15790   7.512   5.241   4.112 -0.0102 -0.7325  1.1658
  143OSM   C17F15791   7.437   5.239   3.902  0.0352  0.1773 -0.0494
  143OSM   H17F15792   7.538   5.233   3.857  0.0545  1.2483 -0.1679
  143OSM   H17G15793   7.373   5.302   3.837 -0.8790 -0.1383  0.5175
  143OSM   C18F15794   7.363   5.099   3.905 -0.1951 -1.2457  0.5826
  143OSM   H18F15795   7.260   5.109   3.946  0.3348 -1.7436  2.0992
  143OSM   H18G15796   7.409   5.021   3.969  1.7108 -2.2102 -1.8020
  143OSM   H18H15797   7.363   5.055   3.803  1.1857 -0.4804  0.2173
  144OSM      N15798   0.340   4.783   6.299  0.5340  0.4767 -0.0855
  144OSM    C1515799   0.410   4.910   6.340 -0.2622 -0.3512 -0.1139
  144OSM   H15A15800   0.514   4.890   6.359 -0.4331 -1.5547 -0.3223
  144OSM   H15B15801   0.366   4.959   6.425 -1.4439 -2.1993  0.4044
  144OSM   H15C15802   0.411   4.988   6.265 -0.7375 -1.2009 -1.0428
  144OSM    C1415803   0.355   4.678   6.401  1.0522  0.3097 -0.1647
  144OSM   H14A15804   0.459   4.648   6.401  0.8503 -0.5015 -2.0412
  144OSM   H14B15805   0.307   4.589   6.365 -0.3476  0.2338  1.7184
  144OSM   H14C15806   0.312   4.709   6.495  0.1802  0.7795 -0.7135
  144OSM    C1315807   0.191   4.815   6.283 -0.8229 -0.8468 -1.1280
  144OSM   H13A15808   0.142   4.830   6.378  0.3324  0.5640 -0.7221
  144OSM   H13B15809   0.143   4.738   6.224  0.9307 -4.2129  1.4953
  144OSM   H13C15810   0.189   4.903   6.219  1.1021 -1.5262 -2.2119
  144OSM    C1215811   0.404   4.732   6.170 -0.4564 -0.2762  0.4053
  144OSM   H12A15812   0.508   4.706   6.181 -0.5106 -0.0760  1.5450
  144OSM   H12B15813   0.410   4.815   6.102  0.3914  0.7902  1.7198
  144OSM    C1115814   0.330   4.618   6.098  0.2494  0.2808  0.5417
  144OSM   H11A15815   0.328   4.525   6.158  4.0425 -0.8815 -0.8308
  144OSM   H11B15816   0.390   4.606   6.005 -1.9145  1.6483 -1.1225
  144OSM      P15817   0.114   4.572   5.961  0.1921  0.1211 -0.0222
  144OSM    O1315818   0.188   4.458   5.902 -0.3317 -0.5542  0.4723
  144OSM    O1415819  -0.009   4.534   6.030 -0.2739  0.0593 -0.4820
  144OSM    O1115820   0.057   4.661   5.846  0.2090  0.0932 -0.0237
  144OSM    O1215821   0.203   4.671   6.048 -0.2219 -0.1451 -0.1972
  144OSM    C1S15822   0.145   4.755   5.779 -0.7063 -0.4218 -0.5966
  144OSM    H1S15823   0.244   4.714   5.748 -0.8664 -1.1643 -0.1412
  144OSM    H1T15824   0.169   4.836   5.851 -0.4253  0.0602 -1.2194
  144OSM     NF15825   0.179   4.857   5.553 -0.1436 -0.5598  0.0397
  144OSM    HNF15826   0.179   4.951   5.519  3.0135 -0.8107 -0.9579
  144OSM    C2S15827   0.081   4.803   5.657 -0.0885 -0.1188  0.5318
  144OSM    H2S15828   0.030   4.718   5.608 -0.9709  0.8422 -0.2793
  144OSM    C3S15829  -0.026   4.906   5.693  0.0941  0.6867  0.1438
  144OSM    H3S15830   0.018   4.990   5.751 -2.0255  2.7934 -1.1339
  144OSM     O315831  -0.118   4.852   5.789 -0.8243  0.3405 -0.3255
  144OSM    HO315832  -0.071   4.772   5.815  1.2051  1.5944  0.0891
  144OSM    C4S15833  -0.099   4.970   5.575  0.2961 -0.5047  1.0439
  144OSM    H4S15834  -0.033   5.037   5.518 -0.2063  0.8592  2.0089
  144OSM    C5S15835  -0.223   4.947   5.531  0.6703 -0.1955  0.0759
  144OSM    H5S15836  -0.274   4.881   5.603  2.1007  0.1714  1.4994
  144OSM    C6S15837  -0.304   5.009   5.418  0.0673  0.0135 -0.1743
  144OSM    H6S15838  -0.384   5.065   5.470  3.1329  2.5683  2.1717
  144OSM    H6T15839  -0.347   4.919   5.368 -0.2528 -0.4925  0.9730
  144OSM    C7S15840  -0.229   5.090   5.311  0.4653  0.6353  0.2649
  144OSM    H7S15841  -0.154   5.160   5.353 -0.4887  2.2939 -0.6828
  144OSM    H7T15842  -0.307   5.153   5.262 -0.1451 -0.4599 -0.2158
  144OSM    C8S15843  -0.165   4.999   5.208 -0.5127 -0.2208  0.4154
  144OSM    H8S15844  -0.206   4.899   5.182 -1.4931  0.7923 -2.4025
  144OSM    H8T15845  -0.067   4.965   5.246  0.0999 -2.0836 -2.4498
  144OSM    C9S15846  -0.125   5.087   5.087 -0.1776  0.7049  0.5128
  144OSM    H9S15847  -0.112   5.193   5.119 -1.1156  0.5249  1.5711
  144OSM    H9T15848  -0.201   5.089   5.006 -0.7926  2.6344  1.0721
  144OSM   C10S15849   0.009   5.053   5.022 -0.3460 -0.3167  0.5794
  144OSM   H10S15850   0.090   5.037   5.095  0.7231  0.0442 -0.4919
  144OSM   H10T15851   0.028   5.139   4.954  1.3911 -0.8501  0.3611
  144OSM   C11S15852   0.008   4.939   4.925 -0.6699  0.6887 -0.6501
  144OSM   H11S15853  -0.066   4.960   4.845  0.7534  1.0411 -1.9263
  144OSM   H11T15854  -0.024   4.844   4.972  2.4956  0.2984  0.9414
  144OSM   C12S15855   0.134   4.920   4.845 -0.4256  0.7331  0.0042
  144OSM   H12S15856   0.227   4.922   4.906  0.6507  1.6966 -1.5854
  144OSM   H12T15857   0.146   5.014   4.786 -2.4468  0.9202 -0.1754
  144OSM   C13S15858   0.131   4.809   4.746  0.2604 -0.2918  0.2611
  144OSM   H13S15859   0.038   4.806   4.685  0.4362  0.0787 -0.0314
  144OSM   H13T15860   0.113   4.715   4.802 -3.2500  0.2320  0.2393
  144OSM   C14S15861   0.265   4.791   4.663  0.5231 -0.0901 -0.3062
  144OSM   H14S15862   0.353   4.831   4.718 -1.1362  0.8439  1.7970
  144OSM   H14T15863   0.262   4.847   4.568  1.6220  0.2324 -0.1639
  144OSM   C15S15864   0.299   4.643   4.636  0.9134 -0.2460 -0.0992
  144OSM   H15S15865   0.219   4.598   4.574 -0.7767  1.3341  0.8264
  144OSM   H15T15866   0.293   4.586   4.731 -2.6955  1.5975  0.9943
  144OSM   C16S15867   0.432   4.637   4.565  0.4092  0.3448  0.1695
  144OSM   H16S15868   0.499   4.672   4.646 -0.9872  0.9307  1.1019
  144OSM   H16T15869   0.432   4.710   4.481 -1.4913 -1.0493 -1.1344
  144OSM   C17S15870   0.477   4.506   4.508 -0.8449  0.2842  1.0701
  144OSM   H17S15871   0.486   4.424   4.582  2.8601 -0.2408  0.2180
  144OSM   H17T15872   0.580   4.515   4.467 -0.4214 -1.6199  1.5930
  144OSM   C18S15873   0.398   4.446   4.392  0.8990 -0.5015 -0.7026
  144OSM   H18S15874   0.306   4.399   4.432  0.0846  1.7302  0.1564
  144OSM   H18T15875   0.443   4.360   4.338 -1.8703 -2.1283 -0.6170
  144OSM   H18U15876   0.370   4.527   4.322  0.9424 -0.0472 -0.1934
  144OSM    C1F15877   0.274   4.775   5.502  0.3768 -0.2941 -0.2292
  144OSM     OF15878   0.293   4.657   5.539  0.1279  0.4727 -0.1761
  144OSM    C2F15879   0.373   4.840   5.401  0.1177  0.4793 -0.7186
  144OSM    H2F15880   0.470   4.837   5.455  0.3164  5.1565 -0.3999
  144OSM    H2G15881   0.338   4.944   5.382 -3.5825 -0.2894  1.0501
  144OSM    C3F15882   0.375   4.754   5.272  0.1442  0.2134  0.4035
  144OSM    H3F15883   0.269   4.751   5.239 -0.0081  2.4751  0.4960
  144OSM    H3G15884   0.404   4.651   5.301 -0.8734  0.0938  1.0506
  144OSM    C4F15885   0.459   4.811   5.157  0.4093 -1.2290  0.2264
  144OSM    H4F15886   0.565   4.827   5.185  0.5110 -1.6689  0.0953
  144OSM    H4G15887   0.423   4.909   5.119  2.2547 -0.7296 -0.3005
  144OSM    C5F15888   0.468   4.725   5.035 -0.3295  0.1821  0.2021
  144OSM    H5F15889   0.505   4.780   4.945 -1.9025 -1.0317 -1.2683
  144OSM    H5G15890   0.363   4.704   5.006 -0.2601 -0.2344  0.2531
  144OSM    C6F15891   0.544   4.593   5.053 -0.1336 -0.0492 -0.3702
  144OSM    H6F15892   0.503   4.530   5.134 -0.6727  0.2170 -0.4330
  144OSM    H6G15893   0.651   4.617   5.069 -0.5359 -0.1043  3.1658
  144OSM    C7F15894   0.535   4.503   4.937 -0.2995 -0.4574  0.4584
  144OSM    H7F15895   0.553   4.557   4.842 -1.6524 -0.1480  0.3523
  144OSM    H7G15896   0.429   4.473   4.925  0.1160 -1.9636  0.3556
  144OSM    C8F15897   0.642   4.386   4.940  0.0178 -0.4379  0.3043
  144OSM    H8F15898   0.741   4.414   4.982 -0.1507 -0.5008  0.7502
  144OSM    H8G15899   0.674   4.371   4.834 -2.7627 -0.4126 -0.6382
  144OSM    C9F15900   0.591   4.261   5.001  0.0803 -0.1511 -0.4551
  144OSM    H9F15901   0.614   4.253   5.108 -0.3303  2.8799 -0.0706
  144OSM   C10F15902   0.535   4.156   4.937 -0.4471  0.1280 -0.2366
  144OSM   H10F15903   0.490   4.075   4.997 -1.2601  1.8070  1.5381
  144OSM   C11F15904   0.520   4.143   4.787  0.8321 -0.6940  0.1496
  144OSM   H11F15905   0.577   4.059   4.742 -0.1422 -1.1340 -0.3045
  144OSM   H11G15906   0.545   4.234   4.729  0.1445 -0.2494  0.5316
  144OSM   C12F15907   0.373   4.112   4.754 -0.2420  0.9637 -0.4506
  144OSM   H12F15908   0.343   4.013   4.797 -0.5258  0.0267 -2.6577
  144OSM   H12G15909   0.352   4.104   4.645 -2.5775  0.9711 -0.0513
  144OSM   C13F15910   0.271   4.221   4.800 -0.0748 -0.3557  0.3406
  144OSM   H13F15911   0.319   4.320   4.786 -0.7876 -0.0163  0.2300
  144OSM   H13G15912   0.262   4.209   4.910  0.2039 -0.8194  0.3159
  144OSM   C14F15913   0.136   4.215   4.735 -0.2106  0.2544  0.8521
  144OSM   H14F15914   0.078   4.124   4.765  0.1592 -0.3320 -0.1653
  144OSM   H14G15915   0.150   4.197   4.626 -1.0859  1.7315  0.4749
  144OSM   C15F15916   0.047   4.338   4.758  0.7026  0.1536 -0.3030
  144OSM   H15F15917  -0.057   4.311   4.730  0.2379 -1.0738  2.3354
  144OSM   H15G15918   0.090   4.422   4.699  1.0785  2.3005  2.8061
  144OSM   C16F15919   0.055   4.382   4.904 -0.1736 -0.6273  0.6467
  144OSM   H16F15920   0.158   4.407   4.935  0.1294  2.3225 -2.1941
  144OSM   H16G15921   0.013   4.299   4.965 -0.6159 -0.8545  0.0439
  144OSM   C17F15922  -0.043   4.495   4.937 -0.6620  0.1633 -0.5309
  144OSM   H17F15923  -0.149   4.464   4.927 -0.5498  0.1228 -1.8426
  144OSM   H17G15924  -0.016   4.575   4.864  2.5308  0.8064  1.1486
  144OSM   C18F15925  -0.009   4.563   5.071 -0.3176  0.0326 -0.6394
  144OSM   H18F15926  -0.079   4.647   5.087  0.2062  0.3684 -0.0785
  144OSM   H18G15927   0.099   4.584   5.081 -0.5530  0.1666  3.3017
  144OSM   H18H15928  -0.021   4.490   5.155  1.3449  0.8267  0.3443
  145OSM      N15929   0.866   6.662   6.243 -0.2195 -0.4435 -0.2094
  145OSM    C1515930   0.869   6.514   6.231 -0.4353  0.7273 -0.8404
  145OSM   H15A15931   0.969   6.487   6.202  0.9337  1.0748  2.9812
  145OSM   H15B15932   0.796   6.476   6.160 -0.5344  0.1630 -0.4428
  145OSM   H15C15933   0.845   6.474   6.328  1.5664 -0.2341 -0.6973
  145OSM    C1415934   0.901   6.712   6.107 -0.2850  0.3701 -0.3384
  145OSM   H14A15935   0.831   6.684   6.029 -1.3327  1.8723  0.0284
  145OSM   H14B15936   0.998   6.680   6.072  0.0799  0.5091  0.5416
  145OSM   H14C15937   0.906   6.820   6.110 -0.5816  0.5348  5.7889
  145OSM    C1315938   0.722   6.701   6.272  0.0363 -0.5105  0.8608
  145OSM   H13A15939   0.711   6.809   6.271  0.2486 -0.3810 -3.3426
  145OSM   H13B15940   0.678   6.659   6.362  3.5569 -1.9802  2.0551
  145OSM   H13C15941   0.651   6.674   6.195  0.8938 -1.2993  0.3254
  145OSM    C1215942   0.959   6.719   6.342  0.2000  1.0190  0.2570
  145OSM   H12A15943   1.051   6.678   6.303 -0.4699  0.7645 -1.1072
  145OSM   H12B15944   0.935   6.667   6.434 -1.0405 -0.2595 -0.7554
  145OSM    C1115945   0.970   6.873   6.367  0.1507  0.1077  0.7642
  145OSM   H11A15946   1.044   6.885   6.449  0.1802 -0.5848  0.8430
  145OSM   H11B15947   0.870   6.892   6.413  0.0038 -0.7889  0.8301
  145OSM      P15948   1.138   6.988   6.217 -0.0049 -0.2468  0.0489
  145OSM    O1315949   1.184   7.093   6.309  0.3636  0.2414 -0.6363
  145OSM    O1415950   1.224   6.869   6.209 -0.3030  0.3787  0.5882
  145OSM    O1115951   1.146   7.056   6.074 -0.0449  0.0708 -0.1956
  145OSM    O1215952   0.991   6.948   6.249  0.1010  0.0909  0.0741
  145OSM    C1S15953   1.026   7.090   5.998  0.5553  1.0111 -0.6498
  145OSM    H1S15954   0.952   7.148   6.058 -0.9525 -0.1872 -1.2974
  145OSM    H1T15955   0.969   7.003   5.960  2.1547  1.2695 -3.9663
  145OSM     NF15956   0.938   7.209   5.818  0.6740  0.5515  0.7300
  145OSM    HNF15957   0.902   7.153   5.744  0.2759 -0.4285  1.6475
  145OSM    C2S15958   1.065   7.164   5.868  0.6769  0.7194 -0.3367
  145OSM    H2S15959   1.118   7.258   5.890 -0.5767  1.3370  0.1727
  145OSM    C3S15960   1.147   7.068   5.773  0.4050  0.5210  0.5936
  145OSM    H3S15961   1.087   6.976   5.757  1.5130 -0.2109  0.4987
  145OSM     O315962   1.270   7.018   5.827  0.1586  0.1785  0.2577
  145OSM    HO315963   1.262   7.048   5.918 -0.0355  1.2323 -0.0892
  145OSM    C4S15964   1.151   7.127   5.631  0.2667 -0.2965  0.2891
  145OSM    H4S15965   1.048   7.124   5.593  0.4936 -1.0343 -0.2955
  145OSM    C5S15966   1.260   7.177   5.571 -0.0533 -0.0363 -0.0819
  145OSM    H5S15967   1.357   7.161   5.620  0.2443 -2.2021 -1.2197
  145OSM    C6S15968   1.269   7.215   5.422  0.5733 -0.4852  0.1061
  145OSM    H6S15969   1.360   7.174   5.374 -0.3235  0.3044 -2.4295
  145OSM    H6T15970   1.261   7.324   5.401  0.2520 -1.0133 -3.0675
  145OSM    C7S15971   1.142   7.167   5.338 -0.7376 -0.5067  0.0737
  145OSM    H7S15972   1.049   7.220   5.365  0.0121  0.0016  1.8398
  145OSM    H7T15973   1.137   7.058   5.357 -1.8648 -0.4390  0.1973
  145OSM    C8S15974   1.173   7.179   5.195 -0.4902  0.6032 -0.3113
  145OSM    H8S15975   1.268   7.125   5.176  0.4185  1.3025  1.8498
  145OSM    H8T15976   1.194   7.287   5.176 -0.5143  1.0840  2.0167
  145OSM    C9S15977   1.059   7.145   5.105  0.5738  0.1311  0.2485
  145OSM    H9S15978   0.977   7.217   5.125 -1.1751 -0.8645 -2.6046
  145OSM    H9T15979   1.037   7.037   5.119  1.9044 -0.0827  0.7919
  145OSM   C10S15980   1.094   7.147   4.957 -0.3391 -0.3704  0.4199
  145OSM   H10S15981   1.135   7.050   4.922  0.5649  0.7313 -1.7780
  145OSM   H10T15982   1.182   7.213   4.941  0.6405 -1.5669  0.6897
  145OSM   C11S15983   0.985   7.206   4.870  0.4440  0.3489 -0.1493
  145OSM   H11S15984   0.945   7.302   4.909 -0.2099  0.1809 -0.3945
  145OSM   H11T15985   0.903   7.133   4.889  0.0503  0.9036  0.3052
  145OSM   C12S15986   1.026   7.221   4.723  0.3636 -0.4063  0.2038
  145OSM   H12S15987   1.130   7.257   4.706 -0.8286  2.9774 -0.7940
  145OSM   H12T15988   0.957   7.302   4.691 -2.5265 -2.4520  0.8285
  145OSM   C13S15989   0.981   7.103   4.635  0.1527  0.3176 -0.2577
  145OSM   H13S15990   0.875   7.108   4.604 -0.3296 -1.0371  1.0915
  145OSM   H13T15991   1.006   7.009   4.689 -2.1729 -0.5373 -0.5696
  145OSM   C14S15992   1.059   7.090   4.506 -0.6085 -0.2256  0.4496
  145OSM   H14S15993   1.026   7.001   4.448 -0.8912  0.2599 -0.1480
  145OSM   H14T15994   1.166   7.074   4.532 -1.1705 -0.1183  3.0687
  145OSM   C15S15995   1.023   7.217   4.421 -0.1569  0.7665 -0.3092
  145OSM   H15S15996   1.049   7.303   4.486  0.9130 -0.0300  0.3603
  145OSM   H15T15997   0.914   7.213   4.400  0.0717  1.7575 -1.7908
  145OSM   C16S15998   1.091   7.218   4.291 -0.5801 -0.2431 -0.3406
  145OSM   H16S15999   1.059   7.314   4.245  1.1399  1.6629  2.1689
  145OSM   H16T16000   1.055   7.133   4.229  0.9252 -0.6394 -0.7151
  145OSM   C17S16001   1.247   7.214   4.299  0.1078  0.2535  0.7036
  145OSM   H17S16002   1.262   7.110   4.334 -1.6588 -0.1453  0.4058
  145OSM   H17T16003   1.294   7.284   4.371  1.7106  0.2964 -0.3225
  145OSM   C18S16004   1.323   7.231   4.159 -0.7139  0.4553 -1.4548
  145OSM   H18S16005   1.425   7.187   4.152 -0.9166 -0.1831 -0.5735
  145OSM   H18T16006   1.319   7.339   4.131 -1.6000  1.0646  0.7659
  145OSM   H18U16007   1.268   7.165   4.090  0.1653 -2.1753  0.2188
  145OSM    C1F16008   0.860   7.310   5.867 -0.0211  0.1895 -0.1904
  145OSM     OF16009   0.907   7.366   5.961  0.6026 -0.3415  0.0937
  145OSM    C2F16010   0.732   7.340   5.808 -0.2984 -0.5034 -0.8249
  145OSM    H2F16011   0.657   7.382   5.878  0.7529  1.0951 -0.5956
  145OSM    H2G16012   0.691   7.247   5.765 -0.0032 -1.2126  0.3915
  145OSM    C3F16013   0.747   7.453   5.701 -0.2067 -0.3426 -0.0917
  145OSM    H3F16014   0.800   7.536   5.753 -1.2182 -0.9178  1.9646
  145OSM    H3G16015   0.647   7.491   5.672  0.7492  0.1140 -3.1956
  145OSM    C4F16016   0.823   7.419   5.573 -0.1648 -0.1827  0.1613
  145OSM    H4F16017   0.770   7.343   5.511  0.3295 -0.8116  0.5009
  145OSM    H4G16018   0.925   7.381   5.595 -0.4944 -0.9322  0.4188
  145OSM    C5F16019   0.837   7.547   5.487  0.1813  0.7366  0.6235
  145OSM    H5F16020   0.894   7.617   5.552 -0.2524  0.1810  1.6431
  145OSM    H5G16021   0.741   7.587   5.450  0.0198  0.4694  0.7496
  145OSM    C6F16022   0.931   7.505   5.366  0.0177  0.4836 -0.6705
  145OSM    H6F16023   0.896   7.413   5.314 -1.1681  1.6796 -2.0876
  145OSM    H6G16024   1.019   7.475   5.428 -1.1368 -2.4516 -0.2833
  145OSM    C7F16025   0.972   7.607   5.261  0.1932  0.2361 -0.0076
  145OSM    H7F16026   1.003   7.691   5.326 -0.3578 -1.0149  1.9789
  145OSM    H7G16027   0.883   7.653   5.213  0.0201  0.9500  0.9745
  145OSM    C8F16028   1.073   7.549   5.152  0.5434  0.6715 -0.3791
  145OSM    H8F16029   1.019   7.476   5.089  0.2019  1.7967 -1.4281
  145OSM    H8G16030   1.155   7.493   5.203  0.9517  1.0756 -0.5824
  145OSM    C9F16031   1.132   7.656   5.064 -0.9639  0.2658 -0.3461
  145OSM    H9F16032   1.149   7.748   5.122  2.3552 -0.7474  0.5362
  145OSM   C10F16033   1.173   7.656   4.933  0.6402 -0.5520  0.3137
  145OSM   H10F16034   1.239   7.741   4.911  2.0788 -1.6955  0.0802
  145OSM   C11F16035   1.170   7.549   4.823  0.1167 -0.7512 -0.9015
  145OSM   H11F16036   1.108   7.589   4.740  1.0203  1.6289 -0.5144
  145OSM   H11G16037   1.121   7.456   4.860 -0.6839  0.3169  0.8426
  145OSM   C12F16038   1.306   7.508   4.772 -0.2040  0.3217 -0.9837
  145OSM   H12F16039   1.284   7.409   4.728  0.8558 -0.8354  0.9358
  145OSM   H12G16040   1.373   7.501   4.861 -0.8497 -0.4058 -0.5481
  145OSM   C13F16041   1.367   7.602   4.670 -0.4126 -0.3591  0.1315
  145OSM   H13F16042   1.392   7.701   4.712  0.6583 -1.0002  1.0715
  145OSM   H13G16043   1.289   7.629   4.596 -0.7189 -1.2959  0.0961
  145OSM   C14F16044   1.499   7.542   4.605  0.4808  0.3724 -0.2632
  145OSM   H14F16045   1.459   7.445   4.568  1.3107  0.3490 -1.1528
  145OSM   H14G16046   1.569   7.530   4.691 -0.8791 -0.5879  0.7569
  145OSM   C15F16047   1.559   7.621   4.488  0.3660  0.3216 -0.4938
  145OSM   H15F16048   1.606   7.714   4.526  2.3563 -1.2677  1.2356
  145OSM   H15G16049   1.478   7.659   4.422  0.3757 -0.8853 -1.2371
  145OSM   C16F16050   1.649   7.543   4.396 -0.3053 -0.1493  0.9199
  145OSM   H16F16051   1.676   7.595   4.301  0.8648  0.4637  1.5711
  145OSM   H16G16052   1.590   7.457   4.358 -0.2259  0.4305 -0.6184
  145OSM   C17F16053   1.789   7.487   4.450  0.3930 -0.1259 -0.4416
  145OSM   H17F16054   1.855   7.439   4.375 -0.0110  0.4512 -1.1928
  145OSM   H17G16055   1.772   7.411   4.529 -4.1860  0.9161 -0.1108
  145OSM   C18F16056   1.877   7.600   4.510  0.1906 -0.2452  0.4036
  145OSM   H18F16057   1.841   7.642   4.607 -0.8863  1.3183 -0.6177
  145OSM   H18G16058   1.875   7.687   4.441 -0.9803 -0.3258  0.3107
  145OSM   H18H16059   1.982   7.569   4.525  0.4065  0.6529  0.8271
  146OSM      N16060   0.448   7.007   6.836  0.6743  0.3094  1.0013
  146OSM    C1516061   0.540   7.130   6.853  0.2784 -0.1555  0.0930
  146OSM   H15A16062   0.593   7.133   6.946  1.1312 -1.9274 -0.3071
  146OSM   H15B16063   0.488   7.219   6.819 -0.4066 -0.1292  1.1746
  146OSM   H15C16064   0.625   7.127   6.787  1.0974 -1.2256  1.1615
  146OSM    C1416065   0.523   6.896   6.904  0.3041  0.3451 -0.0591
  146OSM   H14A16066   0.567   6.912   7.001  0.1478 -2.8624  0.6443
  146OSM   H14B16067   0.590   6.848   6.834  1.4485 -0.4188  1.5084
  146OSM   H14C16068   0.453   6.816   6.925  0.6309 -0.2046 -1.0005
  146OSM    C1316069   0.316   7.019   6.899  0.4715  0.0094  0.0220
  146OSM   H13A16070   0.313   7.037   7.006 -1.9782 -0.1885  0.0507
  146OSM   H13B16071   0.270   6.922   6.888  1.9805 -0.9366  1.5390
  146OSM   H13C16072   0.264   7.097   6.845 -0.7435 -1.2257 -0.6554
  146OSM    C1216073   0.425   6.990   6.685  0.1723  0.4940  0.4230
  146OSM   H12A16074   0.377   6.896   6.668  1.0201  0.2349 -0.6718
  146OSM   H12B16075   0.521   6.977   6.636  0.7529  0.9879  1.3821
  146OSM    C1116076   0.345   7.102   6.606  0.5704 -0.6691 -0.3723
  146OSM   H11A16077   0.379   7.094   6.501  1.8486  1.6019 -0.1992
  146OSM   H11B16078   0.365   7.203   6.650 -2.7312 -0.9642  2.2317
  146OSM      P16079   0.109   7.194   6.564 -0.5132 -0.5987 -0.5852
  146OSM    O1316080  -0.012   7.139   6.502 -0.2086  0.0041  0.0636
  146OSM    O1416081   0.094   7.279   6.679 -0.0602  0.1202 -1.0389
  146OSM    O1116082   0.208   7.263   6.458  0.1229 -0.1772 -0.3273
  146OSM    O1216083   0.206   7.077   6.606  0.0325  0.3093  0.4160
  146OSM    C1S16084   0.195   7.226   6.320 -0.2593  0.0194 -1.1045
  146OSM    H1S16085   0.088   7.231   6.292 -0.5038  0.5480 -0.1285
  146OSM    H1T16086   0.251   7.132   6.305  0.9607  0.6041 -0.4309
  146OSM     NF16087   0.218   7.306   6.085  0.3927  0.1886  0.1674
  146OSM    HNF16088   0.257   7.225   6.043  1.0667  1.3652 -1.6121
  146OSM    C2S16089   0.263   7.333   6.225  0.3933  0.1848  0.3436
  146OSM    H2S16090   0.219   7.432   6.250  0.7376  0.4882 -0.2248
  146OSM    C3S16091   0.414   7.343   6.245 -0.0121 -0.4582  0.1248
  146OSM    H3S16092   0.454   7.242   6.220  0.3177 -0.2185 -0.3355
  146OSM     O316093   0.454   7.381   6.375  0.4751  0.0801  0.7606
  146OSM    HO316094   0.373   7.365   6.424  0.3583  1.1116  0.9312
  146OSM    C4S16095   0.484   7.438   6.149 -0.5563 -0.2509  0.7973
  146OSM    H4S16096   0.567   7.383   6.101 -0.2349  2.1964 -1.6645
  146OSM    C5S16097   0.487   7.576   6.132 -0.1742  0.2126  0.7374
  146OSM    H5S16098   0.424   7.636   6.199  0.4277  1.3330  0.3393
  146OSM    C6S16099   0.573   7.660   6.034 -0.1919 -0.1418  0.1932
  146OSM    H6S16100   0.653   7.593   5.996  1.3101  0.7938  1.5548
  146OSM    H6T16101   0.615   7.744   6.094 -0.3868  0.1472 -0.0668
  146OSM    C7S16102   0.487   7.743   5.927 -0.4009  1.1207 -0.5148
  146OSM    H7S16103   0.560   7.819   5.891  1.7115 -1.2376 -1.5048
  146OSM    H7T16104   0.411   7.789   5.993  1.0640  2.2994  0.4369
  146OSM    C8S16105   0.433   7.665   5.808 -0.0005  0.2883 -0.3009
  146OSM    H8S16106   0.365   7.587   5.848 -1.9340  0.7317 -2.5241
  146OSM    H8T16107   0.516   7.618   5.750  0.3655 -0.5895  0.9013
  146OSM    C9S16108   0.350   7.743   5.713 -0.4621 -0.3130  0.2736
  146OSM    H9S16109   0.414   7.797   5.641 -0.9188  0.6418  0.5632
  146OSM    H9T16110   0.296   7.814   5.779  0.0667 -0.6878  1.1311
  146OSM   C10S16111   0.255   7.660   5.626  0.1794 -0.0920  0.2270
  146OSM   H10S16112   0.191   7.728   5.565  0.1256  0.9959  1.4520
  146OSM   H10T16113   0.184   7.600   5.686  0.8134 -0.0855  0.9858
  146OSM   C11S16114   0.330   7.563   5.531  0.1647  0.0652 -0.0020
  146OSM   H11S16115   0.248   7.497   5.495 -1.7136  2.0812  0.3694
  146OSM   H11T16116   0.397   7.490   5.581 -0.6028 -2.4595 -2.3638
  146OSM   C12S16117   0.396   7.628   5.415  0.7444  0.1374  0.4186
  146OSM   H12S16118   0.484   7.689   5.443  0.0674  1.2169  0.2625
  146OSM   H12T16119   0.322   7.694   5.366  0.0282 -0.6880  0.3525
  146OSM   C13S16120   0.445   7.526   5.315 -0.6098  0.4848 -0.0812
  146OSM   H13S16121   0.368   7.451   5.285  0.5643 -0.3194 -1.1838
  146OSM   H13T16122   0.512   7.458   5.373 -1.6526 -0.2916  0.2623
  146OSM   C14S16123   0.513   7.588   5.193  0.0876  0.5562  0.1524
  146OSM   H14S16124   0.556   7.506   5.133 -0.1447 -0.4000  1.2476
  146OSM   H14T16125   0.598   7.650   5.228  0.6989  0.9472 -1.8837
  146OSM   C15S16126   0.409   7.671   5.114  0.1401  0.4349  0.3107
  146OSM   H15S16127   0.382   7.749   5.188 -0.0217 -1.4243  2.3291
  146OSM   H15T16128   0.319   7.605   5.114  1.0076 -0.9204  3.1554
  146OSM   C16S16129   0.453   7.711   4.975 -0.7554  0.4370 -0.2361
  146OSM   H16S16130   0.378   7.767   4.915  1.1684  3.1894 -0.2744
  146OSM   H16T16131   0.471   7.619   4.915  3.7157 -0.7521  2.4230
  146OSM   C17S16132   0.585   7.785   4.973 -0.1405 -0.2605 -0.2248
  146OSM   H17S16133   0.652   7.720   5.032  0.9776  0.1261 -1.0346
  146OSM   H17T16134   0.579   7.879   5.031 -1.1227 -0.6288  0.3012
  146OSM   C18S16135   0.656   7.808   4.834  0.9589 -0.0620  0.4496
  146OSM   H18S16136   0.685   7.707   4.797  0.1305  0.2434 -1.0910
  146OSM   H18T16137   0.751   7.865   4.848  0.4723  0.8469  0.1339
  146OSM   H18U16138   0.581   7.859   4.770 -2.1899 -0.7661  3.3002
  146OSM    C1F16139   0.092   7.341   6.044 -0.2282 -0.1607  0.0954
  146OSM     OF16140   0.031   7.430   6.098  0.1078 -0.1694  0.6023
  146OSM    C2F16141   0.027   7.257   5.938  0.0926  0.1744  0.8220
  146OSM    H2F16142  -0.065   7.311   5.907  0.0866 -0.2100  0.1433
  146OSM    H2G16143   0.002   7.157   5.980 -2.8228  1.4703  2.4293
  146OSM    C3F16144   0.118   7.233   5.807  0.5325  0.0436 -0.1693
  146OSM    H3F16145   0.217   7.195   5.841 -0.0341 -1.2457  0.0870
  146OSM    H3G16146   0.138   7.332   5.761 -0.3357 -0.3495 -1.4463
  146OSM    C4F16147   0.076   7.128   5.704 -0.3168  0.9649 -0.6137
  146OSM    H4F16148  -0.035   7.123   5.689 -0.3240 -2.1369 -0.2257
  146OSM    H4G16149   0.097   7.025   5.740 -1.8817  1.0463  0.6307
  146OSM    C5F16150   0.140   7.154   5.570 -0.6117  0.4505  0.4549
  146OSM    H5F16151   0.094   7.244   5.526 -2.3571  0.0363  1.3483
  146OSM    H5G16152   0.114   7.072   5.500  0.4340  0.5190 -0.0425
  146OSM    C6F16153   0.287   7.153   5.584  0.1891 -0.3276 -0.1206
  146OSM    H6F16154   0.321   7.053   5.618 -0.9818 -0.3630  1.0081
  146OSM    H6G16155   0.325   7.220   5.665 -0.1559 -0.9222  0.5453
  146OSM    C7F16156   0.367   7.189   5.449 -0.0707 -0.0637 -0.0368
  146OSM    H7F16157   0.357   7.300   5.442 -0.9499  0.0018  1.6848
  146OSM    H7G16158   0.308   7.132   5.375 -0.8277 -1.1494  1.3684
  146OSM    C8F16159   0.521   7.163   5.448  0.5314 -0.5184 -0.0140
  146OSM    H8F16160   0.563   7.188   5.547 -0.0332  0.7600 -0.0716
  146OSM    H8G16161   0.565   7.239   5.380 -0.7838 -0.8698 -1.3198
  146OSM    C9F16162   0.560   7.022   5.411  0.3944 -0.0624  0.1171
  146OSM    H9F16163   0.516   6.949   5.481 -1.5676 -1.0324 -1.9591
  146OSM   C10F16164   0.632   6.978   5.303 -0.4417  0.1924 -0.1255
  146OSM   H10F16165   0.671   6.876   5.291  1.7916  0.6609  2.2592
  146OSM   C11F16166   0.692   7.079   5.203 -1.0522 -0.1668 -0.9336
  146OSM   H11F16167   0.752   7.021   5.129 -1.0747 -1.6898  0.1842
  146OSM   H11G16168   0.762   7.152   5.248 -1.1183 -0.8584  0.3478
  146OSM   C12F16169   0.590   7.153   5.109 -0.2439 -0.6769 -0.2799
  146OSM   H12F16170   0.531   7.224   5.172  1.3874 -1.0173  1.7386
  146OSM   H12G16171   0.522   7.071   5.078 -1.2514 -0.5604  1.4584
  146OSM   C13F16172   0.653   7.224   4.998 -0.9630  0.2852  0.9470
  146OSM   H13F16173   0.715   7.159   4.933 -2.1748  1.0093 -1.0075
  146OSM   H13G16174   0.723   7.305   5.029 -0.4499  0.0838  0.3431
  146OSM   C14F16175   0.551   7.284   4.893 -0.2657  0.1213  0.7057
  146OSM   H14F16176   0.486   7.204   4.851  0.4732  0.6134 -1.4569
  146OSM   H14G16177   0.479   7.349   4.948  0.2050  1.1341  0.1486
  146OSM   C15F16178   0.616   7.363   4.775  0.5766  0.1536 -0.3620
  146OSM   H15F16179   0.684   7.290   4.726 -1.2062 -1.3245 -0.7412
  146OSM   H15G16180   0.676   7.451   4.807  0.2285 -0.0892  1.0317
  146OSM   C16F16181   0.507   7.415   4.679 -0.2237 -0.4706  0.2394
  146OSM   H16F16182   0.454   7.508   4.710  0.1914  0.3583 -1.4476
  146OSM   H16G16183   0.440   7.329   4.658  0.9076 -1.2095 -0.4468
  146OSM   C17F16184   0.569   7.447   4.544 -0.4319 -0.4536  0.4101
  146OSM   H17F16185   0.647   7.378   4.504  0.9217  0.3335  1.6129
  146OSM   H17G16186   0.607   7.551   4.546  0.8172 -0.9078  1.5728
  146OSM   C18F16187   0.446   7.450   4.442 -0.9185  0.1460 -0.0406
  146OSM   H18F16188   0.478   7.478   4.339  0.0677 -0.8183 -0.0049
  146OSM   H18G16189   0.375   7.532   4.467  1.2150  3.1372 -2.8905
  146OSM   H18H16190   0.398   7.350   4.434 -0.0480 -0.3535  0.8136
  147OSM      N16191   3.767   3.446   1.950  0.4139 -0.1523  0.0436
  147OSM    C1516192   3.893   3.496   1.870  0.3643 -0.6426  0.2309
  147OSM   H15A16193   3.930   3.413   1.811 -2.3069 -1.1883 -0.8187
  147OSM   H15B16194   3.971   3.529   1.937 -1.5084  1.9367  1.3078
  147OSM   H15C16195   3.858   3.573   1.803 -0.0408  0.9898  2.1939
  147OSM    C1416196   3.655   3.425   1.855  0.5781  0.4309  0.5060
  147OSM   H14A16197   3.568   3.392   1.910  0.0769 -0.0196 -0.5303
  147OSM   H14B16198   3.679   3.352   1.779 -2.1557 -0.6841  0.5947
  147OSM   H14C16199   3.624   3.517   1.809  0.9308  0.5963  0.5987
  147OSM    C1316200   3.812   3.312   2.007  0.5342 -0.0923  0.1138
  147OSM   H13A16201   3.908   3.327   2.055  0.3371  0.2728  0.4085
  147OSM   H13B16202   3.815   3.237   1.930  2.1616  0.7133 -0.6740
  147OSM   H13C16203   3.750   3.269   2.084  1.6909  0.5561  1.4613
  147OSM    C1216204   3.737   3.546   2.059 -0.6236  0.3330 -0.3246
  147OSM   H12A16205   3.802   3.528   2.143 -1.5980  0.4841  0.4770
  147OSM   H12B16206   3.638   3.528   2.101  0.0503 -0.0485  1.1726
  147OSM    C1116207   3.732   3.702   2.024 -0.4363 -0.1396 -0.3532
  147OSM   H11A16208   3.835   3.739   2.006 -0.5480  0.9636  1.1176
  147OSM   H11B16209   3.692   3.764   2.107 -0.6635 -0.9453  0.1475
  147OSM      P16210   3.513   3.801   1.908 -0.0892 -0.2997  0.0686
  147OSM    O1316211   3.529   3.929   1.834  0.4085 -0.4261  0.1257
  147OSM    O1416212   3.403   3.714   1.856 -0.1840  0.6247 -0.4609
  147OSM    O1116213   3.492   3.838   2.062 -0.2414 -0.5215 -0.1225
  147OSM    O1216214   3.649   3.717   1.906 -0.3987  0.3851  0.7068
  147OSM    C1S16215   3.394   3.785   2.153 -0.1642  0.8432 -0.3959
  147OSM    H1S16216   3.353   3.685   2.126  0.9002  0.6529 -1.3627
  147OSM    H1T16217   3.309   3.858   2.151  0.4998  1.7106  1.0724
  147OSM     NF16218   3.400   3.668   2.386 -0.3207 -0.9351  0.5671
  147OSM    HNF16219   3.327   3.689   2.451 -2.2136 -2.6154 -0.8956
  147OSM    C2S16220   3.454   3.779   2.301  0.3727 -0.6298  0.0698
  147OSM    H2S16221   3.563   3.762   2.287  0.8089  1.9122 -0.0916
  147OSM    C3S16222   3.447   3.925   2.357 -0.2497 -0.5372 -0.5959
  147OSM    H3S16223   3.347   3.971   2.366  0.0638 -0.1488  1.3400
  147OSM     O316224   3.518   4.017   2.274 -0.1631 -0.3457 -0.6400
  147OSM    HO316225   3.530   3.965   2.194  4.0121  2.4341 -2.2247
  147OSM    C4S16226   3.513   3.917   2.496 -0.0999 -0.3797  0.0199
  147OSM    H4S16227   3.623   3.908   2.492 -0.0763  0.0322 -0.2896
  147OSM    C5S16228   3.450   3.906   2.612 -0.2556  0.6919  0.5940
  147OSM    H5S16229   3.341   3.916   2.616 -0.2964  0.4074  0.2185
  147OSM    C6S16230   3.496   3.880   2.758 -0.2185 -0.2438  0.9836
  147OSM    H6S16231   3.415   3.815   2.797 -0.9738 -0.9797 -1.6181
  147OSM    H6T16232   3.490   3.972   2.821 -0.4886  0.3637  0.0956
  147OSM    C7S16233   3.632   3.805   2.779 -0.3536  0.1838 -0.4124
  147OSM    H7S16234   3.713   3.859   2.725  2.0448 -2.9336 -0.1939
  147OSM    H7T16235   3.627   3.707   2.726  1.3153  0.7160 -1.6204
  147OSM    C8S16236   3.687   3.795   2.919  0.2686 -0.8399 -0.1446
  147OSM    H8S16237   3.793   3.762   2.918  0.2760 -0.8645 -1.9697
  147OSM    H8T16238   3.631   3.715   2.973  1.8780 -2.2202 -0.4181
  147OSM    C9S16239   3.689   3.925   3.003 -0.2566  0.5897  0.3695
  147OSM    H9S16240   3.591   3.926   3.056 -0.4500 -3.5069  0.4285
  147OSM    H9T16241   3.705   4.015   2.940 -1.7195  0.5277 -0.1366
  147OSM   C10S16242   3.781   3.912   3.129 -0.5988  0.4965 -0.2059
  147OSM   H10S16243   3.889   3.904   3.104  0.1567 -0.0540  2.8436
  147OSM   H10T16244   3.738   3.826   3.185 -0.0261  1.0739  1.1707
  147OSM   C11S16245   3.757   4.026   3.228 -0.4885  0.4957  0.4629
  147OSM   H11S16246   3.649   4.039   3.251 -0.3280 -0.0713  1.5939
  147OSM   H11T16247   3.798   4.117   3.179  1.3509  0.3749  1.6674
  147OSM   C12S16248   3.832   4.002   3.361 -0.2977  0.5598  0.4751
  147OSM   H12S16249   3.841   4.094   3.424  0.7115  1.6447 -1.1659
  147OSM   H12T16250   3.938   3.980   3.334 -0.4297  0.5376 -0.0386
  147OSM   C13S16251   3.783   3.890   3.457  0.0156  0.2348 -0.1195
  147OSM   H13S16252   3.830   3.897   3.557  0.7741  0.3140 -0.4696
  147OSM   H13T16253   3.816   3.790   3.423  2.2852  1.0047 -0.3250
  147OSM   C14S16254   3.627   3.889   3.468  0.0556  0.7449 -0.2631
  147OSM   H14S16255   3.580   3.882   3.367  0.7348 -1.4901 -0.4645
  147OSM   H14T16256   3.595   3.984   3.516 -1.6908 -0.3492  0.8445
  147OSM   C15S16257   3.582   3.775   3.556 -0.0534 -0.3363 -0.4011
  147OSM   H15S16258   3.613   3.805   3.658  0.0105 -1.2594 -0.1454
  147OSM   H15T16259   3.630   3.680   3.524  0.7855  0.2316 -0.8928
  147OSM   C16S16260   3.431   3.757   3.541 -0.1416  0.0210 -0.1137
  147OSM   H16S16261   3.410   3.667   3.603  0.2974  0.1203  0.1822
  147OSM   H16T16262   3.415   3.732   3.434  1.6912  1.1301 -0.6906
  147OSM   C17S16263   3.338   3.871   3.582  0.3469 -0.2405  0.4088
  147OSM   H17S16264   3.230   3.844   3.575  0.2440  0.6034 -3.1495
  147OSM   H17T16265   3.348   3.955   3.509 -2.6492 -0.9226 -0.9715
  147OSM   C18S16266   3.353   3.916   3.725  0.5966  1.0929 -0.7601
  147OSM   H18S16267   3.292   4.008   3.735 -2.3174 -0.9074  1.6024
  147OSM   H18T16268   3.455   3.947   3.759  0.7549  0.0738 -0.2792
  147OSM   H18U16269   3.307   3.845   3.796 -0.3277  0.3953 -2.0231
  147OSM    C1F16270   3.419   3.543   2.362 -0.4825 -1.1182  0.3385
  147OSM     OF16271   3.491   3.510   2.267 -0.1460  0.1751  0.1628
  147OSM    C2F16272   3.358   3.446   2.456 -0.0134  0.1110 -0.7202
  147OSM    H2F16273   3.398   3.349   2.417  0.1268  0.0537 -0.4391
  147OSM    H2G16274   3.247   3.441   2.450 -0.1109 -1.3424  1.1369
  147OSM    C3F16275   3.393   3.483   2.605  0.3680 -0.5984  0.5616
  147OSM    H3F16276   3.330   3.570   2.634 -0.1898 -1.3713  1.7781
  147OSM    H3G16277   3.501   3.507   2.613  0.6257 -1.4781 -0.1826
  147OSM    C4F16278   3.380   3.369   2.702  0.4235  0.3514 -0.0444
  147OSM    H4F16279   3.480   3.321   2.701  0.0889 -0.3555 -0.7720
  147OSM    H4G16280   3.298   3.303   2.667 -0.0872  1.0887 -0.2563
  147OSM    C5F16281   3.354   3.400   2.846  0.1494 -0.8667 -1.2283
  147OSM    H5F16282   3.341   3.308   2.908  1.7207 -1.1786 -1.3334
  147OSM    H5G16283   3.265   3.466   2.856  0.2350 -0.8690 -0.4442
  147OSM    C6F16284   3.468   3.476   2.913 -0.3450  0.1241  0.1576
  147OSM    H6F16285   3.483   3.578   2.870  1.4286  0.3841  1.2724
  147OSM    H6G16286   3.565   3.425   2.893 -0.3176 -0.2191  1.1098
  147OSM    C7F16287   3.455   3.468   3.062  0.2153 -0.0641 -0.2467
  147OSM    H7F16288   3.555   3.491   3.103  0.5037 -1.8705  0.1499
  147OSM    H7G16289   3.453   3.364   3.102  1.8312  0.2093  0.5883
  147OSM    C8F16290   3.338   3.557   3.121 -0.3894 -0.2009 -0.2225
  147OSM    H8F16291   3.343   3.526   3.228 -2.2746 -1.5170 -0.4539
  147OSM    H8G16292   3.251   3.507   3.074  1.0142  0.4087 -3.7929
  147OSM    C9F16293   3.350   3.706   3.089  0.8223  0.3209 -0.0492
  147OSM    H9F16294   3.453   3.737   3.068  0.5629  0.7363 -0.7182
  147OSM   C10F16295   3.246   3.784   3.055 -0.2751 -0.1563 -0.1801
  147OSM   H10F16296   3.270   3.882   3.012  1.1716 -0.4219 -0.0237
  147OSM   C11F16297   3.104   3.746   3.073 -0.8053  0.6010  0.1122
  147OSM   H11F16298   3.094   3.644   3.116 -2.4641  0.0629 -1.4128
  147OSM   H11G16299   3.050   3.728   2.978 -2.6403 -0.6321  1.3120
  147OSM   C12F16300   3.011   3.849   3.148  0.5232 -0.2673 -0.6927
  147OSM   H12F16301   2.912   3.834   3.100 -0.1625  0.8784  0.3153
  147OSM   H12G16302   3.045   3.950   3.118 -1.6322  0.2367 -1.5993
  147OSM   C13F16303   3.015   3.830   3.298  0.5402  0.2444 -0.1339
  147OSM   H13F16304   3.118   3.832   3.339  0.2096  0.3007  0.7099
  147OSM   H13G16305   2.999   3.721   3.315 -0.6658  0.3618 -0.4390
  147OSM   C14F16306   2.920   3.924   3.378  0.4394  0.2460  0.4365
  147OSM   H14F16307   2.819   3.912   3.332 -0.1766  0.8235  1.5986
  147OSM   H14G16308   2.924   4.032   3.352  0.2008  0.4510  1.2288
  147OSM   C15F16309   2.924   3.904   3.522  0.0404  0.8057  0.3687
  147OSM   H15F16310   3.026   3.921   3.563 -0.9597  3.4637  1.9909
  147OSM   H15G16311   2.890   3.802   3.551 -0.5250  0.6214 -0.8771
  147OSM   C16F16312   2.842   4.005   3.600  0.5879 -0.1145  0.1962
  147OSM   H16F16313   2.742   4.008   3.550  1.2311 -2.1255 -1.3699
  147OSM   H16G16314   2.886   4.106   3.591 -0.8823  0.3483 -3.6844
  147OSM   C17F16315   2.829   3.956   3.748 -0.5011  0.0041 -1.2613
  147OSM   H17F16316   2.769   3.863   3.759  1.4171 -1.0523  1.2592
  147OSM   H17G16317   2.771   4.029   3.809 -0.6998 -0.9579 -0.2709
  147OSM   C18F16318   2.957   3.921   3.820  0.8811  0.0822 -0.8120
  147OSM   H18F16319   3.008   3.830   3.783  1.2155  0.2695 -0.8184
  147OSM   H18G16320   2.927   3.898   3.924  1.6629  2.0295 -0.0959
  147OSM   H18H16321   3.027   4.007   3.828 -0.2439  0.8467  2.0587
  148OSM      N16322   3.067   2.306   1.570  0.1997 -0.1874  0.1331
  148OSM    C1516323   2.951   2.253   1.495 -0.3221  0.5892  0.2240
  148OSM   H15A16324   2.919   2.157   1.530  0.6651  0.2894  0.3333
  148OSM   H15B16325   2.982   2.239   1.392  0.0378  3.1625 -0.0922
  148OSM   H15C16326   2.870   2.324   1.495 -0.1198  0.8309 -0.3874
  148OSM    C1416327   3.037   2.339   1.718 -0.2844  0.9428  0.0657
  148OSM   H14A16328   2.999   2.440   1.724 -1.2197  0.7141 -1.3724
  148OSM   H14B16329   3.133   2.328   1.766 -1.1498 -1.8569  1.3879
  148OSM   H14C16330   2.967   2.266   1.756  0.6148 -1.1389 -2.0276
  148OSM    C1316331   3.168   2.201   1.570 -0.6700 -0.3182  0.2991
  148OSM   H13A16332   3.121   2.111   1.608  0.7145 -0.6900  1.2023
  148OSM   H13B16333   3.260   2.223   1.621  0.3109  0.9242 -1.8682
  148OSM   H13C16334   3.199   2.172   1.471 -1.3179  0.3973 -0.1282
  148OSM    C1216335   3.120   2.436   1.503  0.5826 -0.6096  0.5436
  148OSM   H12A16336   3.150   2.402   1.405  0.8000 -3.2988  1.4596
  148OSM   H12B16337   3.212   2.460   1.554 -0.0423  0.4560  1.2229
  148OSM    C1116338   3.027   2.560   1.520 -0.1962  0.5538  0.0346
  148OSM   H11A16339   2.920   2.532   1.525  0.4208 -2.2060 -0.4390
  148OSM   H11B16340   3.037   2.614   1.424 -1.8496 -1.0846 -1.1130
  148OSM      P16341   2.975   2.777   1.663  0.2052  0.2126  0.2020
  148OSM    O1316342   3.084   2.876   1.692  0.2220  0.3566 -0.2493
  148OSM    O1416343   2.890   2.803   1.546  0.1142 -0.1117 -0.4512
  148OSM    O1116344   2.890   2.744   1.795 -0.4466 -0.2593 -0.5216
  148OSM    O1216345   3.057   2.643   1.631 -0.2279  0.5052  0.2051
  148OSM    C1S16346   2.954   2.762   1.927 -0.2251  0.7629 -0.7064
  148OSM    H1S16347   2.966   2.868   1.956 -0.5781  0.6074  0.0448
  148OSM    H1T16348   3.051   2.708   1.925 -0.1228  0.7371  1.8969
  148OSM     NF16349   2.922   2.724   2.165 -0.2760  0.2116 -0.3443
  148OSM    HNF16350   2.978   2.656   2.212  0.2146 -0.2536 -1.5443
  148OSM    C2S16351   2.878   2.687   2.041  0.3542  0.0776  0.0702
  148OSM    H2S16352   2.780   2.738   2.031  1.6160  2.3921 -1.7676
  148OSM    C3S16353   2.878   2.531   2.017  0.3780  0.0840 -0.2692
  148OSM    H3S16354   2.981   2.491   2.009  0.0864 -0.4435 -1.7271
  148OSM     O316355   2.835   2.498   1.883  0.0697 -0.0713 -0.0367
  148OSM    HO316356   2.836   2.580   1.834  3.1597  0.1934  0.2770
  148OSM    C4S16357   2.797   2.465   2.126  0.0899  0.3580  0.2830
  148OSM    H4S16358   2.851   2.452   2.221  1.8901 -4.2791 -1.0510
  148OSM    C5S16359   2.672   2.418   2.113  0.7301 -1.1514 -0.2808
  148OSM    H5S16360   2.628   2.419   2.013 -0.5576 -0.5394  0.2701
  148OSM    C6S16361   2.606   2.349   2.227  0.0392 -0.0576  0.3818
  148OSM    H6S16362   2.609   2.243   2.193  1.5851  0.2247 -0.4593
  148OSM    H6T16363   2.502   2.387   2.228 -0.1494 -0.5569  0.3176
  148OSM    C7S16364   2.669   2.353   2.371  0.2583 -0.2415  0.0904
  148OSM    H7S16365   2.680   2.462   2.391  2.0327 -0.2519 -0.6625
  148OSM    H7T16366   2.768   2.303   2.370 -0.4747 -1.7297 -0.4173
  148OSM    C8S16367   2.593   2.271   2.478  0.3200  0.1967  0.0206
  148OSM    H8S16368   2.588   2.163   2.453  0.3831  0.4325 -1.0602
  148OSM    H8T16369   2.490   2.309   2.490  0.0964 -0.2343 -0.4938
  148OSM    C9S16370   2.656   2.302   2.608 -0.2842  0.2588 -0.5805
  148OSM    H9S16371   2.679   2.411   2.611  0.3898  0.1055  0.4480
  148OSM    H9T16372   2.757   2.258   2.621 -0.4617  0.1017  0.3976
  148OSM   C10S16373   2.572   2.245   2.723 -0.1210 -0.5271 -0.6626
  148OSM   H10S16374   2.575   2.134   2.725  1.9600 -0.4924  0.2874
  148OSM   H10T16375   2.467   2.268   2.695 -0.5197 -0.5782  0.7457
  148OSM   C11S16376   2.628   2.310   2.844 -0.1662 -0.5794 -0.0539
  148OSM   H11S16377   2.655   2.418   2.849  1.1365 -0.9205  0.9866
  148OSM   H11T16378   2.730   2.272   2.867  1.3344  0.8508 -3.6201
  148OSM   C12S16379   2.532   2.289   2.965 -0.4676 -0.2087 -0.2604
  148OSM   H12S16380   2.520   2.182   2.989  0.2054 -0.0809  0.7496
  148OSM   H12T16381   2.430   2.331   2.952 -0.6830 -0.2538  1.0956
  148OSM   C13S16382   2.580   2.359   3.095 -0.7472 -0.4204  0.4493
  148OSM   H13S16383   2.579   2.464   3.059 -0.4570 -0.9012 -1.0185
  148OSM   H13T16384   2.687   2.351   3.123 -0.8554  0.6009  1.1978
  148OSM   C14S16385   2.494   2.332   3.212 -0.2920 -0.3552  0.2766
  148OSM   H14S16386   2.385   2.327   3.189 -0.6886 -3.0923  2.1955
  148OSM   H14T16387   2.501   2.412   3.289  0.8369  0.3705 -0.5514
  148OSM   C15S16388   2.535   2.200   3.269 -0.3513 -0.1299  0.4221
  148OSM   H15S16389   2.634   2.226   3.311 -0.0208  0.1514 -0.5282
  148OSM   H15T16390   2.543   2.118   3.194  0.1461  1.4080 -1.2468
  148OSM   C16S16391   2.446   2.163   3.389 -0.2417 -0.1416 -0.3743
  148OSM   H16S16392   2.354   2.117   3.346  0.0314 -1.7490  0.6862
  148OSM   H16T16393   2.420   2.254   3.447 -0.6890  0.4520 -1.4797
  148OSM   C17S16394   2.511   2.060   3.478 -0.6253  0.3088 -0.2269
  148OSM   H17S16395   2.568   1.990   3.413  0.5902  1.9438 -0.9936
  148OSM   H17T16396   2.431   1.997   3.521 -1.2348  0.1032 -1.6092
  148OSM   C18S16397   2.608   2.110   3.579  0.3459 -0.1335  0.2609
  148OSM   H18S16398   2.687   2.175   3.534  0.9961 -2.0389 -1.4678
  148OSM   H18T16399   2.651   2.028   3.640 -1.1092 -1.9704 -1.0885
  148OSM   H18U16400   2.551   2.166   3.656  1.7001  1.2589  0.3225
  148OSM    C1F16401   2.932   2.847   2.205  0.8215 -0.6339  0.1880
  148OSM     OF16402   2.870   2.942   2.154  0.4771  0.2825 -0.1295
  148OSM    C2F16403   3.018   2.874   2.325 -0.5647  0.4598  0.2099
  148OSM    H2F16404   3.124   2.841   2.317 -1.9252 -4.5292 -0.0466
  148OSM    H2G16405   2.972   2.849   2.423  0.2621 -0.9640  0.2605
  148OSM    C3F16406   3.048   3.031   2.333 -0.1532  0.1259  0.5054
  148OSM    H3F16407   2.948   3.080   2.342  0.5025  2.0794 -1.8725
  148OSM    H3G16408   3.089   3.070   2.238  1.1713  4.3184  2.5567
  148OSM    C4F16409   3.136   3.072   2.456  0.0055 -0.7320  0.1509
  148OSM    H4F16410   3.153   3.182   2.447 -1.2662 -0.6373 -1.4218
  148OSM    H4G16411   3.234   3.021   2.447 -0.4293 -1.3561 -1.4766
  148OSM    C5F16412   3.063   3.031   2.591  0.4420  0.5677  0.5445
  148OSM    H5F16413   3.084   2.922   2.598  1.1041  0.7723  2.2897
  148OSM    H5G16414   2.952   3.031   2.588  0.4555 -0.0526 -0.1437
  148OSM    C6F16415   3.136   3.085   2.717  0.1236 -0.2709 -0.1873
  148OSM    H6F16416   3.117   3.193   2.736 -1.1881 -0.8348  1.9907
  148OSM    H6G16417   3.244   3.065   2.702  0.0022 -1.2559  0.1694
  148OSM    C7F16418   3.060   3.023   2.840  0.5146 -0.3742 -0.0894
  148OSM    H7F16419   3.061   2.913   2.824 -0.2629 -0.2795 -0.8597
  148OSM    H7G16420   2.954   3.056   2.833  0.6756 -0.0865 -1.4254
  148OSM    C8F16421   3.131   3.048   2.977  0.2688 -0.6234  0.1730
  148OSM    H8F16422   3.140   3.158   2.982 -0.0879 -0.5818 -0.0591
  148OSM    H8G16423   3.236   3.014   2.971  0.5240  0.4471 -2.2887
  148OSM    C9F16424   3.054   2.982   3.090  0.1144 -0.2720  0.1602
  148OSM    H9F16425   3.048   2.873   3.076  0.7967 -0.3347  0.3213
  148OSM   C10F16426   3.020   3.028   3.210  0.2069 -0.1400  0.2182
  148OSM   H10F16427   2.968   2.973   3.289  3.0455  0.2915  2.5884
  148OSM   C11F16428   3.021   3.173   3.248 -0.2082  0.1492  0.0796
  148OSM   H11F16429   2.953   3.193   3.334 -1.5538 -4.7081  0.4325
  148OSM   H11G16430   2.997   3.241   3.164  2.3978 -0.6533 -1.4340
  148OSM   C12F16431   3.171   3.221   3.289 -0.4731 -0.7165  0.1568
  148OSM   H12F16432   3.229   3.233   3.195  2.5099 -0.0688  1.9411
  148OSM   H12G16433   3.216   3.144   3.355 -0.1753  0.0559  0.8715
  148OSM   C13F16434   3.188   3.361   3.357  0.3472 -0.0011 -0.4275
  148OSM   H13F16435   3.154   3.433   3.280 -1.9626 -0.2813  0.2545
  148OSM   H13G16436   3.293   3.368   3.390  0.8850 -3.0044 -1.2041
  148OSM   C14F16437   3.084   3.387   3.468  0.7504 -0.4952 -0.0111
  148OSM   H14F16438   3.103   3.317   3.552  1.2454 -0.9948 -0.5267
  148OSM   H14G16439   2.982   3.396   3.425 -0.2005  1.0357  2.3447
  148OSM   C15F16440   3.105   3.524   3.533  0.2003 -0.0392  0.0283
  148OSM   H15F16441   3.076   3.606   3.463  0.2732 -0.3333 -0.3484
  148OSM   H15G16442   3.212   3.530   3.562  0.2226  1.4826 -0.2438
  148OSM   C16F16443   3.014   3.540   3.659  0.1060 -0.4393  0.6965
  148OSM   H16F16444   2.912   3.523   3.619 -0.3383  1.8167  0.7143
  148OSM   H16G16445   3.023   3.646   3.692 -0.1800 -0.0375 -0.4629
  148OSM   C17F16446   3.039   3.458   3.784 -0.2524 -0.7520  0.3464
  148OSM   H17F16447   3.129   3.499   3.835 -1.0832 -1.1703  2.2580
  148OSM   H17G16448   3.052   3.351   3.760 -1.7388 -0.6459 -1.0574
  148OSM   C18F16449   2.922   3.474   3.885 -0.2223  0.0624 -0.1683
  148OSM   H18F16450   2.846   3.401   3.849 -1.2951  1.0674 -0.0351
  148OSM   H18G16451   2.888   3.580   3.885  1.6197  0.6777  0.7291
  148OSM   H18H16452   2.958   3.448   3.986  0.9054 -2.0014 -1.0539
  149OSM      N16453   4.225   2.294   1.431  0.3653 -0.4192 -0.2642
  149OSM    C1516454   4.207   2.225   1.298 -0.4457 -0.9166 -0.2757
  149OSM   H15A16455   4.184   2.122   1.319 -4.9785  0.2794  1.8070
  149OSM   H15B16456   4.294   2.233   1.235 -0.8571 -1.2338 -0.8920
  149OSM   H15C16457   4.122   2.256   1.240  0.0545 -1.3984 -1.3016
  149OSM    C1416458   4.280   2.432   1.405 -0.1709 -0.3838  0.2081
  149OSM   H14A16459   4.224   2.491   1.334  2.3703  2.2630  0.1980
  149OSM   H14B16460   4.377   2.425   1.358  0.9771 -0.8749  2.4995
  149OSM   H14C16461   4.281   2.485   1.499  0.7691  0.0490 -0.0336
  149OSM    C1316462   4.083   2.303   1.484 -0.3587 -0.7358 -0.5804
  149OSM   H13A16463   4.039   2.386   1.430  2.0046 -0.3490 -2.0859
  149OSM   H13B16464   4.085   2.326   1.590 -3.0675 -0.6567 -0.4898
  149OSM   H13C16465   4.028   2.211   1.478 -0.3554 -0.9637  1.9719
  149OSM    C1216466   4.324   2.219   1.524 -0.0617 -0.0309 -0.0217
  149OSM   H12A16467   4.415   2.212   1.466  0.1911  2.6009 -0.0887
  149OSM   H12B16468   4.285   2.119   1.534 -1.1686  0.5423  2.2501
  149OSM    C1116469   4.341   2.276   1.670 -0.7187  0.2978  0.1670
  149OSM   H11A16470   4.382   2.378   1.658 -2.6011  0.9950 -0.6222
  149OSM   H11B16471   4.410   2.207   1.724 -1.9219 -1.9805 -1.0513
  149OSM      P16472   4.171   2.149   1.812  0.7428 -0.2994 -0.4113
  149OSM    O1316473   4.030   2.178   1.867 -0.0357  0.0696  0.2257
  149OSM    O1416474   4.180   2.048   1.711  0.3684  0.4012 -0.1155
  149OSM    O1116475   4.263   2.117   1.936 -0.5673 -0.0152  0.0482
  149OSM    O1216476   4.218   2.282   1.740 -0.3048 -0.5919 -0.0180
  149OSM    C1S16477   4.319   2.220   2.010 -0.3898 -0.4804 -0.5303
  149OSM    H1S16478   4.268   2.316   1.990 -2.7808 -1.4093  0.7184
  149OSM    H1T16479   4.426   2.236   1.983  0.1878 -1.5785  0.9037
  149OSM     NF16480   4.346   2.308   2.238 -0.2909  0.2310  0.3406
  149OSM    HNF16481   4.437   2.290   2.274  0.2738 -3.3166 -2.2716
  149OSM    C2S16482   4.296   2.194   2.160  0.1402  0.3411  0.1880
  149OSM    H2S16483   4.186   2.197   2.171  0.0960 -1.9672  1.0212
  149OSM    C3S16484   4.345   2.051   2.200  0.3829  0.3066 -0.0451
  149OSM    H3S16485   4.453   2.035   2.181 -0.2089 -1.9083 -1.9550
  149OSM     O316486   4.271   1.948   2.133  0.0627  0.2053 -0.3698
  149OSM    HO316487   4.250   2.002   2.056  2.6814  0.8875 -0.7028
  149OSM    C4S16488   4.320   2.048   2.350 -0.6114  0.4096  0.3135
  149OSM    H4S16489   4.413   2.043   2.409 -1.2551  2.7374  1.6719
  149OSM    C5S16490   4.197   2.022   2.409 -0.9056 -0.1739 -0.1746
  149OSM    H5S16491   4.111   1.986   2.352 -1.2109  0.2762 -0.0117
  149OSM    C6S16492   4.180   1.992   2.557 -0.1989  0.2861  0.1332
  149OSM    H6S16493   4.145   1.888   2.575  0.5869 -0.3315 -1.6598
  149OSM    H6T16494   4.104   2.061   2.600 -0.9842 -1.2525  1.2985
  149OSM    C7S16495   4.310   2.022   2.645 -0.0542  0.0623 -0.3871
  149OSM    H7S16496   4.359   2.120   2.624  0.4019 -0.3387 -1.2398
  149OSM    H7T16497   4.393   1.956   2.613 -1.5207 -2.5527  0.8937
  149OSM    C8S16498   4.281   2.024   2.798  0.4274  0.5673  0.1828
  149OSM    H8S16499   4.262   1.918   2.829 -0.1499  0.5693 -0.1383
  149OSM    H8T16500   4.193   2.089   2.818 -1.2962 -1.6722  0.3593
  149OSM    C9S16501   4.392   2.082   2.883 -0.0412 -0.8980  0.7095
  149OSM    H9S16502   4.352   2.097   2.986  0.0866 -1.8464  0.9113
  149OSM    H9T16503   4.413   2.181   2.838  0.7973 -1.8562 -1.1193
  149OSM   C10S16504   4.518   2.003   2.906  0.0872  0.1444 -0.0539
  149OSM   H10S16505   4.594   2.063   2.961 -0.7651  0.9077  0.3282
  149OSM   H10T16506   4.559   1.965   2.811 -0.3552  1.3051 -0.7290
  149OSM   C11S16507   4.490   1.877   2.985  0.7232 -0.0197  0.3351
  149OSM   H11S16508   4.435   1.802   2.926  0.5116 -0.0876  0.6162
  149OSM   H11T16509   4.420   1.895   3.070 -1.6938 -1.0963 -1.3309
  149OSM   C12S16510   4.623   1.821   3.050  0.1369 -0.2498  0.3958
  149OSM   H12S16511   4.697   1.898   3.083 -1.0729 -0.0550  2.8773
  149OSM   H12T16512   4.674   1.768   2.967  0.5420  0.4485  0.1913
  149OSM   C13S16513   4.598   1.721   3.158 -0.1473  0.1598 -0.6442
  149OSM   H13S16514   4.528   1.643   3.121 -1.5125  1.2211 -0.3710
  149OSM   H13T16515   4.548   1.777   3.240 -0.5701 -0.9524 -0.1249
  149OSM   C14S16516   4.728   1.662   3.206 -0.0872 -0.2233  0.1780
  149OSM   H14S16517   4.814   1.695   3.144 -0.1690 -1.4682 -0.6182
  149OSM   H14T16518   4.725   1.552   3.192 -0.4938 -0.2415  0.3847
  149OSM   C15S16519   4.746   1.698   3.353  0.3686 -0.3800  0.1592
  149OSM   H15S16520   4.647   1.701   3.404 -0.4330  0.0987 -1.3563
  149OSM   H15T16521   4.793   1.799   3.357  2.5825 -1.3119 -0.8140
  149OSM   C16S16522   4.837   1.600   3.424  0.1553 -0.0915 -0.1856
  149OSM   H16S16523   4.940   1.615   3.383  0.4330  2.8742  1.3888
  149OSM   H16T16524   4.806   1.495   3.405  0.2515 -0.4151  1.3023
  149OSM   C17S16525   4.850   1.628   3.580  0.0266 -0.2961  0.2029
  149OSM   H17S16526   4.824   1.733   3.604 -0.4082  0.3015 -2.5350
  149OSM   H17T16527   4.957   1.611   3.603  0.2107  1.3058  0.6587
  149OSM   C18S16528   4.766   1.531   3.672 -0.0034  0.3133 -0.5204
  149OSM   H18S16529   4.814   1.433   3.650 -0.7144 -0.9445  2.9228
  149OSM   H18T16530   4.657   1.544   3.656 -0.1184  0.3367  0.2370
  149OSM   H18U16531   4.794   1.549   3.778  0.1812  0.7278 -0.6381
  149OSM    C1F16532   4.282   2.424   2.243 -0.0438 -0.8793  0.1925
  149OSM     OF16533   4.175   2.449   2.187  0.0686  0.3834  0.5001
  149OSM    C2F16534   4.356   2.528   2.317 -0.4638 -0.2773 -0.2463
  149OSM    H2F16535   4.387   2.613   2.254 -0.6640 -0.9363 -1.2562
  149OSM    H2G16536   4.444   2.489   2.372  0.7207  1.6372 -0.7123
  149OSM    C3F16537   4.262   2.573   2.427  1.4825 -0.9840  0.2756
  149OSM    H3F16538   4.171   2.618   2.382  1.5068 -0.5452  0.6482
  149OSM    H3G16539   4.317   2.653   2.482 -0.2216  0.5907 -0.1829
  149OSM    C4F16540   4.226   2.458   2.522 -0.0055  1.3367  0.1791
  149OSM    H4F16541   4.322   2.402   2.533 -0.2624  0.4785 -1.5181
  149OSM    H4G16542   4.147   2.393   2.478  1.0539  0.2704 -0.2119
  149OSM    C5F16543   4.170   2.502   2.655  0.1661 -0.6583  0.0937
  149OSM    H5F16544   4.071   2.550   2.643  0.1952 -0.6674 -0.1851
  149OSM    H5G16545   4.227   2.583   2.704 -1.2906  0.1518  0.5044
  149OSM    C6F16546   4.179   2.390   2.763  0.6527  0.3693 -0.2994
  149OSM    H6F16547   4.276   2.339   2.779  0.6990  0.1857 -1.1009
  149OSM    H6G16548   4.115   2.309   2.720 -0.1531  1.0301 -0.3787
  149OSM    C7F16549   4.124   2.429   2.897 -0.1259 -0.2702  1.0242
  149OSM    H7F16550   4.042   2.501   2.879 -0.1336  0.0886  2.4027
  149OSM    H7G16551   4.196   2.490   2.956  0.4585  0.4798 -0.4020
  149OSM    C8F16552   4.071   2.315   2.980  0.6667  0.5894 -0.1250
  149OSM    H8F16553   4.155   2.245   3.000  1.7213  1.1252 -2.3966
  149OSM    H8G16554   3.990   2.264   2.924  1.2982 -2.3162  1.3985
  149OSM    C9F16555   4.030   2.362   3.121  0.4395 -0.4628  0.9344
  149OSM    H9F16556   4.024   2.472   3.126 -0.4334 -0.5218  1.3570
  149OSM   C10F16557   4.012   2.288   3.229  0.6678 -0.3469  0.3233
  149OSM   H10F16558   3.990   2.345   3.321  1.8158  0.7828 -0.0808
  149OSM   C11F16559   4.033   2.137   3.244  0.0560  0.0840 -0.2577
  149OSM   H11F16560   4.013   2.088   3.146  1.2686  1.2683 -1.1428
  149OSM   H11G16561   3.959   2.100   3.318 -3.4908  2.3203 -2.4408
  149OSM   C12F16562   4.180   2.116   3.292  0.2099 -0.2168 -0.5380
  149OSM   H12F16563   4.191   2.127   3.402 -0.3775 -3.9139  0.0412
  149OSM   H12G16564   4.249   2.190   3.246 -0.5992  1.7017  1.1713
  149OSM   C13F16565   4.226   1.981   3.251  0.4799 -0.0626  0.6654
  149OSM   H13F16566   4.337   1.981   3.247  0.4537 -0.8679 -0.2255
  149OSM   H13G16567   4.183   1.980   3.149  0.3465  1.4040  0.6808
  149OSM   C14F16568   4.179   1.874   3.350 -0.9703 -0.3392 -0.0999
  149OSM   H14F16569   4.128   1.795   3.290  0.2492 -0.7622 -0.6163
  149OSM   H14G16570   4.095   1.906   3.414  0.1369  1.9057  0.3252
  149OSM   C15F16571   4.297   1.823   3.438  0.4241 -0.6413  0.8253
  149OSM   H15F16572   4.319   1.901   3.514  0.9173 -0.0576  0.0959
  149OSM   H15G16573   4.386   1.818   3.372  0.0582  0.3701  0.2444
  149OSM   C16F16574   4.273   1.695   3.513 -0.4212  0.0559  0.0393
  149OSM   H16F16575   4.255   1.616   3.438 -0.5388  1.8062 -1.8543
  149OSM   H16G16576   4.183   1.704   3.576  0.0828  0.0738  0.7744
  149OSM   C17F16577   4.392   1.672   3.600 -0.2235 -0.6520  0.5178
  149OSM   H17F16578   4.394   1.759   3.670  0.0332  1.2938 -1.7972
  149OSM   H17G16579   4.481   1.674   3.533 -0.8903  0.8804 -0.3524
  149OSM   C18F16580   4.391   1.539   3.674 -0.0727 -0.1521  0.1669
  149OSM   H18F16581   4.285   1.524   3.705 -0.0696  0.9730  0.7825
  149OSM   H18G16582   4.449   1.538   3.769  0.3024 -2.4611 -0.0339
  149OSM   H18H16583   4.410   1.454   3.605 -1.6411 -0.3120 -0.1093
  150OSM      N16584   2.456   4.298   1.547  0.0207 -0.1163 -0.3510
  150OSM    C1516585   2.486   4.276   1.402  0.1172 -0.0845  0.4453
  150OSM   H15A16586   2.407   4.318   1.343  0.2372 -0.7437 -0.1984
  150OSM   H15B16587   2.485   4.173   1.369 -2.7288  0.4209 -1.3936
  150OSM   H15C16588   2.580   4.324   1.382  0.5634 -0.2494  2.0219
  150OSM    C1416589   2.575   4.235   1.624 -0.3156 -0.3290 -0.3243
  150OSM   H14A16590   2.593   4.131   1.600 -1.3975 -0.2113 -1.8171
  150OSM   H14B16591   2.552   4.231   1.730 -0.4628 -1.4205 -0.3853
  150OSM   H14C16592   2.664   4.293   1.609 -0.5841  0.5943  1.3704
  150OSM    C1316593   2.457   4.448   1.574  0.8436 -0.7901  0.1536
  150OSM   H13A16594   2.550   4.491   1.539 -0.5063 -0.3378 -3.3143
  150OSM   H13B16595   2.444   4.467   1.680  0.4854  0.8323 -0.1458
  150OSM   H13C16596   2.385   4.512   1.524 -1.1924 -1.9593  1.4385
  150OSM    C1216597   2.327   4.239   1.579  0.3647  0.0588 -0.3148
  150OSM   H12A16598   2.329   4.132   1.561 -1.4991 -0.3408  1.4491
  150OSM   H12B16599   2.249   4.273   1.513 -0.7023 -0.4410  0.6607
  150OSM    C1116600   2.275   4.237   1.718  0.5542  0.7037 -0.3553
  150OSM   H11A16601   2.349   4.179   1.777 -1.5553 -2.2063 -0.3918
  150OSM   H11B16602   2.189   4.168   1.711  0.9954 -0.1616  1.9197
  150OSM      P16603   2.145   4.468   1.728 -0.1422  0.5222  0.7368
  150OSM    O1316604   2.215   4.597   1.711 -0.7121  1.1732  0.4259
  150OSM    O1416605   2.076   4.419   1.609  0.0885  0.4807  0.5380
  150OSM    O1116606   2.045   4.466   1.845  0.3435  0.2161 -0.5414
  150OSM    O1216607   2.260   4.362   1.779 -0.5753  0.1019  0.5310
  150OSM    C1S16608   2.006   4.341   1.909  0.2693 -0.3666 -0.6564
  150OSM    H1S16609   2.093   4.305   1.969 -0.8013 -0.1034  1.1132
  150OSM    H1T16610   1.988   4.262   1.833  2.4251 -1.0971 -0.4780
  150OSM     NF16611   1.873   4.253   2.098  0.3320  0.0806  0.0532
  150OSM    HNF16612   1.798   4.188   2.086 -1.6708  2.3519 -0.5214
  150OSM    C2S16613   1.883   4.360   1.999  0.1310 -1.0739 -0.9340
  150OSM    H2S16614   1.895   4.450   2.063  1.2575 -2.3873  0.8106
  150OSM    C3S16615   1.754   4.390   1.910  0.1332  0.2647 -0.0148
  150OSM    H3S16616   1.735   4.305   1.841 -1.0728  1.1098 -0.7613
  150OSM     O316617   1.767   4.505   1.826  0.1115  0.1139 -0.4321
  150OSM    HO316618   1.861   4.523   1.834  0.2237 -0.5306 -0.2684
  150OSM    C4S16619   1.632   4.402   2.005 -0.4794 -0.2702 -0.0880
  150OSM    H4S16620   1.593   4.304   2.036  1.2951 -0.6297  1.1295
  150OSM    C5S16621   1.579   4.518   2.058 -0.1534  0.2530  0.3171
  150OSM    H5S16622   1.630   4.614   2.040 -1.6307  1.1153  0.5158
  150OSM    C6S16623   1.474   4.506   2.169  0.6742  0.2860 -0.7103
  150OSM    H6S16624   1.382   4.483   2.111 -0.8640 -2.0248  2.3983
  150OSM    H6T16625   1.461   4.606   2.214 -0.0156  0.8882 -2.1730
  150OSM    C7S16626   1.503   4.398   2.272 -0.5314  0.4464 -0.3121
  150OSM    H7S16627   1.605   4.404   2.316 -0.8523  1.8757  0.3002
  150OSM    H7T16628   1.495   4.299   2.222  0.8153 -0.0112  0.3143
  150OSM    C8S16629   1.407   4.390   2.393  0.2191  0.2925 -0.5767
  150OSM    H8S16630   1.442   4.323   2.474  0.6286  1.5172  0.2906
  150OSM    H8T16631   1.312   4.351   2.351 -1.0550  0.5331  1.8837
  150OSM    C9S16632   1.387   4.527   2.466  0.1292  0.1365  0.0304
  150OSM    H9S16633   1.357   4.611   2.399  2.0109  0.1968 -0.8154
  150OSM    H9T16634   1.482   4.554   2.517  0.5034 -2.8955  1.1333
  150OSM   C10S16635   1.284   4.511   2.580  0.0113  0.1010  0.5881
  150OSM   H10S16636   1.265   4.403   2.600 -1.5418  0.4537  1.0969
  150OSM   H10T16637   1.188   4.538   2.533 -1.7064 -4.1368  1.1718
  150OSM   C11S16638   1.321   4.577   2.716 -0.4168 -0.3461  0.2378
  150OSM   H11S16639   1.310   4.688   2.714  0.2673 -0.2756 -0.9234
  150OSM   H11T16640   1.429   4.555   2.727 -0.5363 -1.2455 -0.2505
  150OSM   C12S16641   1.254   4.514   2.847 -0.7647 -0.3971 -0.7867
  150OSM   H12S16642   1.292   4.414   2.877 -2.4426 -0.7692  0.1842
  150OSM   H12T16643   1.148   4.504   2.815 -1.0820 -2.3552  0.7080
  150OSM   C13S16644   1.260   4.601   2.973 -0.1015 -0.5683 -0.3408
  150OSM   H13S16645   1.174   4.582   3.041 -0.1381 -1.8433 -0.7137
  150OSM   H13T16646   1.258   4.708   2.942  0.0935 -0.5911 -0.4297
  150OSM   C14S16647   1.384   4.572   3.060  0.0642 -0.0104  0.1296
  150OSM   H14S16648   1.465   4.542   2.991 -0.7050 -0.0812 -0.7594
  150OSM   H14T16649   1.359   4.478   3.114  0.7897 -2.1370 -2.9660
  150OSM   C15S16650   1.431   4.682   3.147  0.1143  0.3702  0.0984
  150OSM   H15S16651   1.448   4.770   3.081 -2.1950  1.8892  1.3692
  150OSM   H15T16652   1.524   4.652   3.200  0.2934  0.7467 -0.0026
  150OSM   C16S16653   1.325   4.733   3.243 -0.2067  0.1304  0.1913
  150OSM   H16S16654   1.263   4.786   3.168  0.6177  0.4884 -0.2324
  150OSM   H16T16655   1.361   4.814   3.310 -2.7191  2.1781 -0.7705
  150OSM   C17S16656   1.261   4.630   3.337  0.6564  0.2754 -0.3026
  150OSM   H17S16657   1.334   4.580   3.405  2.0922  0.1867 -1.8474
  150OSM   H17T16658   1.221   4.543   3.280 -0.2060 -1.3407  2.5154
  150OSM   C18S16659   1.145   4.674   3.428 -0.3091  0.0810 -0.2144
  150OSM   H18S16660   1.058   4.682   3.360  0.6231  0.4797 -1.4088
  150OSM   H18T16661   1.176   4.768   3.479  1.4745 -0.8279  0.4581
  150OSM   H18U16662   1.126   4.593   3.501  0.0441  1.5134  1.5410
  150OSM    C1F16663   1.957   4.249   2.204 -0.2351  0.6107  0.8739
  150OSM     OF16664   2.030   4.347   2.222 -0.6478  0.4607 -0.3132
  150OSM    C2F16665   1.961   4.128   2.284  0.3679  0.0217 -0.2646
  150OSM    H2F16666   2.039   4.114   2.361 -0.4440  0.8749  0.7362
  150OSM    H2G16667   1.953   4.034   2.225  0.8800 -0.2621  0.1080
  150OSM    C3F16668   1.835   4.120   2.373 -0.4403 -0.1651 -0.0748
  150OSM    H3F16669   1.815   4.016   2.407  0.2679 -0.7988 -1.5040
  150OSM    H3G16670   1.746   4.141   2.310 -0.0206 -0.2361 -0.6979
  150OSM    C4F16671   1.836   4.213   2.494  0.1301  0.2467  0.1478
  150OSM    H4F16672   1.845   4.321   2.468  0.0906 -0.0304 -1.0799
  150OSM    H4G16673   1.934   4.183   2.538  0.7116 -0.7730 -1.7385
  150OSM    C5F16674   1.708   4.216   2.583 -0.8280  0.2000 -0.2527
  150OSM    H5F16675   1.712   4.118   2.635  0.9863  0.5217  0.2812
  150OSM    H5G16676   1.619   4.215   2.515 -2.7558  3.2389  1.9862
  150OSM    C6F16677   1.712   4.317   2.687 -0.3153 -0.0280 -0.1406
  150OSM    H6F16678   1.708   4.420   2.648  3.4568  0.9253  1.5903
  150OSM    H6G16679   1.810   4.320   2.738  0.4284  0.3173 -1.5465
  150OSM    C7F16680   1.585   4.300   2.777 -0.5860 -0.3437  0.9342
  150OSM    H7F16681   1.507   4.263   2.707  1.2456 -1.4425 -0.6206
  150OSM    H7G16682   1.560   4.401   2.816  3.2855  1.4974 -0.8677
  150OSM    C8F16683   1.591   4.191   2.890  0.3456  0.3211  0.6672
  150OSM    H8F16684   1.612   4.092   2.846 -1.0260  0.9916 -1.6398
  150OSM    H8G16685   1.489   4.193   2.934  0.5789 -0.5087  1.2663
  150OSM    C9F16686   1.698   4.224   2.987 -0.7178 -0.1854 -0.7623
  150OSM    H9F16687   1.799   4.224   2.943 -0.4244 -1.8183 -0.1833
  150OSM   C10F16688   1.690   4.228   3.118  0.0452  0.0090  0.4266
  150OSM   H10F16689   1.781   4.255   3.173  0.4809 -2.0531  0.7868
  150OSM   C11F16690   1.576   4.188   3.208  0.5080 -0.4562 -0.2214
  150OSM   H11F16691   1.617   4.093   3.246  1.2209 -0.0875 -0.0505
  150OSM   H11G16692   1.482   4.174   3.150 -0.2647 -1.4227  1.1888
  150OSM   C12F16693   1.545   4.273   3.326  0.6998 -0.2437 -0.0874
  150OSM   H12F16694   1.516   4.377   3.302 -1.1541 -0.1550  2.1733
  150OSM   H12G16695   1.637   4.292   3.386 -0.9489  0.2573  2.4540
  150OSM   C13F16696   1.432   4.224   3.420  0.2327  0.3432  0.6487
  150OSM   H13F16697   1.454   4.124   3.462  1.8603  1.4314  2.5509
  150OSM   H13G16698   1.345   4.219   3.351 -0.5354 -0.7899  1.6656
  150OSM   C14F16699   1.404   4.309   3.539  0.7487  0.5634 -0.1269
  150OSM   H14F16700   1.350   4.405   3.524 -0.1670  0.5442  2.5410
  150OSM   H14G16701   1.495   4.326   3.602  0.7783  0.8131 -0.2341
  150OSM   C15F16702   1.300   4.227   3.632 -0.3442  0.5413 -0.3537
  150OSM   H15F16703   1.346   4.126   3.636 -2.2926 -0.3891 -0.2205
  150OSM   H15G16704   1.202   4.226   3.580  0.6892 -0.5811 -2.3937
  150OSM   C16F16705   1.280   4.284   3.773  0.3295 -0.3709  0.5363
  150OSM   H16F16706   1.367   4.254   3.835 -0.2763 -2.1037  0.5976
  150OSM   H16G16707   1.189   4.240   3.819  0.3866 -2.2365 -1.0029
  150OSM   C17F16708   1.266   4.433   3.773 -0.1533  0.1043  0.1923
  150OSM   H17F16709   1.185   4.468   3.705 -2.1229  0.0329  2.3770
  150OSM   H17G16710   1.359   4.481   3.735 -1.0126  1.7168  0.0130
  150OSM   C18F16711   1.242   4.509   3.905 -1.0993  0.2814  0.3911
  150OSM   H18F16712   1.173   4.457   3.974  2.4416 -1.3582  3.0627
  150OSM   H18G16713   1.203   4.612   3.890  0.5534  1.6085  3.9157
  150OSM   H18H16714   1.336   4.514   3.964  0.6960  1.1291 -2.3453
  151OSM      N16715   1.931   3.299   1.377 -0.3073  0.1597 -0.2333
  151OSM    C1516716   2.027   3.405   1.339 -0.3210 -0.3432  0.6079
  151OSM   H15A16717   2.064   3.447   1.431  0.2016 -0.0600  0.2716
  151OSM   H15B16718   1.970   3.479   1.285 -0.2597  0.0921  1.1414
  151OSM   H15C16719   2.111   3.372   1.280 -0.6522 -0.1041 -0.0058
  151OSM    C1416720   1.859   3.244   1.253  0.6058 -0.4355 -0.6460
  151OSM   H14A16721   1.932   3.203   1.185  1.5366 -0.5557  0.4001
  151OSM   H14B16722   1.819   3.331   1.204 -1.7929 -0.0963  1.6544
  151OSM   H14C16723   1.773   3.183   1.276 -0.0126  0.3955 -0.6946
  151OSM    C1316724   2.006   3.189   1.446  0.3718 -0.7472  0.6189
  151OSM   H13A16725   2.092   3.156   1.391  0.4929 -1.4069  1.1817
  151OSM   H13B16726   1.942   3.106   1.471 -1.8111  1.2407  2.0778
  151OSM   H13C16727   2.034   3.222   1.545 -2.0709  1.1882  0.7618
  151OSM    C1216728   1.827   3.364   1.470  0.1101 -0.3026  0.4228
  151OSM   H12A16729   1.774   3.278   1.506  1.0826 -1.1487 -0.0800
  151OSM   H12B16730   1.755   3.425   1.417 -2.0320 -1.7529  1.5418
  151OSM    C1116731   1.873   3.446   1.582  0.1522  0.3835 -0.1716
  151OSM   H11A16732   1.791   3.484   1.647  2.1395  0.5486  2.3503
  151OSM   H11B16733   1.925   3.533   1.535  1.6493 -0.4226 -0.0502
  151OSM      P16734   2.040   3.450   1.784  0.2385 -0.2361  0.5417
  151OSM    O1316735   2.089   3.348   1.879  0.5093  0.3376 -0.2651
  151OSM    O1416736   2.137   3.550   1.730  0.8860  0.4117  0.7644
  151OSM    O1116737   1.921   3.522   1.858 -0.4434  0.3734  0.0608
  151OSM    O1216738   1.971   3.377   1.662  0.3009  0.3709 -0.2147
  151OSM    C1S16739   1.818   3.451   1.929  0.3192 -0.3945  0.4179
  151OSM    H1S16740   1.817   3.341   1.914 -0.0673 -0.2200 -0.9772
  151OSM    H1T16741   1.721   3.466   1.877  0.0165  1.2169  1.3563
  151OSM     NF16742   1.715   3.410   2.159 -0.0808 -0.8073  0.3295
  151OSM    HNF16743   1.624   3.439   2.189 -0.4286 -1.6526  0.1335
  151OSM    C2S16744   1.805   3.494   2.079  0.0364 -0.4100  0.9280
  151OSM    H2S16745   1.909   3.485   2.119  0.3873 -2.4014 -0.3263
  151OSM    C3S16746   1.776   3.649   2.083  0.3116  0.4648 -1.0734
  151OSM    H3S16747   1.669   3.655   2.051 -0.3660  3.2768  1.3532
  151OSM     O316748   1.851   3.734   1.996 -0.5152 -0.4320  0.2420
  151OSM    HO316749   1.876   3.674   1.924 -1.2384  0.4770 -0.7979
  151OSM    C4S16750   1.785   3.699   2.226  0.2685 -0.1583 -0.4418
  151OSM    H4S16751   1.886   3.719   2.264 -1.1748  3.4988  2.0068
  151OSM    C5S16752   1.684   3.721   2.313  0.1232  0.0808  0.3572
  151OSM    H5S16753   1.581   3.689   2.293  0.6973 -0.9906 -1.0488
  151OSM    C6S16754   1.712   3.770   2.450  0.5902  0.5798 -0.0100
  151OSM    H6S16755   1.648   3.716   2.522  0.4699  0.7059 -0.0203
  151OSM    H6T16756   1.681   3.877   2.450  3.0404  1.3863 -2.0270
  151OSM    C7S16757   1.849   3.754   2.522 -0.2255  0.1685 -0.2221
  151OSM    H7S16758   1.844   3.804   2.621 -2.2624 -0.0853 -0.1712
  151OSM    H7T16759   1.925   3.810   2.463 -1.2442  2.7198  0.7474
  151OSM    C8S16760   1.898   3.606   2.546  0.5354 -0.0185 -0.1487
  151OSM    H8S16761   1.888   3.541   2.457 -1.4988 -0.0455  0.0495
  151OSM    H8T16762   1.835   3.571   2.631  2.8495 -0.5909  1.4175
  151OSM    C9S16763   2.036   3.589   2.602  0.3213 -0.1120  0.7800
  151OSM    H9S16764   2.103   3.675   2.580  0.1755  0.0630  1.0149
  151OSM    H9T16765   2.093   3.502   2.561  0.3940 -0.7271  2.1262
  151OSM   C10S16766   2.026   3.573   2.754  0.7988 -0.2916 -0.0154
  151OSM   H10S16767   1.961   3.485   2.771 -0.0318 -0.1560 -2.1720
  151OSM   H10T16768   1.967   3.662   2.785  1.8094  0.9768 -1.5493
  151OSM   C11S16769   2.159   3.581   2.832  1.4349  0.3901  0.6857
  151OSM   H11S16770   2.220   3.666   2.796  2.5179 -0.7861 -0.3054
  151OSM   H11T16771   2.210   3.488   2.801 -0.9725 -0.2360 -1.7444
  151OSM   C12S16772   2.140   3.604   2.980  0.3308 -0.3185  0.1571
  151OSM   H12S16773   2.102   3.708   2.988  2.0288  0.2419  1.5959
  151OSM   H12T16774   2.241   3.598   3.026  0.4082  2.1094  0.4401
  151OSM   C13S16775   2.035   3.518   3.050  0.1807  0.4546 -0.0128
  151OSM   H13S16776   2.047   3.408   3.039 -0.0989  0.4756 -0.5739
  151OSM   H13T16777   1.933   3.532   3.008  0.2864 -2.4787 -1.5709
  151OSM   C14S16778   2.024   3.549   3.197  0.4184 -0.3347  0.4724
  151OSM   H14S16779   1.925   3.506   3.223  0.5524  0.5585  2.6602
  151OSM   H14T16780   2.013   3.658   3.214 -0.4262 -0.6835  2.4995
  151OSM   C15S16781   2.136   3.491   3.282  0.1550 -0.5671 -1.3961
  151OSM   H15S16782   2.231   3.546   3.266  1.5192 -1.6352  2.0261
  151OSM   H15T16783   2.155   3.384   3.257 -1.1604 -1.6292  1.5762
  151OSM   C16S16784   2.100   3.479   3.429  0.1845 -0.1125 -0.9555
  151OSM   H16S16785   2.171   3.413   3.483  2.3937  1.7418 -1.4207
  151OSM   H16T16786   2.000   3.435   3.445 -0.1159  1.2621  1.3654
  151OSM   C17S16787   2.115   3.613   3.511 -0.0749 -0.1750  0.3788
  151OSM   H17S16788   2.084   3.695   3.443 -1.8191 -0.3717  0.8819
  151OSM   H17T16789   2.220   3.621   3.547  0.1800 -0.2175 -0.3318
  151OSM   C18S16790   2.012   3.625   3.622  0.1103  0.2365  0.0159
  151OSM   H18S16791   2.025   3.553   3.706 -1.5512 -0.3739 -0.2052
  151OSM   H18T16792   1.910   3.608   3.582  0.3975 -0.7797 -0.3352
  151OSM   H18U16793   2.014   3.726   3.667  0.8863 -0.9142  2.8016
  151OSM    C1F16794   1.769   3.299   2.206 -0.4409  0.3752 -0.1054
  151OSM     OF16795   1.879   3.256   2.168  0.2743 -0.2916  0.0181
  151OSM    C2F16796   1.687   3.231   2.305 -0.6225 -0.1447 -0.3031
  151OSM    H2F16797   1.727   3.131   2.334 -2.0478 -1.3350 -2.2605
  151OSM    H2G16798   1.590   3.226   2.252 -0.8309  1.0491 -0.0677
  151OSM    C3F16799   1.684   3.306   2.444  0.3894 -0.5213  0.3264
  151OSM    H3F16800   1.626   3.401   2.439 -0.0458 -0.6294  2.4973
  151OSM    H3G16801   1.788   3.335   2.470 -0.8706  3.6207  1.5185
  151OSM    C4F16802   1.610   3.237   2.555 -0.0391 -0.2428 -0.2873
  151OSM    H4F16803   1.638   3.131   2.573 -0.6190 -0.7126 -1.9756
  151OSM    H4G16804   1.505   3.231   2.520  0.3535  0.5712 -1.6596
  151OSM    C5F16805   1.613   3.309   2.696 -0.0508 -0.1809 -0.2878
  151OSM    H5F16806   1.573   3.412   2.691 -0.5944 -0.1739  2.5202
  151OSM    H5G16807   1.718   3.319   2.729 -0.7332 -0.3111  2.1062
  151OSM    C6F16808   1.545   3.222   2.800 -0.6854 -0.2489  0.6116
  151OSM    H6F16809   1.604   3.127   2.797 -0.4080 -0.1230  1.8190
  151OSM    H6G16810   1.440   3.202   2.768 -0.6039 -1.3558  0.9722
  151OSM    C7F16811   1.547   3.287   2.937 -0.1412  0.1458 -0.4996
  151OSM    H7F16812   1.488   3.381   2.930  3.8271  2.8657 -0.5269
  151OSM    H7G16813   1.651   3.315   2.964  0.4402 -0.6206 -1.8183
  151OSM    C8F16814   1.496   3.185   3.041  0.1305  0.1237 -0.5351
  151OSM    H8F16815   1.558   3.092   3.048 -2.0806 -1.5052 -1.5223
  151OSM    H8G16816   1.392   3.150   3.025  0.5758 -1.4060 -0.2551
  151OSM    C9F16817   1.493   3.252   3.173  0.3389 -0.1815 -0.4590
  151OSM    H9F16818   1.593   3.275   3.212  0.7411 -0.1345 -1.4741
  151OSM   C10F16819   1.381   3.293   3.238 -0.0775 -0.1261 -0.2147
  151OSM   H10F16820   1.390   3.350   3.332 -0.1953 -2.8562  1.5822
  151OSM   C11F16821   1.239   3.258   3.195 -0.3980 -0.0412 -0.0554
  151OSM   H11F16822   1.225   3.152   3.224  1.8813 -0.2792  0.3424
  151OSM   H11G16823   1.230   3.261   3.084  2.2025 -1.7723 -0.3849
  151OSM   C12F16824   1.143   3.357   3.253  0.1488 -0.9075 -0.7495
  151OSM   H12F16825   1.056   3.353   3.185  0.1237  0.0362 -0.7919
  151OSM   H12G16826   1.181   3.461   3.238  0.5350 -1.2693 -2.5291
  151OSM   C13F16827   1.091   3.325   3.388  0.3495 -0.1450  0.0155
  151OSM   H13F16828   1.168   3.345   3.466  0.0131  1.5025 -0.0411
  151OSM   H13G16829   1.068   3.216   3.391 -3.1728  0.5305  1.1973
  151OSM   C14F16830   0.970   3.411   3.425  0.0199  1.1014  0.1461
  151OSM   H14F16831   0.884   3.363   3.374  0.9855 -3.1978  2.0649
  151OSM   H14G16832   0.989   3.515   3.393  0.7372  0.5903 -1.1858
  151OSM   C15F16833   0.940   3.394   3.580  0.9194 -0.2527 -0.4738
  151OSM   H15F16834   1.005   3.457   3.645  0.8849 -0.2141 -0.4770
  151OSM   H15G16835   0.963   3.292   3.618 -1.2903 -0.3430  0.7791
  151OSM   C16F16836   0.794   3.433   3.608  0.0889 -0.4002 -0.2934
  151OSM   H16F16837   0.757   3.520   3.550 -0.3175  0.8207  1.6901
  151OSM   H16G16838   0.783   3.478   3.709 -3.4983  0.1903 -0.8265
  151OSM   C17F16839   0.696   3.317   3.610 -0.1188  0.0188  0.5866
  151OSM   H17F16840   0.711   3.252   3.521 -2.7812 -1.4269  1.0731
  151OSM   H17G16841   0.601   3.374   3.594  0.9448  1.7187  0.0490
  151OSM   C18F16842   0.699   3.241   3.747  0.5499  0.3504  0.4195
  151OSM   H18F16843   0.623   3.160   3.749  2.4869 -1.5470  0.9631
  151OSM   H18G16844   0.673   3.311   3.829  1.5922  1.1832  0.0519
  151OSM   H18H16845   0.797   3.191   3.763  1.5148  2.1061  0.2681
  152OSM      N16846   2.875   5.230   1.778 -0.6733 -0.0606 -0.1114
  152OSM    C1516847   2.792   5.169   1.887  0.5632 -0.8149  0.1133
  152OSM   H15A16848   2.847   5.135   1.974 -0.6953 -1.7279  0.5862
  152OSM   H15B16849   2.730   5.094   1.840 -2.6281  0.7268  1.5672
  152OSM   H15C16850   2.712   5.232   1.922  0.5479 -0.3772 -0.6837
  152OSM    C1416851   2.986   5.130   1.742 -0.1966 -0.4901 -1.1208
  152OSM   H14A16852   3.060   5.125   1.821 -1.3459  1.6018  0.1635
  152OSM   H14B16853   3.033   5.175   1.656  0.1147  1.4238  0.0102
  152OSM   H14C16854   2.949   5.028   1.740 -0.2659 -0.4585 -1.8118
  152OSM    C1316855   2.785   5.255   1.659 -0.2501 -0.0866 -0.3249
  152OSM   H13A16856   2.840   5.287   1.572 -0.6595  0.3095 -0.4402
  152OSM   H13B16857   2.716   5.334   1.684  1.6032  0.9057  2.0789
  152OSM   H13C16858   2.729   5.165   1.637 -0.3857 -0.4481  1.3040
  152OSM    C1216859   2.943   5.357   1.824 -0.3847  0.4632  0.6929
  152OSM   H12A16860   3.010   5.338   1.907  1.4149  0.7199 -0.6552
  152OSM   H12B16861   2.871   5.431   1.856 -3.1863 -1.7648 -0.0401
  152OSM    C1116862   3.026   5.449   1.728  0.3878  0.0357  0.5160
  152OSM   H11A16863   3.099   5.406   1.656  0.7841  3.4078 -1.3314
  152OSM   H11B16864   3.092   5.514   1.789  0.9620 -1.4559  1.5335
  152OSM      P16865   2.871   5.663   1.706 -0.6030  0.4860 -0.1218
  152OSM    O1316866   2.926   5.781   1.641  0.4946 -0.4070  0.1676
  152OSM    O1416867   2.727   5.639   1.688  0.6259  0.5165 -0.0653
  152OSM    O1116868   2.916   5.657   1.859  0.7585 -0.1219 -0.0150
  152OSM    O1216869   2.939   5.531   1.644 -0.7331 -0.6356  0.2634
  152OSM    C1S16870   2.830   5.677   1.969  0.4876 -0.4523  0.4335
  152OSM    H1S16871   2.747   5.604   1.968  0.3673 -0.3501 -2.0867
  152OSM    H1T16872   2.780   5.776   1.965  0.5203 -0.3898  1.2509
  152OSM     NF16873   2.807   5.686   2.213 -0.2765  0.0171 -0.8087
  152OSM    HNF16874   2.794   5.780   2.246  1.8685  0.2280 -0.4314
  152OSM    C2S16875   2.909   5.671   2.107  0.1129 -0.0580  0.2180
  152OSM    H2S16876   2.947   5.567   2.115  0.5762  0.1824  1.3959
  152OSM    C3S16877   3.023   5.774   2.113 -0.0079 -0.3777 -0.1755
  152OSM    H3S16878   2.993   5.881   2.115  2.2217  0.3024 -0.8228
  152OSM     O316879   3.116   5.764   2.001  0.3187  0.3172 -0.5809
  152OSM    HO316880   3.071   5.709   1.936 -2.9579  0.1694  1.6048
  152OSM    C4S16881   3.108   5.758   2.234 -0.1076 -0.2417 -0.0311
  152OSM    H4S16882   3.160   5.662   2.239  0.4984  0.1337  1.5832
  152OSM    C5S16883   3.120   5.839   2.335 -0.2674  0.8909 -0.1775
  152OSM    H5S16884   3.067   5.936   2.339 -1.1609  0.3765  2.2420
  152OSM    C6S16885   3.187   5.823   2.472  0.7902 -0.3740  0.5840
  152OSM    H6S16886   3.117   5.864   2.549  2.1846  1.0782  1.1505
  152OSM    H6T16887   3.266   5.901   2.483 -1.5167  1.8846  2.7224
  152OSM    C7S16888   3.223   5.680   2.521 -0.4531 -0.2972  0.2694
  152OSM    H7S16889   3.284   5.632   2.441 -1.3652  0.0028 -0.6321
  152OSM    H7T16890   3.132   5.618   2.536 -0.9712  0.2816 -0.4302
  152OSM    C8S16891   3.304   5.676   2.651  0.3326 -0.3283 -0.2239
  152OSM    H8S16892   3.391   5.744   2.641  1.8300 -2.0494  0.5650
  152OSM    H8T16893   3.339   5.571   2.664 -1.0891 -0.7401  0.4200
  152OSM    C9S16894   3.230   5.705   2.778 -0.4160 -0.2222 -0.4303
  152OSM    H9S16895   3.144   5.634   2.784 -0.0159 -0.6695  0.1684
  152OSM    H9T16896   3.187   5.807   2.771  2.8754  1.2829 -0.6166
  152OSM   C10S16897   3.320   5.693   2.910  0.4174 -0.3058 -0.3924
  152OSM   H10S16898   3.387   5.782   2.906 -2.0605  1.7409  0.5379
  152OSM   H10T16899   3.372   5.596   2.919  0.3738 -0.2431  0.7415
  152OSM   C11S16900   3.231   5.704   3.042  0.0585  0.0598  0.1283
  152OSM   H11S16901   3.159   5.621   3.056 -2.3603  1.3788 -3.1028
  152OSM   H11T16902   3.178   5.802   3.044 -0.5049 -0.2455  2.2441
  152OSM   C12S16903   3.325   5.697   3.165  0.5982 -0.0018 -1.1769
  152OSM   H12S16904   3.373   5.797   3.173  0.3761  0.2708 -3.0207
  152OSM   H12T16905   3.398   5.618   3.136 -0.5005 -1.2385 -0.6866
  152OSM   C13S16906   3.249   5.657   3.294 -0.7742 -0.3746 -0.6406
  152OSM   H13S16907   3.213   5.553   3.279 -0.3264 -0.6311  0.0176
  152OSM   H13T16908   3.166   5.729   3.307  1.1693  1.7608  0.7677
  152OSM   C14S16909   3.342   5.638   3.417 -0.5663 -0.5873  0.1865
  152OSM   H14S16910   3.399   5.543   3.411 -2.1734 -1.5586 -0.7405
  152OSM   H14T16911   3.273   5.623   3.503 -0.7839 -0.1625  0.0897
  152OSM   C15S16912   3.445   5.753   3.449 -1.0292  0.6173 -0.2080
  152OSM   H15S16913   3.457   5.820   3.361  2.5525  0.0418 -0.3331
  152OSM   H15T16914   3.542   5.701   3.465 -0.7900  1.1206  0.0069
  152OSM   C16S16915   3.393   5.839   3.564  0.3885 -0.4233  0.1531
  152OSM   H16S16916   3.292   5.885   3.549  0.0822 -0.7602  1.0966
  152OSM   H16T16917   3.473   5.914   3.581  0.0620 -0.1187  0.3851
  152OSM   C17S16918   3.389   5.763   3.702  0.2337  0.4308 -0.0278
  152OSM   H17S16919   3.487   5.715   3.723  0.3464  0.6460 -0.0687
  152OSM   H17T16920   3.311   5.684   3.703  0.0968  0.5191  2.5099
  152OSM   C18S16921   3.357   5.850   3.828  0.0194 -0.5536 -0.8346
  152OSM   H18S16922   3.354   5.787   3.919  0.0519  0.9622  0.2612
  152OSM   H18T16923   3.254   5.890   3.819 -0.3820 -0.7650  2.1096
  152OSM   H18U16924   3.439   5.924   3.843  1.4232 -2.4883  1.7888
  152OSM    C1F16925   2.705   5.601   2.236 -1.0183 -0.1792 -1.0148
  152OSM     OF16926   2.699   5.487   2.195 -0.3750 -0.4373  0.5702
  152OSM    C2F16927   2.583   5.665   2.299  0.5980 -0.3744  0.5249
  152OSM    H2F16928   2.503   5.635   2.227  1.5538 -1.1691 -0.2315
  152OSM    H2G16929   2.593   5.775   2.308 -1.5856  0.2694 -3.0570
  152OSM    C3F16930   2.568   5.591   2.435  0.7511  0.2432 -0.2289
  152OSM    H3F16931   2.584   5.482   2.423  2.0126 -0.2022  3.9559
  152OSM    H3G16932   2.462   5.608   2.466  0.9211 -0.2376  0.6550
  152OSM    C4F16933   2.662   5.643   2.543 -0.4705 -0.0092  0.0893
  152OSM    H4F16934   2.609   5.685   2.631  2.0496  2.3277  0.6485
  152OSM    H4G16935   2.720   5.726   2.497 -0.6158  0.0454  0.0017
  152OSM    C5F16936   2.756   5.530   2.576  0.2817 -0.6552 -0.1078
  152OSM    H5F16937   2.810   5.488   2.488  1.3157 -0.1778  0.2867
  152OSM    H5G16938   2.697   5.446   2.617 -0.3378 -0.5027 -0.6580
  152OSM    C6F16939   2.868   5.570   2.670 -0.1394  0.0449  0.0366
  152OSM    H6F16940   2.925   5.657   2.631 -0.0716  0.6404  1.4152
  152OSM    H6G16941   2.937   5.487   2.695  0.3022  0.2499 -0.4846
  152OSM    C7F16942   2.817   5.630   2.801 -0.2094 -0.0198  0.5533
  152OSM    H7F16943   2.744   5.711   2.784  0.5685  0.3618 -1.2603
  152OSM    H7G16944   2.902   5.678   2.854  0.4139 -1.0476  0.5284
  152OSM    C8F16945   2.761   5.532   2.906  0.0982 -0.3806  0.3546
  152OSM    H8F16946   2.685   5.459   2.871 -0.8639  0.3312  0.9150
  152OSM    H8G16947   2.696   5.597   2.968  1.8091 -0.7929  2.7192
  152OSM    C9F16948   2.854   5.453   2.995 -0.3053  0.7958  0.1510
  152OSM    H9F16949   2.906   5.378   2.934 -0.4149 -0.8550  1.9829
  152OSM   C10F16950   2.899   5.485   3.118 -0.8101 -0.1986 -0.0348
  152OSM   H10F16951   2.964   5.421   3.179  1.1074  0.0308 -1.7559
  152OSM   C11F16952   2.849   5.602   3.201  0.6781 -0.2887  0.3711
  152OSM   H11F16953   2.763   5.658   3.156  0.1951 -2.6304 -1.8394
  152OSM   H11G16954   2.931   5.674   3.220  0.5459  0.5146 -1.8137
  152OSM   C12F16955   2.800   5.554   3.340  0.0148  0.0643 -0.5501
  152OSM   H12F16956   2.737   5.462   3.332  1.3172 -1.1878  2.1149
  152OSM   H12G16957   2.741   5.636   3.386  0.9053  0.5087 -0.1580
  152OSM   C13F16958   2.922   5.535   3.431 -0.7360 -0.3705  0.5899
  152OSM   H13F16959   2.920   5.595   3.524  0.8553 -1.3025  1.2840
  152OSM   H13G16960   3.013   5.556   3.370 -1.8897 -0.3516 -1.1834
  152OSM   C14F16961   2.948   5.386   3.465  0.0351  0.3937  0.1851
  152OSM   H14F16962   2.954   5.336   3.366 -1.3454  1.9373 -0.7248
  152OSM   H14G16963   2.865   5.339   3.522  1.6211 -1.8141  0.8159
  152OSM   C15F16964   3.081   5.352   3.531 -0.0756  0.3534 -0.6536
  152OSM   H15F16965   3.148   5.392   3.452  0.3297 -0.0568 -0.5197
  152OSM   H15G16966   3.109   5.245   3.542  2.5455  1.1536  1.6097
  152OSM   C16F16967   3.128   5.436   3.655  0.2433 -0.6082 -0.0443
  152OSM   H16F16968   3.067   5.528   3.661  1.2659  0.2534 -2.1019
  152OSM   H16G16969   3.233   5.466   3.634  0.1408  0.0653  0.3662
  152OSM   C17F16970   3.111   5.367   3.786 -0.7137  0.9483  0.5961
  152OSM   H17F16971   3.167   5.271   3.791  1.6604  2.2330  0.5517
  152OSM   H17G16972   3.002   5.346   3.786 -0.2838 -1.9722 -1.2901
  152OSM   C18F16973   3.161   5.449   3.902  0.2050  0.7610 -0.2480
  152OSM   H18F16974   3.127   5.406   3.999 -0.0584  1.8544  0.1587
  152OSM   H18G16975   3.129   5.555   3.898  0.7437  0.9990  1.1525
  152OSM   H18H16976   3.272   5.450   3.905  0.1884  0.7716  0.8910
  153OSM      N16977   1.486   5.622   1.594 -0.3406  0.1870 -0.1999
  153OSM    C1516978   1.577   5.547   1.507 -0.4140  0.3812 -0.0444
  153OSM   H15A16979   1.675   5.592   1.496  0.2069 -1.0521 -0.6496
  153OSM   H15B16980   1.534   5.548   1.408  0.3250 -1.5199 -0.4277
  153OSM   H15C16981   1.584   5.448   1.548 -1.9518 -0.0718 -0.8009
  153OSM    C1416982   1.414   5.731   1.524 -0.3291 -0.1790  0.3253
  153OSM   H14A16983   1.479   5.814   1.496 -1.3242  0.6657  0.4551
  153OSM   H14B16984   1.343   5.782   1.587 -0.2251  1.0632 -0.5260
  153OSM   H14C16985   1.365   5.707   1.430 -0.8223 -0.7984  0.7346
  153OSM    C1316986   1.377   5.532   1.637 -0.4277 -0.7156 -0.5403
  153OSM   H13A16987   1.296   5.582   1.688  2.0003  1.8027  1.0991
  153OSM   H13B16988   1.411   5.458   1.707 -1.4545  0.7654  1.6262
  153OSM   H13C16989   1.337   5.478   1.552 -0.9691  0.7594 -1.2590
  153OSM    C1216990   1.555   5.676   1.719  0.3438 -0.3186 -0.0564
  153OSM   H12A16991   1.596   5.598   1.782  0.5999 -0.5635 -0.5244
  153OSM   H12B16992   1.477   5.720   1.780  2.1249  0.7900  1.5625
  153OSM    C1116993   1.670   5.780   1.699 -0.6861  0.0893  0.0927
  153OSM   H11A16994   1.706   5.809   1.799  0.9636 -2.3810  0.2893
  153OSM   H11B16995   1.619   5.870   1.657  0.0187  1.1965  1.5397
  153OSM      P16996   1.879   5.625   1.674 -0.0568  0.0671 -0.1249
  153OSM    O1316997   1.881   5.499   1.590  0.5464 -0.3040  0.7073
  153OSM    O1416998   2.013   5.691   1.692  0.3358  0.4710 -0.1387
  153OSM    O1116999   1.830   5.581   1.820 -0.5854  0.0477  0.0365
  153OSM    O1217000   1.781   5.730   1.619  0.2474 -0.7294 -0.1097
  153OSM    C1S17001   1.877   5.445   1.866  0.3459 -0.1883  0.5210
  153OSM    H1S17002   1.988   5.443   1.866  0.3475 -0.1366  0.1275
  153OSM    H1T17003   1.832   5.362   1.807 -0.2511  0.3057  0.2656
  153OSM     NF17004   1.904   5.304   2.066  0.0905 -0.3836 -0.3494
  153OSM    HNF17005   1.862   5.214   2.063  2.3830 -1.5050 -1.3401
  153OSM    C2S17006   1.829   5.414   2.012  0.0419 -0.5254 -0.1476
  153OSM    H2S17007   1.843   5.506   2.072  1.5768 -1.3859  0.8704
  153OSM    C3S17008   1.677   5.400   2.021 -0.7857 -0.3588 -0.0460
  153OSM    H3S17009   1.652   5.311   1.958 -1.0237  1.5479 -2.8136
  153OSM     O317010   1.598   5.509   1.969 -0.5070 -0.1808  0.2129
  153OSM    HO317011   1.663   5.558   1.919 -2.5214  0.4641 -1.9675
  153OSM    C4S17012   1.630   5.378   2.158 -0.4762 -0.1152 -0.0149
  153OSM    H4S17013   1.678   5.433   2.240  0.3311  0.1059 -0.6222
  153OSM    C5S17014   1.533   5.287   2.191  0.8500 -1.5812 -0.1992
  153OSM    H5S17015   1.493   5.229   2.107 -0.1120 -1.1819 -0.0264
  153OSM    C6S17016   1.497   5.255   2.331 -0.0766 -0.4341 -0.6640
  153OSM    H6S17017   1.519   5.146   2.336  1.5663 -0.1460 -0.8831
  153OSM    H6T17018   1.390   5.261   2.361  0.0480 -0.4463 -0.1992
  153OSM    C7S17019   1.579   5.314   2.458 -0.6498  0.3325  0.0735
  153OSM    H7S17020   1.568   5.424   2.443  0.3507  0.9769  3.3734
  153OSM    H7T17021   1.687   5.289   2.449 -0.5294  1.2295 -1.4236
  153OSM    C8S17022   1.518   5.246   2.578 -0.1492  0.3255 -0.3182
  153OSM    H8S17023   1.543   5.138   2.571  0.2454  0.3963 -0.0342
  153OSM    H8T17024   1.409   5.267   2.582  0.0625  1.2341  2.3473
  153OSM    C9S17025   1.583   5.272   2.714 -0.7640  0.1530  0.9307
  153OSM    H9S17026   1.566   5.379   2.736 -1.2047  0.2602  0.1135
  153OSM    H9T17027   1.694   5.271   2.707 -0.8024  1.5801 -0.1910
  153OSM   C10S17028   1.510   5.205   2.827  0.2687 -0.1120  0.1385
  153OSM   H10S17029   1.497   5.102   2.787  0.3232 -0.4823  1.0428
  153OSM   H10T17030   1.413   5.256   2.845  1.3677  1.5112  1.9722
  153OSM   C11S17031   1.595   5.207   2.951  0.0879  0.8572  0.0870
  153OSM   H11S17032   1.614   5.314   2.973  1.0537  0.3597  1.8635
  153OSM   H11T17033   1.691   5.159   2.925  0.1438  0.8533  0.2960
  153OSM   C12S17034   1.527   5.139   3.069  0.5060  0.2575 -0.1190
  153OSM   H12S17035   1.612   5.126   3.140  2.2142 -0.3988 -2.1509
  153OSM   H12T17036   1.496   5.042   3.027  1.6937  0.3043 -1.1729
  153OSM   C13S17037   1.417   5.228   3.132  0.2727 -0.3666 -0.0667
  153OSM   H13S17038   1.324   5.223   3.071  0.4018 -0.0261 -0.2994
  153OSM   H13T17039   1.441   5.335   3.151 -1.6002  0.5800 -2.5192
  153OSM   C14S17040   1.377   5.171   3.266 -0.9867  0.7070 -0.7875
  153OSM   H14S17041   1.386   5.061   3.258 -0.6496  0.6677  0.0346
  153OSM   H14T17042   1.272   5.196   3.294 -0.4798 -0.2135  2.2676
  153OSM   C15S17043   1.471   5.202   3.383 -0.0840 -0.1201 -0.7568
  153OSM   H15S17044   1.450   5.305   3.416 -1.8293 -0.8943  0.7050
  153OSM   H15T17045   1.579   5.200   3.357  0.4489  1.6756  1.0885
  153OSM   C16S17046   1.456   5.113   3.506 -0.7581 -0.6861 -1.3184
  153OSM   H16S17047   1.489   5.182   3.587  1.1623 -3.1012  0.1070
  153OSM   H16T17048   1.522   5.023   3.501 -0.9319 -0.7542 -3.0593
  153OSM   C17S17049   1.316   5.054   3.514 -0.1423 -0.3624 -0.2123
  153OSM   H17S17050   1.302   4.970   3.442 -0.5738 -1.7835  1.4656
  153OSM   H17T17051   1.231   5.125   3.504  1.1812  1.4950  1.0936
  153OSM   C18S17052   1.296   4.985   3.653  0.1711 -0.4276  0.4382
  153OSM   H18S17053   1.189   4.970   3.680 -0.5209  2.7289 -0.1444
  153OSM   H18T17054   1.359   5.040   3.726 -0.8440  2.9533 -1.0054
  153OSM   H18U17055   1.345   4.886   3.645 -0.6038 -0.7975  0.0775
  153OSM    C1F17056   2.028   5.326   2.110 -0.0963  0.3713 -0.3563
  153OSM     OF17057   2.072   5.439   2.130 -0.4087  0.1159  0.1454
  153OSM    C2F17058   2.110   5.197   2.137 -0.3155 -0.1107  0.1767
  153OSM    H2F17059   2.218   5.205   2.114 -0.0111 -1.9127  0.8096
  153OSM    H2G17060   2.069   5.111   2.079  1.6879  0.6407 -2.5555
  153OSM    C3F17061   2.102   5.167   2.289 -0.6125  0.1548 -0.0264
  153OSM    H3F17062   2.116   5.255   2.355 -2.4804 -1.0797  2.2136
  153OSM    H3G17063   2.174   5.087   2.316 -1.7198 -1.0772 -0.6179
  153OSM    C4F17064   1.968   5.104   2.329 -0.4526  0.5701 -0.0402
  153OSM    H4F17065   1.980   4.994   2.314  2.3046  0.8214 -0.1749
  153OSM    H4G17066   1.894   5.146   2.258 -0.0872  1.5528  0.1434
  153OSM    C5F17067   1.923   5.140   2.479 -0.2423 -0.2807 -0.3414
  153OSM    H5F17068   1.829   5.087   2.506 -0.3382 -0.1375 -0.3932
  153OSM    H5G17069   1.906   5.248   2.498  4.2784  0.3314  1.4534
  153OSM    C6F17070   2.033   5.097   2.589 -0.5289 -0.4643  0.7651
  153OSM    H6F17071   2.129   5.150   2.573 -0.9342  0.7987  2.2531
  153OSM    H6G17072   2.057   4.989   2.577  0.1928 -0.2985  0.7272
  153OSM    C7F17073   1.992   5.138   2.733 -0.2750  1.0233  0.3354
  153OSM    H7F17074   2.065   5.083   2.796 -0.8769  0.5735  0.6602
  153OSM    H7G17075   1.892   5.091   2.743  0.4571 -0.5311  0.6754
  153OSM    C8F17076   1.998   5.286   2.750 -0.1392 -0.9622 -0.2853
  153OSM    H8F17077   1.970   5.346   2.661 -0.7246 -1.2662 -0.3069
  153OSM    H8G17078   2.106   5.313   2.757  0.2695 -2.8560  1.8583
  153OSM    C9F17079   1.928   5.335   2.875 -0.3735  0.2651 -0.3420
  153OSM    H9F17080   1.835   5.393   2.884  0.0751  0.7781  1.3900
  153OSM   C10F17081   1.985   5.315   2.993 -0.4871 -0.0917  0.9695
  153OSM   H10F17082   1.934   5.361   3.079 -1.7853 -2.2223  1.4206
  153OSM   C11F17083   2.117   5.245   3.028  0.3526  0.0822  0.4308
  153OSM   H11F17084   2.195   5.298   2.970  0.7314  1.7845  2.3428
  153OSM   H11G17085   2.118   5.140   2.991  1.8533  0.2374 -0.0127
  153OSM   C12F17086   2.155   5.250   3.175 -0.0438  0.4888  0.4685
  153OSM   H12F17087   2.065   5.247   3.240  0.5434 -0.4031  1.2660
  153OSM   H12G17088   2.215   5.338   3.206  3.4498 -0.6967 -2.3182
  153OSM   C13F17089   2.230   5.124   3.217 -0.0464  0.3253 -0.1855
  153OSM   H13F17090   2.319   5.122   3.151  0.9165  0.1453  1.0828
  153OSM   H13G17091   2.170   5.032   3.199  1.9514 -0.8511 -1.2104
  153OSM   C14F17092   2.281   5.127   3.357 -0.0896  0.6920 -0.3185
  153OSM   H14F17093   2.345   5.217   3.368 -2.0957  2.0480  0.9895
  153OSM   H14G17094   2.359   5.048   3.370  0.1527  0.8333 -0.8975
  153OSM   C15F17095   2.182   5.122   3.472  0.8094  0.6864 -0.3417
  153OSM   H15F17096   2.095   5.187   3.446 -1.6496 -1.3017  2.3374
  153OSM   H15G17097   2.210   5.155   3.574 -0.0769  0.2058  0.0698
  153OSM   C16F17098   2.112   4.985   3.496 -0.1512 -0.3189  0.0147
  153OSM   H16F17099   2.178   4.905   3.536 -1.0746 -1.3863 -0.5377
  153OSM   H16G17100   2.089   4.962   3.390  2.9653 -1.8453 -0.4266
  153OSM   C17F17101   1.989   4.992   3.591 -0.2866  0.5581  0.1189
  153OSM   H17F17102   1.948   4.889   3.585  3.4631 -1.1607  0.9522
  153OSM   H17G17103   1.912   5.064   3.557 -1.1855 -1.2098 -1.7641
  153OSM   C18F17104   2.027   5.006   3.736 -0.3022  0.2404 -0.4123
  153OSM   H18F17105   2.100   4.925   3.759 -0.7643 -0.2160 -0.5253
  153OSM   H18G17106   1.937   4.982   3.797 -0.2484 -0.9913 -0.7866
  153OSM   H18H17107   2.066   5.107   3.761 -1.0029  0.1468  1.1987
  154OSM      N17108   1.389   4.448   1.614  0.4329 -0.0646  0.3940
  154OSM    C1517109   1.426   4.545   1.726 -0.4354  0.7803  0.4149
  154OSM   H15A17110   1.518   4.598   1.709 -0.1365  0.1429 -0.0162
  154OSM   H15B17111   1.430   4.496   1.823  2.8251 -0.4631 -0.2299
  154OSM   H15C17112   1.354   4.621   1.752 -2.2314 -1.7388  3.5943
  154OSM    C1417113   1.246   4.410   1.630  0.0381 -0.2705  0.2768
  154OSM   H14A17114   1.222   4.349   1.716  1.4527 -2.6630 -0.9138
  154OSM   H14B17115   1.221   4.355   1.541 -0.3686  0.1876  0.1049
  154OSM   H14C17116   1.181   4.496   1.632 -0.4094 -0.5848 -0.4446
  154OSM    C1317117   1.414   4.515   1.479  0.0151  0.0014 -0.6050
  154OSM   H13A17118   1.502   4.577   1.487  0.7252 -1.0304 -0.2154
  154OSM   H13B17119   1.337   4.590   1.469 -0.6440 -0.2183  2.0178
  154OSM   H13C17120   1.405   4.447   1.396 -2.9994 -1.4633  0.7269
  154OSM    C1217121   1.483   4.327   1.621  0.1603  0.6444  0.4229
  154OSM   H12A17122   1.578   4.371   1.651  0.1649  1.6059 -0.9028
  154OSM   H12B17123   1.483   4.278   1.525 -0.4966  2.6908 -0.6941
  154OSM    C1117124   1.449   4.222   1.738  0.8191  0.4390 -0.3345
  154OSM   H11A17125   1.427   4.276   1.833  2.7780 -1.6232  1.4179
  154OSM   H11B17126   1.533   4.150   1.752 -1.1865 -2.0051  0.0242
  154OSM      P17127   1.229   4.083   1.781 -0.5548  0.0609 -0.5274
  154OSM    O1317128   1.102   4.056   1.709 -0.0616 -0.2714  0.4236
  154OSM    O1417129   1.297   3.964   1.837 -0.5308 -0.0962 -1.1495
  154OSM    O1117130   1.205   4.180   1.907 -0.3191  0.3253  0.8676
  154OSM    O1217131   1.338   4.150   1.695  0.2083 -0.3008  0.3427
  154OSM    C1S17132   1.115   4.147   2.010  0.3809  0.0882 -0.1701
  154OSM    H1S17133   1.154   4.051   2.050  2.0717  0.4839 -0.7657
  154OSM    H1T17134   1.011   4.139   1.972  0.4881  2.0039 -1.0165
  154OSM     NF17135   1.071   4.210   2.249  0.4309 -0.5512  0.7917
  154OSM    HNF17136   0.986   4.248   2.285 -0.0242  2.0238 -2.5326
  154OSM    C2S17137   1.125   4.257   2.125  0.1804 -0.1010  0.0178
  154OSM    H2S17138   1.234   4.273   2.141  0.1686 -0.6616  0.7169
  154OSM    C3S17139   1.071   4.390   2.075 -0.3984  0.2710  0.1699
  154OSM    H3S17140   0.968   4.361   2.044 -0.3745  1.2972 -0.9427
  154OSM     O317141   1.139   4.445   1.960 -0.3498 -0.3211  0.6886
  154OSM    HO317142   1.187   4.369   1.927  0.6886  0.4569  0.3634
  154OSM    C4S17143   1.066   4.488   2.186 -0.0414 -0.0304  0.4925
  154OSM    H4S17144   1.157   4.488   2.248  1.3935 -1.0104 -1.5074
  154OSM    C5S17145   0.954   4.555   2.225  0.3360 -1.3673 -0.9464
  154OSM    H5S17146   0.862   4.549   2.164  0.1536 -1.0352 -0.7063
  154OSM    C6S17147   0.948   4.639   2.349 -0.4167 -0.4670  0.3971
  154OSM    H6S17148   0.908   4.740   2.322 -1.8587 -0.7251  1.4752
  154OSM    H6T17149   1.049   4.641   2.394 -0.2589 -1.7280  0.1326
  154OSM    C7S17150   0.862   4.574   2.458 -0.1932  0.5311  0.4527
  154OSM    H7S17151   0.895   4.471   2.486  3.4383  1.9761  2.2302
  154OSM    H7T17152   0.753   4.579   2.443 -0.4873  0.4655  2.3284
  154OSM    C8S17153   0.885   4.656   2.591 -0.1624 -0.1596  0.3516
  154OSM    H8S17154   0.842   4.757   2.572 -0.7291 -0.0131  2.2226
  154OSM    H8T17155   0.993   4.673   2.611 -0.9094  2.8584  2.4025
  154OSM    C9S17156   0.819   4.591   2.706  0.0657 -0.3630  0.0953
  154OSM    H9S17157   0.851   4.484   2.712 -2.3476 -1.1032  0.9995
  154OSM    H9T17158   0.710   4.578   2.688  0.1132 -2.1972  0.8929
  154OSM   C10S17159   0.874   4.657   2.836  0.5943  0.5295  0.1646
  154OSM   H10S17160   0.823   4.756   2.843  1.7761  1.0519  1.8900
  154OSM   H10T17161   0.980   4.689   2.838  0.4822  0.8773  0.5033
  154OSM   C11S17162   0.840   4.583   2.969  0.6355  0.4831  0.6613
  154OSM   H11S17163   0.732   4.583   2.997  0.8701  1.4915  1.6371
  154OSM   H11T17164   0.881   4.651   3.047 -0.2529  1.2928  0.4405
  154OSM   C12S17165   0.891   4.446   2.983  0.3680  0.0689 -0.1009
  154OSM   H12S17166   1.001   4.443   2.971  0.2663  1.1718 -1.6325
  154OSM   H12T17167   0.852   4.388   2.896 -0.4384  0.7622 -0.2148
  154OSM   C13S17168   0.855   4.377   3.116  0.2715 -0.0473 -0.6355
  154OSM   H13S17169   0.870   4.269   3.094  1.1606  0.1181 -0.8551
  154OSM   H13T17170   0.746   4.387   3.134  0.3327 -0.9238  0.3371
  154OSM   C14S17171   0.919   4.439   3.237  0.4777 -0.0132  0.5424
  154OSM   H14S17172   0.878   4.536   3.271 -1.3234 -0.7403  0.5866
  154OSM   H14T17173   1.020   4.475   3.206  0.6781 -1.0114 -0.0175
  154OSM   C15S17174   0.953   4.343   3.354  0.9890 -0.0825  0.0451
  154OSM   H15S17175   1.010   4.402   3.429  0.3623  0.2420  0.2708
  154OSM   H15T17176   1.010   4.259   3.308  1.9368  0.4166  0.2889
  154OSM   C16S17177   0.830   4.275   3.403  0.9537 -0.5153 -0.0382
  154OSM   H16S17178   0.782   4.212   3.324  1.1762  1.4416 -1.8250
  154OSM   H16T17179   0.752   4.352   3.426  0.3480 -1.1992  0.2361
  154OSM   C17S17180   0.859   4.207   3.538 -0.0308  0.5886 -0.1639
  154OSM   H17S17181   0.909   4.288   3.596  0.5125  2.0837 -2.5578
  154OSM   H17T17182   0.932   4.124   3.530  1.5343  1.9982 -1.1903
  154OSM   C18S17183   0.737   4.160   3.616  0.0461  0.1257  0.7540
  154OSM   H18S17184   0.670   4.239   3.657  0.1039  0.5485  0.0460
  154OSM   H18T17185   0.764   4.097   3.704 -0.6075 -0.4693  0.5278
  154OSM   H18U17186   0.672   4.095   3.555  0.6020 -0.1745  0.4704
  154OSM    C1F17187   1.131   4.104   2.314 -0.2162 -0.7428 -0.2322
  154OSM     OF17188   1.248   4.073   2.284  0.0940  0.1738  0.1862
  154OSM    C2F17189   1.047   4.034   2.418  0.7969 -0.2448 -0.0014
  154OSM    H2F17190   1.028   3.928   2.393  1.6216 -0.0745 -1.4331
  154OSM    H2G17191   0.946   4.079   2.408  0.8312 -0.6005 -2.2760
  154OSM    C3F17192   1.081   4.057   2.563 -0.3612  0.0955 -1.1072
  154OSM    H3F17193   1.187   4.026   2.580 -1.3755 -1.9455  2.7793
  154OSM    H3G17194   1.028   3.984   2.628  0.0776  1.4811  0.9342
  154OSM    C4F17195   1.053   4.201   2.603 -0.5122  0.1121 -0.5437
  154OSM    H4F17196   0.945   4.227   2.605 -0.6927 -0.5028 -1.8305
  154OSM    H4G17197   1.103   4.273   2.534  1.3772  0.0730  0.7088
  154OSM    C5F17198   1.113   4.227   2.745  0.2392  0.1838 -0.7167
  154OSM    H5F17199   1.062   4.318   2.784 -1.0206 -0.6026 -0.4586
  154OSM    H5G17200   1.223   4.240   2.734  0.9699 -2.0446  2.4359
  154OSM    C6F17201   1.094   4.111   2.846 -0.0417 -0.3475 -0.5028
  154OSM    H6F17202   1.142   4.016   2.814 -0.8917 -3.0998  5.0825
  154OSM    H6G17203   0.987   4.084   2.859  0.6077 -4.6225 -2.2154
  154OSM    C7F17204   1.154   4.153   2.982  0.6426 -0.2342  0.0480
  154OSM    H7F17205   1.076   4.219   3.027  0.1375 -0.1512 -0.9112
  154OSM    H7G17206   1.240   4.220   2.967 -1.0694  2.6135  2.0154
  154OSM    C8F17207   1.203   4.039   3.070 -0.0860 -0.2576 -0.5497
  154OSM    H8F17208   1.263   4.075   3.157 -0.6633 -0.7285  0.0464
  154OSM    H8G17209   1.270   3.969   3.016 -0.7879 -1.3726 -0.0066
  154OSM    C9F17210   1.085   3.966   3.115 -0.0616 -0.3491 -0.1295
  154OSM    H9F17211   1.022   3.931   3.031 -0.2709  1.7204 -0.8970
  154OSM   C10F17212   1.053   3.930   3.237  0.2893  0.4746  0.2181
  154OSM   H10F17213   0.957   3.879   3.252 -0.5754  1.5609 -1.3462
  154OSM   C11F17214   1.138   3.942   3.355  0.2860  0.0068 -0.2541
  154OSM   H11F17215   1.108   4.037   3.403 -2.3868 -0.2155 -1.3505
  154OSM   H11G17216   1.246   3.939   3.326 -0.2280  2.4985 -2.8235
  154OSM   C12F17217   1.117   3.819   3.455 -0.4960 -0.5598  0.4760
  154OSM   H12F17218   1.117   3.723   3.400  0.6271  0.3503 -1.1930
  154OSM   H12G17219   1.021   3.835   3.510 -1.1669  0.8658 -1.0300
  154OSM   C13F17220   1.217   3.811   3.568 -0.0263  0.5747  0.3667
  154OSM   H13F17221   1.231   3.911   3.613 -1.5463  2.3835 -2.8248
  154OSM   H13G17222   1.316   3.773   3.535  0.2576  1.1755  0.5302
  154OSM   C14F17223   1.159   3.696   3.657 -0.2938  0.3662 -0.3502
  154OSM   H14F17224   1.135   3.605   3.598 -0.4276  1.1846 -1.6051
  154OSM   H14G17225   1.060   3.729   3.697 -1.0289 -0.1277 -1.6699
  154OSM   C15F17226   1.265   3.645   3.758 -0.7644  0.0787 -0.7266
  154OSM   H15F17227   1.342   3.598   3.692  0.7485 -0.2284  1.1688
  154OSM   H15G17228   1.227   3.559   3.818 -1.2149 -1.6969 -3.3696
  154OSM   C16F17229   1.325   3.759   3.839 -0.8650  0.2872 -0.7603
  154OSM   H16F17230   1.236   3.809   3.881 -0.0962  0.1972  1.1014
  154OSM   H16G17231   1.391   3.818   3.771  1.3728  0.9642  1.8048
  154OSM   C17F17232   1.400   3.720   3.964 -0.1427  0.9269 -0.9791
  154OSM   H17F17233   1.425   3.815   4.016 -1.5315  0.9806 -0.3617
  154OSM   H17G17234   1.493   3.668   3.930 -1.6025 -1.1400 -2.0487
  154OSM   C18F17235   1.319   3.632   4.067  0.0943 -0.1007 -0.0051
  154OSM   H18F17236   1.387   3.608   4.152 -0.7623 -0.1549  0.6816
  154OSM   H18G17237   1.291   3.541   4.011 -0.5916  1.6936 -2.7758
  154OSM   H18H17238   1.232   3.695   4.096 -0.4008 -0.0732 -1.4694
  155OSM      N17239   1.869   0.742   1.889  0.5379  1.3498  0.2795
  155OSM    C1517240   1.734   0.768   1.838 -0.0301 -0.0732  0.0868
  155OSM   H15A17241   1.659   0.736   1.908  0.7175  1.1759  1.5025
  155OSM   H15B17242   1.705   0.712   1.750 -1.6828  0.1957  0.4271
  155OSM   H15C17243   1.712   0.874   1.827 -3.5998 -0.4605  2.0414
  155OSM    C1417244   1.870   0.598   1.907 -0.1673 -0.3491  0.2105
  155OSM   H14A17245   1.968   0.561   1.932  0.4106  0.4408 -0.8405
  155OSM   H14B17246   1.839   0.539   1.822  2.5246  0.0826 -1.1609
  155OSM   H14C17247   1.816   0.584   2.000 -0.4813  0.9374  0.2356
  155OSM    C1317248   1.976   0.784   1.795  0.1699 -0.4889 -0.0891
  155OSM   H13A17249   2.070   0.735   1.812 -0.5087 -2.7520 -2.2596
  155OSM   H13B17250   1.974   0.892   1.797  0.5113 -0.4753  1.6664
  155OSM   H13C17251   1.948   0.764   1.693 -0.3203  0.8505 -0.2361
  155OSM    C1217252   1.895   0.819   2.020  0.2251  0.0864  0.7313
  155OSM   H12A17253   1.894   0.925   1.998  0.4315 -0.1764 -0.6528
  155OSM   H12B17254   1.995   0.794   2.051  0.7298 -0.2169 -1.0294
  155OSM    C1117255   1.800   0.783   2.139  0.3886 -0.1539  0.0138
  155OSM   H11A17256   1.846   0.820   2.233 -0.4400  2.0656 -0.3782
  155OSM   H11B17257   1.795   0.672   2.134  0.1442 -0.1104 -3.7098
  155OSM      P17258   1.631   0.977   2.133 -0.5361 -0.3940 -0.3742
  155OSM    O1317259   1.695   1.054   2.029 -0.3068  0.2968  0.6194
  155OSM    O1417260   1.488   0.990   2.146  0.9961  0.1540  0.4713
  155OSM    O1117261   1.696   1.010   2.274 -0.0826  0.0595  0.0624
  155OSM    O1217262   1.669   0.828   2.123  0.6977 -0.3665 -0.1034
  155OSM    C1S17263   1.725   1.141   2.308  0.8248 -0.9165 -0.4024
  155OSM    H1S17264   1.668   1.220   2.255  2.5354 -0.4656 -1.6664
  155OSM    H1T17265   1.830   1.162   2.276  1.0466 -1.2176  0.1274
  155OSM     NF17266   1.740   1.316   2.471 -0.2169  0.7218  0.3368
  155OSM    HNF17267   1.834   1.341   2.495  0.7367  1.2936 -3.4347
  155OSM    C2S17268   1.718   1.176   2.454  0.8296 -0.5509 -0.4256
  155OSM    H2S17269   1.612   1.166   2.484  0.2955  2.2329 -1.1629
  155OSM    C3S17270   1.808   1.087   2.545 -0.2204  0.3994 -0.0066
  155OSM    H3S17271   1.914   1.104   2.519  0.6004  1.6493  3.5262
  155OSM     O317272   1.781   0.951   2.518 -0.2097 -0.4491  0.2890
  155OSM    HO317273   1.735   0.951   2.434 -0.3591 -3.3146  0.2709
  155OSM    C4S17274   1.804   1.110   2.696 -0.5539  0.0801 -0.1783
  155OSM    H4S17275   1.711   1.080   2.746  0.0187  0.8294  1.4128
  155OSM    C5S17276   1.900   1.171   2.773 -0.4450  0.0902  0.5628
  155OSM    H5S17277   1.994   1.196   2.723  0.6000 -1.1694  1.8245
  155OSM    C6S17278   1.901   1.197   2.922 -0.3728 -0.1255  0.6875
  155OSM    H6S17279   1.978   1.129   2.965 -1.7175 -4.1441 -2.5803
  155OSM    H6T17280   1.808   1.163   2.973 -0.8315 -1.9013 -1.2245
  155OSM    C7S17281   1.944   1.337   2.971 -0.0043 -0.6908 -0.1603
  155OSM    H7S17282   1.867   1.414   2.951  0.1663  0.6352  3.5987
  155OSM    H7T17283   2.032   1.367   2.910  0.6992  1.0198  1.5930
  155OSM    C8S17284   1.995   1.346   3.121  0.1807 -0.9529 -0.3875
  155OSM    H8S17285   2.002   1.454   3.146  2.4852 -0.8442 -1.2844
  155OSM    H8T17286   2.102   1.316   3.125  0.2123 -1.4028 -3.0803
  155OSM    C9S17287   1.899   1.295   3.234 -0.1255 -0.1796  0.7033
  155OSM    H9S17288   1.882   1.186   3.242 -0.4668 -0.1066  0.9899
  155OSM    H9T17289   1.805   1.354   3.219  1.6238  2.1404 -2.5964
  155OSM   C10S17290   1.953   1.331   3.373 -0.4876  0.3375  0.3734
  155OSM   H10S17291   1.971   1.440   3.379  0.1346  0.1508  2.8046
  155OSM   H10T17292   2.046   1.270   3.375 -0.8726 -0.2424  1.7877
  155OSM   C11S17293   1.868   1.302   3.495 -0.2091 -0.2124 -0.3370
  155OSM   H11S17294   1.848   1.193   3.504 -1.3299 -0.0886 -1.1527
  155OSM   H11T17295   1.773   1.360   3.494  1.1883  2.3776  2.5479
  155OSM   C12S17296   1.931   1.350   3.630  0.3748  0.2930  1.2085
  155OSM   H12S17297   1.926   1.458   3.652  0.8846  1.2991 -2.7579
  155OSM   H12T17298   2.034   1.310   3.645 -0.2670 -1.7997  0.5034
  155OSM   C13S17299   1.858   1.284   3.759  0.0851 -0.0086 -0.2792
  155OSM   H13S17300   1.911   1.311   3.852  0.0780  0.2748 -0.3571
  155OSM   H13T17301   1.855   1.173   3.750  0.7594 -0.0215 -0.3910
  155OSM   C14S17302   1.720   1.339   3.789 -0.0450  0.4852 -0.1621
  155OSM   H14S17303   1.666   1.353   3.693 -2.9854 -0.0526  1.3110
  155OSM   H14T17304   1.740   1.446   3.812 -0.2516 -0.1336  3.4161
  155OSM   C15S17305   1.630   1.261   3.889  0.1082  0.2477 -0.1887
  155OSM   H15S17306   1.558   1.338   3.923 -0.1356  0.7287 -1.7096
  155OSM   H15T17307   1.696   1.240   3.976  1.3926 -0.5858 -1.3285
  155OSM   C16S17308   1.568   1.126   3.835  0.1275 -0.5418 -0.3166
  155OSM   H16S17309   1.657   1.062   3.815  0.7288 -0.6101  2.1747
  155OSM   H16T17310   1.518   1.142   3.737  2.8413 -0.5678 -1.8095
  155OSM   C17S17311   1.474   1.064   3.931  0.4347  0.3288 -0.3914
  155OSM   H17S17312   1.384   1.126   3.950  1.4111  1.1326  1.9860
  155OSM   H17T17313   1.523   1.049   4.030  2.4443 -0.8192 -1.4834
  155OSM   C18S17314   1.416   0.929   3.872  0.4100  0.6598 -1.5902
  155OSM   H18S17315   1.352   0.877   3.947  2.2997 -0.4730 -0.6679
  155OSM   H18T17316   1.513   0.875   3.869  0.4093  0.3798  0.8905
  155OSM   H18U17317   1.360   0.936   3.777 -0.1622  0.8387 -1.2424
  155OSM    C1F17318   1.663   1.425   2.434  0.3368  0.4507  0.7678
  155OSM     OF17319   1.562   1.416   2.364 -0.3165 -0.4603 -0.0386
  155OSM    C2F17320   1.710   1.567   2.469 -0.1939  0.1546  0.1685
  155OSM    H2F17321   1.692   1.631   2.380 -0.8418 -0.2197  0.0220
  155OSM    H2G17322   1.818   1.576   2.491  0.0458 -0.8752 -0.5006
  155OSM    C3F17323   1.626   1.616   2.590  0.6268 -0.2605 -0.2024
  155OSM    H3F17324   1.518   1.634   2.570  0.5162 -1.0557 -0.3746
  155OSM    H3G17325   1.659   1.718   2.619 -0.9956 -0.0591  1.0540
  155OSM    C4F17326   1.657   1.531   2.717 -0.4016 -0.4872 -1.0343
  155OSM    H4F17327   1.753   1.477   2.702 -0.1925  0.3263 -3.0211
  155OSM    H4G17328   1.566   1.470   2.731 -2.1403  1.8564 -1.4501
  155OSM    C5F17329   1.672   1.628   2.840 -0.1414 -0.6422 -0.1382
  155OSM    H5F17330   1.667   1.568   2.933 -2.0869  0.8937  0.8208
  155OSM    H5G17331   1.589   1.701   2.847  0.9718  0.7012 -0.4491
  155OSM    C6F17332   1.810   1.689   2.845 -0.6232 -0.1246 -0.0550
  155OSM    H6F17333   1.829   1.766   2.767  0.1331  0.5548  0.7821
  155OSM    H6G17334   1.889   1.610   2.842 -2.1416 -1.7679  0.8681
  155OSM    C7F17335   1.832   1.766   2.981 -0.1790 -0.3985  0.5447
  155OSM    H7F17336   1.943   1.776   2.988  0.1136 -1.8720 -1.1427
  155OSM    H7G17337   1.795   1.696   3.059  1.4515 -3.8847 -1.5493
  155OSM    C8F17338   1.771   1.906   2.980  0.3147 -0.3941  0.1315
  155OSM    H8F17339   1.762   1.935   3.087 -1.1737  0.4217 -0.1894
  155OSM    H8G17340   1.666   1.904   2.943  0.5978 -0.0653 -0.7150
  155OSM    C9F17341   1.854   2.009   2.908  0.4723 -0.2607 -0.1285
  155OSM    H9F17342   1.892   1.977   2.810  1.1041 -1.6056  0.5376
  155OSM   C10F17343   1.890   2.127   2.957  0.5614  0.1638 -0.6192
  155OSM   H10F17344   1.946   2.188   2.885  2.0785 -0.8288 -0.3209
  155OSM   C11F17345   1.845   2.189   3.091 -0.6114  0.5410 -0.1080
  155OSM   H11F17346   1.744   2.151   3.114 -1.1538  1.8176 -0.2676
  155OSM   H11G17347   1.835   2.299   3.080 -1.1170  0.8845  3.0247
  155OSM   C12F17348   1.930   2.165   3.223 -0.5157 -0.1629  0.2374
  155OSM   H12F17349   2.040   2.175   3.211 -0.5872 -1.3093 -2.0389
  155OSM   H12G17350   1.912   2.059   3.250 -0.1341 -0.5179 -0.8180
  155OSM   C13F17351   1.887   2.256   3.342 -0.1334  0.5753 -0.0879
  155OSM   H13F17352   1.778   2.265   3.361  0.2511  1.2413  2.0705
  155OSM   H13G17353   1.914   2.360   3.315  0.7520  0.3803  0.0104
  155OSM   C14F17354   1.966   2.246   3.471  0.4289 -0.4665  0.3896
  155OSM   H14F17355   1.954   2.345   3.520  2.7071 -0.1830  0.4579
  155OSM   H14G17356   2.071   2.217   3.453  0.6489  1.1710 -1.3432
  155OSM   C15F17357   1.891   2.136   3.557  0.8684 -0.2041 -0.5509
  155OSM   H15F17358   1.884   2.045   3.493  3.4228  0.4002 -1.8351
  155OSM   H15G17359   1.786   2.161   3.583  1.6878  1.6537  1.1735
  155OSM   C16F17360   1.967   2.100   3.685  0.1890 -0.6443  0.2216
  155OSM   H16F17361   1.910   2.018   3.734 -0.7708  0.0168  0.2379
  155OSM   H16G17362   1.983   2.183   3.758 -1.7806  2.0709 -2.1993
  155OSM   C17F17363   2.098   2.029   3.647  0.0210 -0.2771 -0.6241
  155OSM   H17F17364   2.168   2.110   3.616  0.5889 -0.3054  0.5489
  155OSM   H17G17365   2.094   1.962   3.558  1.1055  2.2845 -2.7761
  155OSM   C18F17366   2.161   1.946   3.767  0.3565 -0.3055 -0.1666
  155OSM   H18F17367   2.100   1.854   3.770  0.0301 -0.1117 -0.6651
  155OSM   H18G17368   2.165   2.003   3.863 -0.9385  3.4138 -2.1232
  155OSM   H18H17369   2.259   1.915   3.726 -0.1964 -0.0549 -1.7292
  156OSM      N17370   4.992   5.818   1.270 -0.0638  0.0393 -0.3701
  156OSM    C1517371   5.103   5.850   1.357 -0.3956 -0.0477  0.9235
  156OSM   H15A17372   5.199   5.809   1.329 -0.0947  0.3055  1.4211
  156OSM   H15B17373   5.079   5.811   1.455  0.3608 -0.5684  0.9122
  156OSM   H15C17374   5.106   5.957   1.350 -1.6032 -0.0777 -0.7171
  156OSM    C1417375   5.023   5.888   1.144 -0.3209  0.1279  0.5357
  156OSM   H14A17376   4.945   5.859   1.075  1.2984 -1.7451 -0.6344
  156OSM   H14B17377   5.115   5.861   1.095  0.8620 -1.0300  3.2344
  156OSM   H14C17378   5.023   5.996   1.154  0.9265  0.1363  0.5300
  156OSM    C1317379   4.999   5.675   1.236  0.1992  0.0651  0.5283
  156OSM   H13A17380   4.979   5.611   1.320  2.4984 -1.2899  0.1291
  156OSM   H13B17381   5.096   5.645   1.199  1.7070  1.6036  2.9459
  156OSM   H13C17382   4.926   5.653   1.159  1.1504  1.2371 -0.7676
  156OSM    C1217383   4.860   5.866   1.334  0.5152 -0.7968  0.3525
  156OSM   H12A17384   4.830   5.822   1.428 -1.0786  1.7600  1.1547
  156OSM   H12B17385   4.779   5.840   1.268  0.0402  0.1572  0.5451
  156OSM    C1117386   4.854   6.022   1.353  0.4200 -0.3915 -0.5986
  156OSM   H11A17387   4.754   6.043   1.397  1.9590  2.2773  1.9514
  156OSM   H11B17388   4.862   6.075   1.256 -0.0630  0.4574 -0.1855
  156OSM      P17389   4.936   6.090   1.591 -0.3941  0.0525  0.5992
  156OSM    O1317390   4.967   6.229   1.630 -0.2519 -0.3193 -0.0997
  156OSM    O1417391   4.813   6.026   1.631  0.3283 -0.5543 -0.3871
  156OSM    O1117392   5.057   6.007   1.643  0.0447  0.0386 -0.1150
  156OSM    O1217393   4.953   6.076   1.431  0.8347  0.4368 -0.2961
  156OSM    C1S17394   5.108   6.027   1.776 -0.2132  0.4082 -0.2607
  156OSM    H1S17395   5.084   6.125   1.823  1.3611 -0.7703  3.3423
  156OSM    H1T17396   5.218   6.015   1.782 -0.5755 -3.0079  1.5513
  156OSM     NF17397   5.085   5.969   2.006  0.4785  0.0147  0.6395
  156OSM    HNF17398   5.172   5.936   2.044  0.8456  1.7804  1.4374
  156OSM    C2S17399   5.045   5.930   1.876  0.2903  0.1129 -0.1435
  156OSM    H2S17400   4.934   5.943   1.873  0.2583 -0.3726 -1.7812
  156OSM    C3S17401   5.073   5.791   1.832 -0.2775 -0.4100  0.7770
  156OSM    H3S17402   5.179   5.768   1.807 -0.2555 -1.9928  2.1152
  156OSM     O317403   5.002   5.752   1.713 -0.3150  0.4451 -0.1483
  156OSM    HO317404   4.989   5.831   1.659 -1.0043 -0.4731 -1.3909
  156OSM    C4S17405   5.052   5.696   1.950  0.0358  0.4498  0.0590
  156OSM    H4S17406   5.129   5.706   2.027 -1.2673 -1.2546  1.6874
  156OSM    C5S17407   4.947   5.606   1.970  0.3563  0.4558 -0.5212
  156OSM    H5S17408   4.870   5.601   1.892  0.5785 -0.1840 -0.7032
  156OSM    C6S17409   4.933   5.510   2.098 -0.1810  0.1258 -0.2610
  156OSM    H6S17410   4.925   5.405   2.063  3.8035 -0.4298  0.0311
  156OSM    H6T17411   4.835   5.525   2.150 -0.5813 -3.3206  0.1801
  156OSM    C7S17412   5.047   5.510   2.203  0.3046 -1.3414 -0.2371
  156OSM    H7S17413   5.144   5.537   2.156 -0.0012  0.4848  0.1046
  156OSM    H7T17414   5.043   5.416   2.262  1.9532 -0.1871  1.8636
  156OSM    C8S17415   5.014   5.624   2.302 -0.3430  0.0759 -0.3425
  156OSM    H8S17416   4.923   5.606   2.362  0.1465  2.2322  1.1806
  156OSM    H8T17417   5.010   5.716   2.240  0.8131  0.7750  0.5771
  156OSM    C9S17418   5.119   5.639   2.418  0.1405 -0.5693  0.2728
  156OSM    H9S17419   5.119   5.739   2.468  0.0677 -1.3341  1.8514
  156OSM    H9T17420   5.219   5.621   2.373  0.2751  0.7320 -0.0018
  156OSM   C10S17421   5.095   5.536   2.529 -0.5056 -0.4357  0.4206
  156OSM   H10S17422   5.190   5.493   2.566  0.6358 -0.7064 -2.5671
  156OSM   H10T17423   5.044   5.448   2.484 -0.1657  0.2415 -1.3831
  156OSM   C11S17424   5.016   5.578   2.659  0.0237 -0.2010 -0.4338
  156OSM   H11S17425   4.907   5.592   2.642  0.6201  2.4554 -2.6245
  156OSM   H11T17426   5.049   5.679   2.690 -1.1465 -0.0042  0.2432
  156OSM   C12S17427   5.044   5.465   2.759 -0.1583  0.0389 -0.7957
  156OSM   H12S17428   5.152   5.455   2.783 -0.4527 -3.8636 -0.3631
  156OSM   H12T17429   5.021   5.365   2.715 -2.7553  0.8476 -1.4780
  156OSM   C13S17430   4.971   5.483   2.891  0.0275  0.2231  0.6857
  156OSM   H13S17431   4.863   5.485   2.868  0.4283 -0.0589 -1.5042
  156OSM   H13T17432   4.992   5.578   2.944  0.6886  0.0342  0.7743
  156OSM   C14S17433   4.986   5.373   2.992 -0.1668  0.1895 -0.1580
  156OSM   H14S17434   5.082   5.395   3.044  0.5792  0.0598 -1.4369
  156OSM   H14T17435   4.998   5.274   2.942 -0.2251 -1.7726  3.3797
  156OSM   C15S17436   4.867   5.368   3.084  0.1699  0.4935  0.1223
  156OSM   H15S17437   4.775   5.323   3.043 -0.8431  0.2240  2.5189
  156OSM   H15T17438   4.841   5.473   3.112  0.4366  0.5194  0.2745
  156OSM   C16S17439   4.893   5.287   3.213 -0.2238 -0.1904  0.1897
  156OSM   H16S17440   4.946   5.192   3.190  1.6165  0.8690 -0.1218
  156OSM   H16T17441   4.806   5.268   3.280  0.8823  1.9750  2.4123
  156OSM   C17S17442   4.979   5.366   3.316 -0.2183 -0.6401 -1.0020
  156OSM   H17S17443   4.920   5.459   3.330 -0.7757 -1.0996 -0.1849
  156OSM   H17T17444   5.072   5.383   3.258 -0.8795  1.1226 -1.6335
  156OSM   C18S17445   5.001   5.293   3.449 -0.3033 -0.2835 -0.9364
  156OSM   H18S17446   5.099   5.241   3.459 -0.5919 -0.5141  1.4819
  156OSM   H18T17447   4.921   5.219   3.467 -1.0350  0.7132  0.1146
  156OSM   H18U17448   4.990   5.368   3.531  2.8348  2.0956 -2.4721
  156OSM    C1F17449   5.018   6.066   2.071 -0.6234  0.8460 -0.2815
  156OSM     OF17450   4.934   6.125   2.012  0.2148 -0.0543  0.7131
  156OSM    C2F17451   5.064   6.106   2.201 -0.7344  0.0504 -0.0881
  156OSM    H2F17452   5.093   6.213   2.194  0.1526 -0.2116 -0.5930
  156OSM    H2G17453   5.151   6.039   2.219 -1.3196 -0.9298 -0.8313
  156OSM    C3F17454   4.964   6.081   2.315 -0.7010  0.1059  0.6091
  156OSM    H3F17455   4.919   5.979   2.314 -2.3777  0.7978 -1.0024
  156OSM    H3G17456   4.880   6.153   2.306 -1.5488 -0.6524  2.1114
  156OSM    C4F17457   5.027   6.101   2.449  1.0834 -0.3125 -0.7157
  156OSM    H4F17458   5.095   6.188   2.443  0.6478  0.1024  0.1380
  156OSM    H4G17459   5.085   6.010   2.476  1.4360 -0.0944 -0.7416
  156OSM    C5F17460   4.926   6.128   2.568  0.1321  0.0719  0.5159
  156OSM    H5F17461   4.853   6.046   2.585  1.5941 -0.9232  2.3609
  156OSM    H5G17462   4.866   6.220   2.551  0.6328  0.3068  0.0040
  156OSM    C6F17463   5.001   6.139   2.708 -0.5249 -0.0966  0.0970
  156OSM    H6F17464   5.070   6.226   2.706 -0.9958  0.3156  0.9857
  156OSM    H6G17465   5.060   6.045   2.715  2.7523  1.8978  2.3230
  156OSM    C7F17466   4.906   6.150   2.823 -0.2800  0.1763 -0.2142
  156OSM    H7F17467   4.825   6.080   2.791  0.6951 -0.6056 -1.0283
  156OSM    H7G17468   4.847   6.244   2.834  1.9323  1.6108 -0.0756
  156OSM    C8F17469   4.963   6.115   2.961  0.7405 -0.1055  0.5584
  156OSM    H8F17470   5.024   6.201   2.997 -1.2492  2.3909 -1.6291
  156OSM    H8G17471   5.023   6.022   2.947 -0.7339 -1.1069  0.6805
  156OSM    C9F17472   4.852   6.075   3.058 -0.3105 -0.4520  0.2183
  156OSM    H9F17473   4.810   5.976   3.041  1.2584 -1.5724  2.2979
  156OSM   C10F17474   4.816   6.157   3.159 -0.4401  0.2289 -0.0985
  156OSM   H10F17475   4.745   6.120   3.235 -0.8148  1.8435  0.3698
  156OSM   C11F17476   4.880   6.292   3.203 -0.1715  0.1232  0.4262
  156OSM   H11F17477   4.802   6.362   3.238 -2.2641 -1.5295 -0.7056
  156OSM   H11G17478   4.931   6.346   3.120  1.6361 -0.0877  1.3420
  156OSM   C12F17479   4.975   6.273   3.325 -0.3473 -0.0690 -0.1290
  156OSM   H12F17480   5.067   6.221   3.292  0.2343 -0.2845  1.7410
  156OSM   H12G17481   4.927   6.208   3.400  1.0332 -1.7697 -0.6642
  156OSM   C13F17482   5.006   6.405   3.401 -0.5802 -0.6627  0.0761
  156OSM   H13F17483   4.918   6.430   3.464 -1.2102 -1.9136 -0.2765
  156OSM   H13G17484   5.005   6.476   3.316 -0.3183 -1.9631 -1.0505
  156OSM   C14F17485   5.145   6.399   3.467  0.0597  0.4707 -0.0673
  156OSM   H14F17486   5.171   6.499   3.509  1.6351  1.0361 -2.2284
  156OSM   H14G17487   5.229   6.378   3.397  0.3065  1.4750 -0.0912
  156OSM   C15F17488   5.165   6.304   3.581  0.8043 -0.6295 -0.3365
  156OSM   H15F17489   5.273   6.312   3.607  0.7286 -0.6314 -0.0220
  156OSM   H15G17490   5.126   6.203   3.555 -1.2002  0.3765 -1.5033
  156OSM   C16F17491   5.097   6.341   3.714  0.0714  0.2918 -0.0391
  156OSM   H16F17492   4.993   6.369   3.688 -0.4825 -1.3941  0.2569
  156OSM   H16G17493   5.150   6.433   3.749 -0.6250  0.8339 -0.3885
  156OSM   C17F17494   5.092   6.238   3.820  0.5318  0.4289 -0.2355
  156OSM   H17F17495   5.197   6.207   3.839  0.5847  0.9906  0.4033
  156OSM   H17G17496   5.037   6.144   3.798  1.7271 -0.3786  0.1156
  156OSM   C18F17497   5.055   6.302   3.950  0.0108  0.9230 -0.4362
  156OSM   H18F17498   5.137   6.376   3.967  0.4809  0.4506 -0.6472
  156OSM   H18G17499   5.057   6.228   4.032  0.6716  1.5694  0.1522
  156OSM   H18H17500   4.959   6.358   3.946  1.0961  2.9383 -0.0812
  157OSM      N17501   4.719   1.051   1.825 -0.2804  0.5618  0.1628
  157OSM    C1517502   4.795   0.926   1.803 -0.2637  0.0803 -1.1053
  157OSM   H15A17503   4.735   0.846   1.846 -0.9256  0.9579 -0.3586
  157OSM   H15B17504   4.887   0.928   1.859  0.2624  1.1006 -1.9868
  157OSM   H15C17505   4.820   0.903   1.701  2.0596 -1.2430 -0.3258
  157OSM    C1417506   4.808   1.161   1.785 -0.7761 -0.2568  0.2813
  157OSM   H14A17507   4.845   1.151   1.684  1.3813  0.5377  0.9435
  157OSM   H14B17508   4.897   1.159   1.846 -0.7117  1.7847  0.3214
  157OSM   H14C17509   4.758   1.256   1.801  0.2216  0.4040 -0.4359
  157OSM    C1317510   4.595   1.057   1.746 -0.3879  0.3344  0.2598
  157OSM   H13A17511   4.559   1.158   1.764  2.0704  1.4776 -0.8041
  157OSM   H13B17512   4.526   0.981   1.779  0.9685 -1.6860 -1.3236
  157OSM   H13C17513   4.622   1.041   1.643 -0.2239  0.7811  0.2286
  157OSM    C1217514   4.682   1.055   1.980  0.1712 -0.2038  0.3732
  157OSM   H12A17515   4.616   1.139   1.994 -0.6758 -0.1959 -2.8053
  157OSM   H12B17516   4.777   1.066   2.031 -0.0668  1.0398  0.5669
  157OSM    C1117517   4.615   0.928   2.038  0.2601 -0.2740 -0.0464
  157OSM   H11A17518   4.571   0.975   2.128  0.1258  1.5216 -1.0118
  157OSM   H11B17519   4.703   0.864   2.060  0.8457  1.4715  3.4630
  157OSM      P17520   4.484   0.716   1.973  0.4077 -0.3846 -0.0493
  157OSM    O1317521   4.347   0.689   1.934  0.6043  0.7744  0.2411
  157OSM    O1417522   4.595   0.635   1.914 -0.1083 -0.1857  0.0393
  157OSM    O1117523   4.498   0.700   2.131 -0.4674 -0.1846  0.1478
  157OSM    O1217524   4.512   0.870   1.945  0.5796 -0.0347 -0.4878
  157OSM    C1S17525   4.397   0.734   2.224  0.2079 -0.9002 -0.3980
  157OSM    H1S17526   4.289   0.727   2.198 -0.0788  1.4523 -0.0584
  157OSM    H1T17527   4.400   0.843   2.245  3.7651 -1.1920  1.4800
  157OSM     NF17528   4.317   0.695   2.462 -0.3127 -0.6018  0.4082
  157OSM    HNF17529   4.315   0.789   2.495 -2.1565 -0.6219  0.4537
  157OSM    C2S17530   4.425   0.666   2.364 -0.6047  0.0708 -0.4502
  157OSM    H2S17531   4.436   0.556   2.354 -0.0283  0.1391 -0.6524
  157OSM    C3S17532   4.568   0.721   2.409 -0.2854  0.4153  0.0672
  157OSM    H3S17533   4.556   0.832   2.402 -0.5535  0.4052  0.3791
  157OSM     O317534   4.676   0.687   2.325 -0.1852  0.7450  0.0119
  157OSM    HO317535   4.642   0.648   2.245  2.0206 -0.9777 -0.1914
  157OSM    C4S17536   4.601   0.686   2.548 -0.4586  0.2224 -0.8173
  157OSM    H4S17537   4.569   0.584   2.573 -1.8643  0.5310 -1.2501
  157OSM    C5S17538   4.649   0.771   2.643  0.1551  0.0410 -0.4674
  157OSM    H5S17539   4.653   0.876   2.611  0.8750  0.8945  2.1685
  157OSM    C6S17540   4.687   0.745   2.782 -0.2988  0.4850  0.0859
  157OSM    H6S17541   4.718   0.835   2.839  2.5958 -1.6364  2.2137
  157OSM    H6T17542   4.773   0.676   2.801  0.5420  1.5720  0.3529
  157OSM    C7S17543   4.580   0.677   2.864  0.0602 -0.0840  0.1167
  157OSM    H7S17544   4.545   0.578   2.828 -1.1933 -0.4831  2.2408
  157OSM    H7T17545   4.491   0.743   2.851 -0.1947 -0.6177 -0.9782
  157OSM    C8S17546   4.607   0.660   3.015  0.4635  0.7773  0.0419
  157OSM    H8S17547   4.689   0.585   3.017  0.3640  0.6763  1.0068
  157OSM    H8T17548   4.525   0.606   3.067  1.5623  0.0894  1.1235
  157OSM    C9S17549   4.664   0.787   3.088  0.2255 -0.1425  0.9799
  157OSM    H9S17550   4.583   0.862   3.086  0.4288  0.0931  1.4262
  157OSM    H9T17551   4.756   0.819   3.036  0.3644  0.3491  1.5220
  157OSM   C10S17552   4.689   0.762   3.235  0.1968 -0.3106 -0.5074
  157OSM   H10S17553   4.606   0.704   3.281  1.2294 -0.5938  1.0995
  157OSM   H10T17554   4.691   0.856   3.294 -1.3023 -0.2226 -0.5562
  157OSM   C11S17555   4.815   0.687   3.271 -0.3038 -0.6727 -0.4583
  157OSM   H11S17556   4.833   0.601   3.204 -0.3521 -1.4261  0.4787
  157OSM   H11T17557   4.805   0.653   3.376 -0.9768  2.0690  0.4656
  157OSM   C12S17558   4.943   0.777   3.260  0.0220  0.1730 -0.2934
  157OSM   H12S17559   4.918   0.871   3.314  0.0269 -1.5229  2.9357
  157OSM   H12T17560   4.959   0.802   3.153  0.4559 -0.7517 -0.4600
  157OSM   C13S17561   5.076   0.722   3.319 -0.0099  0.7520 -0.2792
  157OSM   H13S17562   5.161   0.792   3.305  1.5090 -1.1678 -1.1751
  157OSM   H13T17563   5.099   0.630   3.261 -0.5130  0.5730 -0.2018
  157OSM   C14S17564   5.076   0.697   3.469  0.2349  0.4302 -0.2213
  157OSM   H14S17565   5.007   0.616   3.502 -0.3830  0.2570 -1.8740
  157OSM   H14T17566   5.035   0.791   3.509  1.4487  0.9143 -0.0658
  157OSM   C15S17567   5.219   0.684   3.522 -0.1043  0.0140  0.1975
  157OSM   H15S17568   5.285   0.766   3.486  2.8586 -3.6833 -3.8317
  157OSM   H15T17569   5.263   0.597   3.470 -0.8985 -2.0413  2.7560
  157OSM   C16S17570   5.230   0.674   3.680 -0.3686 -0.2911 -0.7725
  157OSM   H16S17571   5.336   0.648   3.703  1.1724  1.7119 -4.6097
  157OSM   H16T17572   5.163   0.594   3.717  1.4425  0.0792  4.1440
  157OSM   C17S17573   5.204   0.809   3.750 -0.1700  0.0057  0.1452
  157OSM   H17S17574   5.116   0.858   3.703  1.5337  1.7939 -1.3317
  157OSM   H17T17575   5.292   0.874   3.729  0.4496 -0.5080  1.0730
  157OSM   C18S17576   5.179   0.798   3.903 -0.0206  0.4472 -0.9107
  157OSM   H18S17577   5.199   0.895   3.955 -0.1638  1.0548 -1.9616
  157OSM   H18T17578   5.252   0.724   3.941  1.9989  1.6106 -2.2948
  157OSM   H18U17579   5.070   0.781   3.917  0.3440  0.0294  1.9132
  157OSM    C1F17580   4.200   0.632   2.446 -0.4895  0.1298 -0.0608
  157OSM     OF17581   4.199   0.528   2.379  0.0391 -0.0499 -0.6873
  157OSM    C2F17582   4.076   0.688   2.509 -0.2952 -0.3206  0.3846
  157OSM    H2F17583   4.007   0.748   2.446 -0.8793  1.6064  2.6912
  157OSM    H2G17584   4.110   0.758   2.589 -0.9842  0.1304  0.2907
  157OSM    C3F17585   3.998   0.579   2.590  0.0678  0.4197 -0.5602
  157OSM    H3F17586   3.966   0.493   2.527 -2.0005  0.2115  0.6684
  157OSM    H3G17587   3.905   0.620   2.636  0.1158 -1.5627  1.4681
  157OSM    C4F17588   4.074   0.529   2.715 -0.8188  0.5473  0.0011
  157OSM    H4F17589   4.176   0.495   2.688 -0.7244  0.1834  0.7895
  157OSM    H4G17590   4.019   0.440   2.753  0.0496 -0.2296 -0.5368
  157OSM    C5F17591   4.059   0.635   2.829  0.4624 -0.0074 -0.2968
  157OSM    H5F17592   3.959   0.625   2.876 -0.2477  2.4403 -1.1130
  157OSM    H5G17593   4.056   0.740   2.791  0.1328 -0.6787 -2.2411
  157OSM    C6F17594   4.169   0.625   2.941 -0.1445 -0.1717  0.0490
  157OSM    H6F17595   4.265   0.630   2.886  0.9552 -0.2517  1.8977
  157OSM    H6G17596   4.154   0.522   2.978 -0.0908 -0.3309 -0.3716
  157OSM    C7F17597   4.146   0.721   3.057  0.1809 -0.2136  0.5314
  157OSM    H7F17598   4.046   0.706   3.101  0.2620  0.3081  0.9072
  157OSM    H7G17599   4.141   0.827   3.025 -1.5536  0.2897  2.2714
  157OSM    C8F17600   4.238   0.711   3.178 -0.2583  0.0118 -0.7499
  157OSM    H8F17601   4.342   0.719   3.138  0.2870 -1.8564  0.2077
  157OSM    H8G17602   4.226   0.611   3.224 -0.9417 -0.5712 -2.1544
  157OSM    C9F17603   4.213   0.824   3.277  0.2192  0.1779  0.1445
  157OSM    H9F17604   4.217   0.928   3.241 -3.1847  0.5357  0.4540
  157OSM   C10F17605   4.198   0.801   3.408 -0.5968  0.4897  0.1091
  157OSM   H10F17606   4.184   0.898   3.459 -1.7448  1.0696 -1.2533
  157OSM   C11F17607   4.184   0.672   3.479  0.3824  0.3723  0.1247
  157OSM   H11F17608   4.219   0.588   3.415 -0.0570 -0.1443  0.5497
  157OSM   H11G17609   4.081   0.657   3.518  0.0488  0.8926 -0.5342
  157OSM   C12F17610   4.262   0.661   3.607  0.7558  0.2600  1.0234
  157OSM   H12F17611   4.217   0.735   3.676 -2.8492 -0.8719  0.0963
  157OSM   H12G17612   4.371   0.678   3.592  0.9777  0.3350  2.5701
  157OSM   C13F17613   4.240   0.533   3.684  0.3599  0.4874  0.2846
  157OSM   H13F17614   4.221   0.455   3.607 -0.7604 -0.9296  1.9146
  157OSM   H13G17615   4.149   0.559   3.742 -0.5174  2.0717 -1.6789
  157OSM   C14F17616   4.356   0.486   3.777  0.0180 -0.2114  0.2464
  157OSM   H14F17617   4.392   0.568   3.843  0.8131  0.7280 -1.2909
  157OSM   H14G17618   4.439   0.448   3.714  0.0754  0.5856 -0.1696
  157OSM   C15F17619   4.313   0.379   3.878  0.4912 -0.6839  0.4179
  157OSM   H15F17620   4.213   0.409   3.917 -0.0606 -2.8266  0.7722
  157OSM   H15G17621   4.372   0.374   3.973 -1.6386  0.7552  1.9034
  157OSM   C16F17622   4.293   0.240   3.816 -0.4072 -0.1530 -0.0322
  157OSM   H16F17623   4.389   0.184   3.820 -0.4400 -0.4747 -2.1660
  157OSM   H16G17624   4.269   0.242   3.707  0.2321 -1.6641 -0.2244
  157OSM   C17F17625   4.188   0.140   3.874  0.0331  0.3950  0.5498
  157OSM   H17F17626   4.183   0.057   3.801  1.4434  1.8457 -1.2857
  157OSM   H17G17627   4.091   0.192   3.888 -0.8589 -0.8545 -0.7909
  157OSM   C18F17628   4.235   0.082   4.008 -0.5896  0.7941 -0.4107
  157OSM   H18F17629   4.144   0.040   4.055  0.0669 -1.1162 -0.7526
  157OSM   H18G17630   4.274   0.157   4.080  0.5103  1.3853 -1.5857
  157OSM   H18H17631   4.304  -0.002   3.986 -0.4135  1.3153 -1.9654
  158OSM      N17632   0.779   6.732   2.006  0.8202  0.3284 -0.4430
  158OSM    C1517633   0.891   6.808   2.083 -0.6316 -0.2257  0.2197
  158OSM   H15A17634   0.954   6.746   2.145 -1.6886 -0.2645  1.2803
  158OSM   H15B17635   0.841   6.883   2.142 -2.2693 -0.0135 -1.3450
  158OSM   H15C17636   0.948   6.858   2.006 -0.9611 -0.7997 -0.4164
  158OSM    C1417637   0.685   6.669   2.115 -0.3281  0.7162 -0.9305
  158OSM   H14A17638   0.735   6.606   2.188 -1.1695  0.0096 -0.9456
  158OSM   H14B17639   0.609   6.604   2.074  2.0558 -1.4008 -2.2811
  158OSM   H14C17640   0.639   6.749   2.171 -0.7039  0.9918 -1.6171
  158OSM    C1317641   0.701   6.828   1.926 -0.2821  0.5306 -0.3536
  158OSM   H13A17642   0.660   6.903   1.993  0.2035 -0.7495  1.4549
  158OSM   H13B17643   0.609   6.794   1.880 -0.3586  0.3483 -0.0678
  158OSM   H13C17644   0.760   6.874   1.848 -3.0348 -0.3926 -3.1591
  158OSM    C1217645   0.838   6.623   1.924 -0.5860 -0.4867  0.2322
  158OSM   H12A17646   0.757   6.559   1.889 -1.9624  1.8141 -1.0177
  158OSM   H12B17647   0.906   6.560   1.979  1.1899  0.8823 -0.3165
  158OSM    C1117648   0.918   6.657   1.796  0.1403 -0.5205 -0.4757
  158OSM   H11A17649   0.857   6.730   1.739  0.2954 -1.2786 -1.6506
  158OSM   H11B17650   0.931   6.569   1.729 -0.5285 -1.4310  0.5541
  158OSM      P17651   1.177   6.628   1.834 -0.0595 -0.2508 -0.0462
  158OSM    O1317652   1.175   6.553   1.702  0.1778 -0.1563  0.6040
  158OSM    O1417653   1.298   6.710   1.852  0.5439 -1.0027  0.3418
  158OSM    O1117654   1.147   6.524   1.950  0.1136 -0.3833  0.6879
  158OSM    O1217655   1.045   6.717   1.832 -0.3027 -0.0208  0.3928
  158OSM    C1S17656   1.219   6.541   2.078  0.2939 -0.9127 -0.0982
  158OSM    H1S17657   1.141   6.571   2.151 -0.0344 -0.7281 -0.5137
  158OSM    H1T17658   1.279   6.632   2.097 -0.9279 -0.5330  2.3523
  158OSM     NF17659   1.329   6.432   2.272 -0.2573 -0.3214  0.4902
  158OSM    HNF17660   1.425   6.460   2.278 -0.1332 -0.0762 -1.9606
  158OSM    C2S17661   1.287   6.418   2.123 -0.3007 -0.1236 -0.2973
  158OSM    H2S17662   1.219   6.330   2.125 -1.4141  0.7269  1.2133
  158OSM    C3S17663   1.400   6.366   2.027 -0.2023  0.1097  0.2541
  158OSM    H3S17664   1.479   6.443   2.014  0.2363 -0.3838 -0.0172
  158OSM     O317665   1.353   6.334   1.897 -0.3375  0.0955  0.2123
  158OSM    HO317666   1.260   6.355   1.903 -0.2130  1.2827 -1.2579
  158OSM    C4S17667   1.471   6.239   2.068 -0.2062  0.8365 -0.8422
  158OSM    H4S17668   1.536   6.260   2.153 -0.6101  0.2510 -0.3782
  158OSM    C5S17669   1.452   6.109   2.025  0.4536  0.6558 -0.3949
  158OSM    H5S17670   1.366   6.082   1.962  0.1645 -0.9325  0.6164
  158OSM    C6S17671   1.527   5.988   2.074 -0.2919  0.2202  0.1687
  158OSM    H6S17672   1.626   6.027   2.108 -0.3328  0.6962 -0.2333
  158OSM    H6T17673   1.537   5.911   1.994 -3.4325 -0.2498  0.1210
  158OSM    C7S17674   1.460   5.909   2.191  0.1105 -0.1231 -0.2767
  158OSM    H7S17675   1.353   5.890   2.166 -0.6238  2.0384  0.9361
  158OSM    H7T17676   1.454   5.984   2.273 -1.3096 -0.3819 -0.1084
  158OSM    C8S17677   1.533   5.786   2.243  0.1508 -0.8994  0.6452
  158OSM    H8S17678   1.639   5.818   2.238  0.1655 -1.1228 -2.3163
  158OSM    H8T17679   1.512   5.700   2.175 -2.0186 -1.3270  1.7736
  158OSM    C9S17680   1.498   5.743   2.381  0.3636  0.4514  0.4213
  158OSM    H9S17681   1.542   5.643   2.401  0.2194  0.2612 -0.1901
  158OSM    H9T17682   1.389   5.728   2.388  0.5657 -1.3253  0.2803
  158OSM   C10S17683   1.546   5.844   2.489 -0.3245 -0.2376  0.6648
  158OSM   H10S17684   1.489   5.937   2.472  1.0053  0.3083 -1.0893
  158OSM   H10T17685   1.647   5.883   2.464 -0.9201 -0.1561 -1.8729
  158OSM   C11S17686   1.547   5.790   2.633  0.0636 -0.3941 -0.3131
  158OSM   H11S17687   1.441   5.781   2.665 -0.2468  0.3694 -1.0802
  158OSM   H11T17688   1.593   5.878   2.684 -0.9120  0.2799 -0.5540
  158OSM   C12S17689   1.626   5.665   2.665  0.1128  0.3563 -1.0171
  158OSM   H12S17690   1.701   5.659   2.583  0.5550  1.2744 -0.6982
  158OSM   H12T17691   1.559   5.576   2.662 -1.5501  1.3877  1.5551
  158OSM   C13S17692   1.685   5.673   2.804 -0.7659 -0.4931 -0.0386
  158OSM   H13S17693   1.728   5.772   2.830  0.3617 -1.2503  1.1882
  158OSM   H13T17694   1.767   5.598   2.813 -0.7472 -0.4173  0.4910
  158OSM   C14S17695   1.591   5.651   2.927  0.8892 -1.0200 -0.0256
  158OSM   H14S17696   1.549   5.549   2.924 -1.3774 -0.2264  1.6594
  158OSM   H14T17697   1.507   5.723   2.910 -1.3364 -3.2218  1.1235
  158OSM   C15S17698   1.642   5.696   3.064  0.1976 -0.8273  0.0789
  158OSM   H15S17699   1.569   5.724   3.143  0.3364  0.7920 -0.3219
  158OSM   H15T17700   1.688   5.796   3.044 -0.4876 -0.1425  1.7630
  158OSM   C16S17701   1.746   5.603   3.136 -0.2682  0.3511  0.7368
  158OSM   H16S17702   1.836   5.573   3.077 -0.7611 -2.5194  1.3048
  158OSM   H16T17703   1.689   5.508   3.142  2.2233 -1.6806 -3.3805
  158OSM   C17S17704   1.801   5.638   3.271  0.4238  0.0007 -0.3487
  158OSM   H17S17705   1.856   5.734   3.265 -0.6337  0.6393  0.0051
  158OSM   H17T17706   1.871   5.558   3.303 -0.3316 -0.6316 -0.2456
  158OSM   C18S17707   1.687   5.652   3.370 -0.7928  0.1013  0.1426
  158OSM   H18S17708   1.651   5.757   3.363 -0.3152  0.4273  2.1244
  158OSM   H18T17709   1.723   5.624   3.471 -2.9816 -2.9296  0.2418
  158OSM   H18U17710   1.612   5.572   3.351 -0.2816 -0.2766 -0.3155
  158OSM    C1F17711   1.240   6.427   2.368 -0.6291 -0.0847  0.3334
  158OSM     OF17712   1.125   6.402   2.341 -0.2965 -0.2887 -0.0074
  158OSM    C2F17713   1.289   6.454   2.514  0.0170  0.2382  0.2627
  158OSM    H2F17714   1.379   6.518   2.521  0.7642 -0.6581 -0.7570
  158OSM    H2G17715   1.320   6.358   2.563  1.8458  0.9884  0.6525
  158OSM    C3F17716   1.188   6.541   2.600  0.1282 -0.4161  0.0579
  158OSM    H3F17717   1.101   6.471   2.608  1.1520 -1.8224 -0.7141
  158OSM    H3G17718   1.164   6.628   2.536  1.2294 -3.1692 -4.5290
  158OSM    C4F17719   1.237   6.586   2.740 -0.2517  0.0209  0.3998
  158OSM    H4F17720   1.175   6.670   2.777 -1.9759 -0.4090 -1.3864
  158OSM    H4G17721   1.341   6.625   2.733  1.2258 -3.3642  1.0783
  158OSM    C5F17722   1.248   6.465   2.836 -0.7394  0.5738 -0.3282
  158OSM    H5F17723   1.296   6.377   2.789  0.2562  1.3599 -0.8372
  158OSM    H5G17724   1.142   6.435   2.855 -0.7355  0.3145 -0.7009
  158OSM    C6F17725   1.299   6.497   2.968  0.6309  0.8772  0.2917
  158OSM    H6F17726   1.266   6.423   3.044  0.4403  0.8955  0.2277
  158OSM    H6G17727   1.242   6.587   2.999 -1.9015 -1.1280  1.8862
  158OSM    C7F17728   1.451   6.496   2.980 -0.4866  0.1948 -0.1281
  158OSM    H7F17729   1.489   6.576   2.913 -0.4641  1.4317  1.3012
  158OSM    H7G17730   1.485   6.397   2.943 -1.2908  0.1094 -0.6842
  158OSM    C8F17731   1.510   6.507   3.122 -0.3440 -0.3133 -0.4480
  158OSM    H8F17732   1.483   6.609   3.155  0.5599  0.6544 -2.5355
  158OSM    H8G17733   1.620   6.494   3.109 -0.1259  1.8746 -1.1471
  158OSM    C9F17734   1.467   6.388   3.203 -0.4747 -0.2735 -0.1869
  158OSM    H9F17735   1.462   6.292   3.150  1.7144 -0.4984 -0.1042
  158OSM   C10F17736   1.468   6.387   3.338 -0.5302 -0.1631  0.1131
  158OSM   H10F17737   1.439   6.297   3.393 -1.8270  1.2097  1.7892
  158OSM   C11F17738   1.532   6.501   3.418 -0.7417  0.5682 -0.2840
  158OSM   H11F17739   1.500   6.602   3.386  0.4113  0.9320 -0.3143
  158OSM   H11G17740   1.638   6.498   3.386 -0.5426  1.1736  0.3111
  158OSM   C12F17741   1.523   6.486   3.568  0.2242  0.8812 -0.4413
  158OSM   H12F17742   1.417   6.475   3.602 -0.4327  2.4200 -1.8321
  158OSM   H12G17743   1.555   6.586   3.605 -0.8760  0.4097  1.9801
  158OSM   C13F17744   1.605   6.377   3.626 -0.6833  0.3652 -0.3198
  158OSM   H13F17745   1.709   6.383   3.587 -0.7176  1.3877 -0.2785
  158OSM   H13G17746   1.559   6.281   3.595 -0.7808  1.1085 -2.6208
  158OSM   C14F17747   1.597   6.385   3.785 -0.5103  0.7458  0.2998
  158OSM   H14F17748   1.491   6.377   3.818 -0.5087 -5.0131 -0.0840
  158OSM   H14G17749   1.630   6.485   3.820  0.9287  0.9322 -1.4434
  158OSM   C15F17750   1.685   6.277   3.857  0.2228  0.5896 -0.1666
  158OSM   H15F17751   1.792   6.282   3.826 -0.0541  0.4957 -1.1682
  158OSM   H15G17752   1.640   6.177   3.840 -1.7945  1.5213 -0.5749
  158OSM   C16F17753   1.680   6.299   4.012  0.4758 -0.9500  0.5086
  158OSM   H16F17754   1.685   6.410   4.023 -0.6928 -0.8559  0.2171
  158OSM   H16G17755   1.768   6.267   4.071  2.1264 -0.3341 -1.5043
  158OSM   C17F17756   1.547   6.254   4.080  0.4748  0.1221 -0.2900
  158OSM   H17F17757   1.472   6.223   4.004 -2.1951 -2.7815  3.1725
  158OSM   H17G17758   1.509   6.342   4.136 -1.1855 -1.0160  0.4629
  158OSM   C18F17759   1.549   6.131   4.177 -0.4575  0.5642  0.1365
  158OSM   H18F17760   1.453   6.124   4.233  0.0361 -1.3879  0.8274
  158OSM   H18G17761   1.630   6.135   4.253 -3.2289 -1.2415  3.4837
  158OSM   H18H17762   1.540   6.039   4.115 -1.2150  0.9306 -0.3168
  159OSM      N17763   2.977   0.346   1.829 -0.7960 -0.3273  0.0335
  159OSM    C1517764   2.991   0.243   1.713  0.7019 -0.6233 -0.2530
  159OSM   H15A17765   2.961   0.145   1.746 -0.0652 -0.5813 -0.7906
  159OSM   H15B17766   3.098   0.239   1.696  0.7349 -0.1417 -0.1819
  159OSM   H15C17767   2.952   0.275   1.617 -1.6440  0.2434  0.9046
  159OSM    C1417768   3.030   0.474   1.776 -0.2604  0.4172  0.1736
  159OSM   H14A17769   3.138   0.470   1.782 -0.3112 -0.7096  0.6989
  159OSM   H14B17770   3.000   0.562   1.831 -2.0935  0.2233 -0.4816
  159OSM   H14C17771   3.004   0.481   1.672  2.8334 -2.1735 -0.9459
  159OSM    C1317772   2.832   0.361   1.857 -0.1936  0.0322 -0.0083
  159OSM   H13A17773   2.813   0.445   1.921  2.0366 -0.9290  2.0379
  159OSM   H13B17774   2.800   0.272   1.909  2.2192 -0.8720  0.0269
  159OSM   H13C17775   2.780   0.381   1.764  0.8000  1.7185 -0.2385
  159OSM    C1217776   3.058   0.288   1.948  0.9115 -0.4337 -0.4164
  159OSM   H12A17777   3.007   0.204   1.993  1.5860  0.8518  3.0073
  159OSM   H12B17778   3.068   0.361   2.027 -0.9649 -1.9450  1.3501
  159OSM    C1117779   3.205   0.242   1.928  0.3951 -0.1780 -0.4420
  159OSM   H11A17780   3.241   0.230   2.032  0.3351 -3.7192 -0.7281
  159OSM   H11B17781   3.263   0.328   1.889  1.4384 -1.3098 -1.4430
  159OSM      P17782   3.198  -0.017   1.904 -0.1499 -0.1793 -0.1177
  159OSM    O1317783   3.055  -0.029   1.942 -0.0835  0.3742  0.0085
  159OSM    O1417784   3.259  -0.112   1.803  0.5063  0.5130  0.6487
  159OSM    O1117785   3.285  -0.014   2.031 -0.2876  0.5785  0.9447
  159OSM    O1217786   3.223   0.124   1.845 -0.0793 -0.0403  0.0215
  159OSM    C1S17787   3.423  -0.005   2.031  0.0630 -0.7428 -0.7609
  159OSM    H1S17788   3.454   0.101   2.024  0.2273 -0.6799  0.6645
  159OSM    H1T17789   3.466  -0.062   1.945  0.5127 -0.2445 -0.8658
  159OSM     NF17790   3.626  -0.025   2.187 -0.2726  0.4024 -0.6551
  159OSM    HNF17791   3.693  -0.091   2.153  0.9711  1.2076  0.1634
  159OSM    C2S17792   3.485  -0.072   2.168 -0.2776 -0.0845  0.7033
  159OSM    H2S17793   3.425  -0.032   2.252 -1.6610 -3.9049  1.7679
  159OSM    C3S17794   3.471  -0.223   2.166 -0.0960 -0.0046 -0.4415
  159OSM    H3S17795   3.535  -0.268   2.087 -0.4185  0.9632 -1.2692
  159OSM     O317796   3.343  -0.272   2.121  0.1449 -0.7743  1.3206
  159OSM    HO317797   3.293  -0.198   2.085 -1.2468 -2.0575  0.4639
  159OSM    C4S17798   3.510  -0.281   2.297  0.1076  0.8845 -1.0029
  159OSM    H4S17799   3.619  -0.289   2.304 -0.0933 -4.2433  0.1857
  159OSM    C5S17800   3.436  -0.336   2.398 -0.4307 -0.1663  0.1265
  159OSM    H5S17801   3.327  -0.342   2.385 -0.0914 -2.9657 -2.5867
  159OSM    C6S17802   3.491  -0.388   2.531 -0.1871 -0.9081 -0.4647
  159OSM    H6S17803   3.600  -0.367   2.544 -0.3699  0.9085 -1.5121
  159OSM    H6T17804   3.477  -0.498   2.526 -0.2710 -0.8645 -4.2714
  159OSM    C7S17805   3.418  -0.340   2.658 -0.2733  0.2379 -0.4709
  159OSM    H7S17806   3.309  -0.347   2.637 -0.4834 -1.2017  0.8927
  159OSM    H7T17807   3.436  -0.233   2.683  1.4298 -0.3751  1.0970
  159OSM    C8S17808   3.454  -0.426   2.786  0.1032  0.3216  1.0060
  159OSM    H8S17809   3.564  -0.415   2.787  0.3198 -1.4773  0.4027
  159OSM    H8T17810   3.421  -0.526   2.751  0.3535  0.5613  0.0714
  159OSM    C9S17811   3.396  -0.386   2.923 -0.7899  0.2847 -0.0607
  159OSM    H9S17812   3.287  -0.409   2.929 -0.6381 -1.2512 -2.0718
  159OSM    H9T17813   3.406  -0.277   2.942 -4.0314  0.6568  0.1263
  159OSM   C10S17814   3.480  -0.461   3.032 -0.4392  0.3350  0.2080
  159OSM   H10S17815   3.588  -0.463   3.004 -0.2007 -0.4032  1.1313
  159OSM   H10T17816   3.459  -0.570   3.043  1.6427 -0.0565  0.7503
  159OSM   C11S17817   3.452  -0.396   3.167  0.0926  0.1506 -0.0481
  159OSM   H11S17818   3.347  -0.408   3.198  0.7259 -1.0993  1.7116
  159OSM   H11T17819   3.485  -0.290   3.171 -2.2217  0.8688  1.4458
  159OSM   C12S17820   3.547  -0.462   3.277  0.2139 -0.7632 -0.0712
  159OSM   H12S17821   3.650  -0.434   3.246 -0.9731  3.0822 -1.1050
  159OSM   H12T17822   3.541  -0.573   3.282 -0.9269 -0.8122 -1.5998
  159OSM   C13S17823   3.521  -0.393   3.414  0.4393 -0.5288  0.2195
  159OSM   H13S17824   3.417  -0.424   3.440  0.1782 -0.3789 -0.6209
  159OSM   H13T17825   3.537  -0.284   3.405 -0.9764 -0.2873  0.4224
  159OSM   C14S17826   3.614  -0.455   3.517  0.0682  0.1842  0.4203
  159OSM   H14S17827   3.678  -0.528   3.461  1.8661  2.0772 -0.1002
  159OSM   H14T17828   3.553  -0.512   3.590 -1.3543  3.5078  1.9803
  159OSM   C15S17829   3.703  -0.367   3.602  0.6715 -0.2253 -0.6796
  159OSM   H15S17830   3.771  -0.317   3.530 -0.0178  0.1992 -1.0414
  159OSM   H15T17831   3.773  -0.428   3.662  0.2387 -0.4539 -0.4024
  159OSM   C16S17832   3.637  -0.259   3.691 -0.1091  0.4224 -0.4656
  159OSM   H16S17833   3.586  -0.185   3.627 -0.6177 -0.0119 -0.5692
  159OSM   H16T17834   3.713  -0.203   3.750 -1.1096  0.4207  0.8622
  159OSM   C17S17835   3.548  -0.316   3.794 -0.4390 -0.5821 -0.1703
  159OSM   H17S17836   3.608  -0.382   3.860  2.1614  2.9474  1.3692
  159OSM   H17T17837   3.459  -0.359   3.743 -1.6554  0.2495  1.1570
  159OSM   C18S17838   3.496  -0.201   3.881  0.2445 -0.9399  0.3543
  159OSM   H18S17839   3.427  -0.136   3.824 -2.0903 -3.2519  0.3571
  159OSM   H18T17840   3.580  -0.137   3.915  0.4253 -0.9778 -0.0076
  159OSM   H18U17841   3.429  -0.239   3.961 -0.2541  0.8337  0.8091
  159OSM    C1F17842   3.669   0.097   2.207 -0.1448  0.4243  0.2823
  159OSM     OF17843   3.588   0.190   2.221 -0.1323 -0.4201 -0.1540
  159OSM    C2F17844   3.816   0.119   2.214  0.5179 -0.0219  0.8081
  159OSM    H2F17845   3.837   0.187   2.128 -1.6682  0.5073  0.6337
  159OSM    H2G17846   3.870   0.026   2.187  0.5606  0.7593 -2.2144
  159OSM    C3F17847   3.861   0.159   2.353 -0.2646  0.3829  0.2031
  159OSM    H3F17848   3.838   0.267   2.365 -2.2785 -0.1316  1.4279
  159OSM    H3G17849   3.971   0.149   2.358 -0.2475  0.7848  0.6798
  159OSM    C4F17850   3.794   0.089   2.473  0.5071  0.5321 -0.3505
  159OSM    H4F17851   3.798  -0.021   2.455  2.8568  0.5351 -0.1307
  159OSM    H4G17852   3.685   0.110   2.483  0.7644  1.1477  1.5015
  159OSM    C5F17853   3.853   0.112   2.615  0.1643 -0.3491 -0.2333
  159OSM    H5F17854   3.874   0.221   2.612  2.3206 -0.6882  0.3453
  159OSM    H5G17855   3.958   0.075   2.618 -0.1655 -1.3072  2.2818
  159OSM    C6F17856   3.771   0.067   2.736 -0.2623  0.3961  0.4852
  159OSM    H6F17857   3.736  -0.037   2.715 -0.3227  0.7625 -1.4673
  159OSM    H6G17858   3.679   0.127   2.748  0.0278  0.7932  0.7545
  159OSM    C7F17859   3.861   0.056   2.864  0.3317  0.0896 -0.0010
  159OSM    H7F17860   3.893   0.159   2.890 -1.2549  0.3213  1.2066
  159OSM    H7G17861   3.953  -0.006   2.853  1.6875  1.6801  1.6862
  159OSM    C8F17862   3.793   0.016   2.997  1.1348  0.3066 -0.3797
  159OSM    H8F17863   3.716   0.094   3.015  0.4600 -0.3925 -0.1659
  159OSM    H8G17864   3.872   0.030   3.073  0.6248  2.1354 -0.1360
  159OSM    C9F17865   3.729  -0.118   3.015 -0.7837  0.0249 -0.1684
  159OSM    H9F17866   3.634  -0.135   2.963 -1.8708 -0.1769  1.8151
  159OSM   C10F17867   3.775  -0.218   3.098 -0.1263 -0.0434 -0.8393
  159OSM   H10F17868   3.725  -0.315   3.096  0.7105 -0.5591  1.1573
  159OSM   C11F17869   3.885  -0.221   3.201  0.4082 -0.2914 -0.8453
  159OSM   H11F17870   3.846  -0.229   3.305  1.7803 -2.1606 -0.4289
  159OSM   H11G17871   3.957  -0.137   3.205  0.3597 -0.2858  0.4288
  159OSM   C12F17872   3.985  -0.341   3.172  0.4806  0.3580 -0.2394
  159OSM   H12F17873   4.014  -0.321   3.066 -0.9202 -2.8312 -1.3237
  159OSM   H12G17874   3.936  -0.440   3.177  0.8295  0.1132 -1.3178
  159OSM   C13F17875   4.106  -0.338   3.268  0.0460 -0.0493 -0.4402
  159OSM   H13F17876   4.159  -0.241   3.268  1.3705 -0.7479 -0.5039
  159OSM   H13G17877   4.174  -0.419   3.234 -0.5420  0.2281 -2.3717
  159OSM   C14F17878   4.066  -0.375   3.412  0.7058 -0.1549 -0.4259
  159OSM   H14F17879   4.008  -0.470   3.415  0.0725  0.2343  0.1098
  159OSM   H14G17880   4.000  -0.294   3.451  0.2101 -1.4269  1.5318
  159OSM   C15F17881   4.188  -0.387   3.507  0.5236  0.5471 -0.3189
  159OSM   H15F17882   4.264  -0.307   3.491 -0.5779  1.7723  0.4564
  159OSM   H15G17883   4.236  -0.488   3.506 -0.5394  0.0316 -0.6408
  159OSM   C16F17884   4.145  -0.369   3.654 -0.1528  0.1808 -0.2167
  159OSM   H16F17885   4.080  -0.453   3.689 -2.0260  1.7440  0.2589
  159OSM   H16G17886   4.084  -0.276   3.660 -1.1670 -0.0567 -4.1342
  159OSM   C17F17887   4.271  -0.357   3.740 -0.2030  0.0936 -0.3520
  159OSM   H17F17888   4.353  -0.291   3.704 -1.3696  1.7352 -0.0610
  159OSM   H17G17889   4.332  -0.450   3.744  2.1901  1.5363 -1.1136
  159OSM   C18F17890   4.237  -0.309   3.884 -0.2041  0.2505 -0.9172
  159OSM   H18F17891   4.139  -0.355   3.908 -0.3209  0.2095 -1.4547
  159OSM   H18G17892   4.225  -0.199   3.892  1.2713  0.4810 -1.5678
  159OSM   H18H17893   4.319  -0.331   3.955 -0.7470  0.9726 -0.0351
  160OSM      N17894   0.819   0.285   1.703 -0.1236  0.9879  0.1821
  160OSM    C1517895   0.858   0.204   1.576 -0.5787  0.8194 -0.3440
  160OSM   H15A17896   0.767   0.208   1.518 -0.9434 -3.1653 -0.3701
  160OSM   H15B17897   0.875   0.099   1.595  1.8337  0.9484 -1.3575
  160OSM   H15C17898   0.940   0.250   1.522 -2.1802  0.6763 -3.1032
  160OSM    C1417899   0.733   0.404   1.660  0.3206 -0.0453 -0.0118
  160OSM   H14A17900   0.683   0.442   1.748  1.8686  0.2438  0.7797
  160OSM   H14B17901   0.653   0.375   1.594  1.4586  0.5725 -1.7319
  160OSM   H14C17902   0.787   0.488   1.619 -0.4051  0.2555 -0.3757
  160OSM    C1317903   0.733   0.195   1.782  0.3875  0.5718  0.0540
  160OSM   H13A17904   0.785   0.101   1.794  1.8385  1.5080  1.3245
  160OSM   H13B17905   0.638   0.175   1.735  0.1578 -0.5349  0.9378
  160OSM   H13C17906   0.713   0.230   1.882  0.0689 -1.5109  0.7736
  160OSM    C1217907   0.945   0.327   1.778  0.1353  0.4132 -0.5987
  160OSM   H12A17908   1.020   0.379   1.719  1.6688  1.6502  2.2541
  160OSM   H12B17909   0.992   0.236   1.812 -1.5516  0.7754  3.1064
  160OSM    C1117910   0.929   0.395   1.913 -0.4126 -0.2724  0.4681
  160OSM   H11A17911   1.026   0.404   1.967  0.6617 -2.4608 -0.9631
  160OSM   H11B17912   0.867   0.325   1.973  0.5135 -0.0275  1.7528
  160OSM      P17913   0.918   0.643   1.838  0.4329 -0.8942  0.1198
  160OSM    O1317914   0.937   0.625   1.695 -0.0398  0.2218 -0.0087
  160OSM    O1417915   0.828   0.758   1.869  0.2971 -0.4496  0.0286
  160OSM    O1117916   1.054   0.658   1.909 -0.0541  0.2779 -0.7163
  160OSM    O1217917   0.853   0.515   1.895  0.5336 -0.0125 -0.6646
  160OSM    C1S17918   1.090   0.754   2.005 -0.2989  0.0084 -0.1859
  160OSM    H1S17919   1.009   0.787   2.074  0.2285  2.1634 -0.5129
  160OSM    H1T17920   1.115   0.842   1.942 -0.8349  0.5035  0.2823
  160OSM     NF17921   1.263   0.796   2.188 -0.6756  0.5699 -0.0190
  160OSM    HNF17922   1.342   0.855   2.176  0.0483  0.1279  2.1269
  160OSM    C2S17923   1.218   0.710   2.081 -0.5700  0.4213  0.4999
  160OSM    H2S17924   1.188   0.615   2.129 -1.1485 -1.0900 -2.5831
  160OSM    C3S17925   1.336   0.681   1.972 -0.2026 -0.0715 -0.4511
  160OSM    H3S17926   1.379   0.782   1.953  0.5844  0.1021  1.9857
  160OSM     O317927   1.297   0.630   1.845  0.4478  0.2517  0.2257
  160OSM    HO317928   1.201   0.639   1.852  0.3306  0.7936 -1.4769
  160OSM    C4S17929   1.445   0.595   2.032 -0.1056 -0.0699 -0.5329
  160OSM    H4S17930   1.531   0.651   2.072  1.5797 -0.2117 -3.6569
  160OSM    C5S17931   1.458   0.459   2.027 -0.8456  0.4228 -0.0446
  160OSM    H5S17932   1.378   0.400   1.979  0.0828  0.6058 -1.9215
  160OSM    C6S17933   1.554   0.375   2.105 -0.0714 -0.6490 -0.3395
  160OSM    H6S17934   1.661   0.380   2.077 -0.4932 -0.8987 -2.1243
  160OSM    H6T17935   1.524   0.277   2.061 -2.4723  1.1496 -3.1726
  160OSM    C7S17936   1.550   0.378   2.261 -0.3579  0.1261  0.5731
  160OSM    H7S17937   1.580   0.276   2.295 -0.9178  0.3416  1.7636
  160OSM    H7T17938   1.444   0.374   2.294 -0.5111 -0.9559  0.0079
  160OSM    C8S17939   1.620   0.501   2.334 -0.1686 -0.0229 -0.6271
  160OSM    H8S17940   1.564   0.585   2.287  0.4066  0.4459 -0.4848
  160OSM    H8T17941   1.728   0.504   2.309 -0.0429  0.2731 -0.0561
  160OSM    C9S17942   1.598   0.486   2.487  0.1901 -0.3899  0.3798
  160OSM    H9S17943   1.643   0.394   2.531 -0.1053 -0.9450 -0.4591
  160OSM    H9T17944   1.491   0.471   2.511  0.3340  0.4005  1.5945
  160OSM   C10S17945   1.639   0.613   2.564 -0.6261 -0.0898 -0.4983
  160OSM   H10S17946   1.586   0.699   2.518 -1.2012  0.5508  1.2705
  160OSM   H10T17947   1.750   0.625   2.557 -0.4347 -1.1585  0.5184
  160OSM   C11S17948   1.601   0.595   2.711 -0.0147 -0.0129  0.6713
  160OSM   H11S17949   1.662   0.508   2.745 -0.0023 -0.5042 -0.5862
  160OSM   H11T17950   1.495   0.568   2.731  0.3289 -2.4185 -0.4360
  160OSM   C12S17951   1.631   0.718   2.799  0.2402 -0.1883 -1.2239
  160OSM   H12S17952   1.558   0.798   2.776 -0.7762 -0.8212 -0.3153
  160OSM   H12T17953   1.735   0.756   2.794  0.0095  1.1752  1.8139
  160OSM   C13S17954   1.607   0.675   2.953 -0.3721  0.6083  0.4761
  160OSM   H13S17955   1.684   0.597   2.969  2.2157  1.8733 -3.9684
  160OSM   H13T17956   1.502   0.637   2.959 -0.4953  0.8914  0.1522
  160OSM   C14S17957   1.611   0.802   3.039  0.3593  0.4192 -0.4955
  160OSM   H14S17958   1.521   0.864   3.018 -0.9933 -1.3177  0.0070
  160OSM   H14T17959   1.695   0.871   3.015  1.7614 -0.8219  0.6816
  160OSM   C15S17960   1.612   0.756   3.187  0.1198 -0.1566 -0.3420
  160OSM   H15S17961   1.706   0.700   3.205  1.6980  2.1676 -0.8154
  160OSM   H15T17962   1.539   0.675   3.208  0.3518 -0.4695 -0.7355
  160OSM   C16S17963   1.598   0.877   3.280  0.2411 -0.2767  0.7166
  160OSM   H16S17964   1.493   0.913   3.284  0.8718  1.5973  1.8000
  160OSM   H16T17965   1.667   0.957   3.246  2.0881 -1.8698  0.5722
  160OSM   C17S17966   1.626   0.825   3.420  0.0056  0.3264  0.4254
  160OSM   H17S17967   1.703   0.745   3.413 -2.1930 -1.7997 -1.6600
  160OSM   H17T17968   1.537   0.766   3.450 -0.9918  1.0832 -0.9586
  160OSM   C18S17969   1.665   0.935   3.514 -0.3964  0.0307  0.8971
  160OSM   H18S17970   1.587   1.014   3.508  0.3897  0.7812  0.2681
  160OSM   H18T17971   1.761   0.975   3.475 -1.1583 -0.1461 -1.2786
  160OSM   H18U17972   1.681   0.906   3.620  2.1370 -0.3041  0.4713
  160OSM    C1F17973   1.187   0.819   2.295  0.0109  0.0904  0.3998
  160OSM     OF17974   1.078   0.759   2.304  0.2178 -0.7569 -0.0380
  160OSM    C2F17975   1.233   0.926   2.396 -0.2539 -0.2104  0.8375
  160OSM    H2F17976   1.173   1.015   2.366  0.3676 -0.1673 -0.3393
  160OSM    H2G17977   1.341   0.948   2.388 -0.7901  2.8484  0.6204
  160OSM    C3F17978   1.193   0.902   2.546 -0.2217  0.5863 -0.4658
  160OSM    H3F17979   1.093   0.856   2.556 -0.8087  1.9615  0.3793
  160OSM    H3G17980   1.182   1.005   2.588 -1.4080  0.3815 -0.2430
  160OSM    C4F17981   1.292   0.815   2.623 -0.7575 -0.0154  0.9509
  160OSM    H4F17982   1.395   0.853   2.608 -0.5836 -1.7911 -4.2554
  160OSM    H4G17983   1.296   0.710   2.586 -1.5505  0.7859 -1.6230
  160OSM    C5F17984   1.268   0.822   2.778  0.7152  0.3073 -0.0640
  160OSM    H5F17985   1.263   0.930   2.804  0.3798  0.4702 -0.7812
  160OSM    H5G17986   1.362   0.781   2.822  1.5092 -0.6771 -2.5422
  160OSM    C6F17987   1.131   0.760   2.833 -0.0562  0.2652 -0.3376
  160OSM    H6F17988   1.157   0.653   2.845 -0.3997  0.2471  0.2539
  160OSM    H6G17989   1.046   0.748   2.763  0.6147 -2.5575 -0.7895
  160OSM    C7F17990   1.093   0.833   2.961 -0.1645  0.0028  0.6828
  160OSM    H7F17991   1.016   0.772   3.012  0.5629 -0.4455  1.2644
  160OSM    H7G17992   1.054   0.935   2.940 -0.0986 -0.1582 -0.2602
  160OSM    C8F17993   1.202   0.850   3.070 -0.5389 -0.1240 -0.5874
  160OSM    H8F17994   1.145   0.900   3.151  0.5258  1.2295 -0.6423
  160OSM    H8G17995   1.289   0.912   3.039 -0.2799  0.4094  1.0933
  160OSM    C9F17996   1.239   0.713   3.125  0.6069  0.2348 -0.7875
  160OSM    H9F17997   1.333   0.672   3.084  1.0951 -1.3602  1.6782
  160OSM   C10F17998   1.190   0.658   3.240  0.4397 -0.0962  0.4938
  160OSM   H10F17999   1.224   0.555   3.255 -2.3403 -1.0776  0.4726
  160OSM   C11F18000   1.072   0.705   3.327 -0.1702  0.8254  0.0730
  160OSM   H11F18001   0.983   0.703   3.261 -1.5901  0.9960  1.9277
  160OSM   H11G18002   1.088   0.809   3.362  1.7268  0.3922  0.6170
  160OSM   C12F18003   1.020   0.609   3.442  0.4938  0.2600 -0.2075
  160OSM   H12F18004   0.987   0.517   3.389  0.5090 -0.1674  0.5184
  160OSM   H12G18005   0.938   0.661   3.496 -0.0015  0.7597 -1.4108
  160OSM   C13F18006   1.132   0.573   3.543  0.4999  0.3660  0.2721
  160OSM   H13F18007   1.163   0.670   3.587 -0.8236  0.5723  0.8014
  160OSM   H13G18008   1.224   0.532   3.496  0.0133  0.7595 -1.0828
  160OSM   C14F18009   1.070   0.485   3.652  0.1784 -0.4568  0.2379
  160OSM   H14F18010   1.017   0.406   3.593  0.1291  0.8558 -1.5854
  160OSM   H14G18011   0.992   0.539   3.710 -0.8489 -1.5433 -0.0987
  160OSM   C15F18012   1.178   0.412   3.741  0.1552 -0.1769 -0.6086
  160OSM   H15F18013   1.262   0.385   3.672 -0.6822 -1.2903 -1.2441
  160OSM   H15G18014   1.145   0.317   3.788 -0.0196 -0.3106 -0.9912
  160OSM   C16F18015   1.249   0.502   3.848  0.0423 -0.1906  0.6946
  160OSM   H16F18016   1.185   0.534   3.933  1.0546  2.8499  0.4557
  160OSM   H16G18017   1.285   0.592   3.794  2.0809 -0.7656  1.0242
  160OSM   C17F18018   1.380   0.444   3.904 -0.3181  0.1529 -0.1316
  160OSM   H17F18019   1.443   0.425   3.814  0.4463 -1.6037  0.7271
  160OSM   H17G18020   1.368   0.342   3.947  0.7905 -1.4026 -3.1904
  160OSM   C18F18021   1.461   0.540   4.004 -0.9702 -0.8167  0.5213
  160OSM   H18F18022   1.393   0.572   4.086 -1.1432  1.0698 -0.3115
  160OSM   H18G18023   1.488   0.625   3.938 -0.4360 -2.1359 -1.0452
  160OSM   H18H18024   1.556   0.492   4.034  0.8224  1.6497 -0.8194
  161OSM      N18025   5.777   5.944   1.471 -0.5617  0.6149 -0.3482
  161OSM    C1518026   5.678   5.840   1.459 -0.4454  0.1886 -0.3265
  161OSM   H15A18027   5.652   5.801   1.556  0.5799  0.5121  0.0876
  161OSM   H15B18028   5.703   5.760   1.391  2.1625  0.3575  0.3225
  161OSM   H15C18029   5.585   5.881   1.423 -0.7180  0.0787  0.2515
  161OSM    C1418030   5.907   5.866   1.494  0.0878 -0.1865 -0.7746
  161OSM   H14A18031   5.936   5.805   1.410 -0.4443  0.1927 -1.2384
  161OSM   H14B18032   5.890   5.807   1.583  0.6376 -1.3548 -1.4126
  161OSM   H14C18033   5.991   5.931   1.511 -0.9000  1.3674 -1.5712
  161OSM    C1318034   5.790   6.014   1.338  0.3941 -0.1197 -0.1259
  161OSM   H13A18035   5.779   5.948   1.253 -0.7936  1.7655 -1.5127
  161OSM   H13B18036   5.883   6.067   1.324 -0.6763  1.3855 -1.9323
  161OSM   H13C18037   5.709   6.083   1.317 -1.6049 -2.4469 -0.5822
  161OSM    C1218038   5.749   6.040   1.587 -0.3345  0.2866  0.5019
  161OSM   H12A18039   5.656   6.090   1.563  0.7701  2.5415  0.6391
  161OSM   H12B18040   5.817   6.124   1.581  2.6292 -2.0433 -1.9744
  161OSM    C1118041   5.739   5.984   1.727  0.3180  0.0690 -0.5722
  161OSM   H11A18042   5.710   6.073   1.786 -0.4426  0.6302 -1.7441
  161OSM   H11B18043   5.838   5.958   1.770 -0.1889  0.3631  0.7943
  161OSM      P18044   5.507   5.901   1.800 -0.0889 -0.0488  0.7697
  161OSM    O1318045   5.441   6.011   1.725 -0.1228  0.4173 -0.0685
  161OSM    O1418046   5.438   5.770   1.804  0.3388  0.2950 -0.4249
  161OSM    O1118047   5.530   5.962   1.946  0.1638  1.1352 -0.1565
  161OSM    O1218048   5.644   5.873   1.738 -0.0889 -0.6389 -0.1583
  161OSM    C1S18049   5.624   5.902   2.035  0.3544  1.0197 -0.1803
  161OSM    H1S18050   5.724   5.902   1.987  1.0051 -0.6396  1.0798
  161OSM    H1T18051   5.597   5.796   2.056  0.3474  1.2118  0.8711
  161OSM     NF18052   5.711   5.907   2.257  0.2024  0.2877 -0.0660
  161OSM    HNF18053   5.667   5.836   2.312 -1.0709  1.6012  0.6831
  161OSM    C2S18054   5.624   5.976   2.168  0.9862  0.6056 -0.1469
  161OSM    H2S18055   5.655   6.081   2.146 -0.5453  1.4288  1.3981
  161OSM    C3S18056   5.480   6.007   2.219  0.5934 -0.1274 -0.2742
  161OSM    H3S18057   5.437   5.904   2.221 -1.8599  0.8237  1.4101
  161OSM     O318058   5.399   6.085   2.129 -0.1657 -0.2310  0.0694
  161OSM    HO318059   5.421   6.050   2.042 -0.2205 -0.4827  0.1553
  161OSM    C4S18060   5.470   6.054   2.364  0.1922  0.2754  0.0403
  161OSM    H4S18061   5.492   5.975   2.437  0.3302  1.6404  1.5183
  161OSM    C5S18062   5.420   6.167   2.414  0.1405 -0.0475 -0.2676
  161OSM    H5S18063   5.384   6.245   2.345  0.0676  0.8687  0.7733
  161OSM    C6S18064   5.389   6.208   2.558  0.2412 -0.3452  0.2807
  161OSM    H6S18065   5.287   6.251   2.569 -0.1000 -1.6534  3.2676
  161OSM    H6T18066   5.467   6.281   2.587 -0.6333  1.1273 -0.9364
  161OSM    C7S18067   5.389   6.094   2.667  0.1647  0.3496 -0.4148
  161OSM    H7S18068   5.473   6.022   2.658 -2.3271 -2.8243 -0.1909
  161OSM    H7T18069   5.290   6.043   2.664 -1.3613  3.0432  0.7371
  161OSM    C8S18070   5.396   6.149   2.806 -0.0636  0.0284 -0.2838
  161OSM    H8S18071   5.320   6.223   2.840 -0.0825 -0.0197 -0.2212
  161OSM    H8T18072   5.493   6.201   2.816  1.1799 -1.3509 -3.8215
  161OSM    C9S18073   5.380   6.033   2.903  0.6987 -0.1786  0.5323
  161OSM    H9S18074   5.466   5.964   2.890  0.0528 -0.9759  0.4064
  161OSM    H9T18075   5.284   5.981   2.882  0.7610  0.2965 -1.0553
  161OSM   C10S18076   5.386   6.082   3.053 -1.0419  0.2092 -0.2234
  161OSM   H10S18077   5.295   6.142   3.074 -0.9016 -0.2608  1.9965
  161OSM   H10T18078   5.472   6.150   3.068 -1.5352  1.1779 -1.6048
  161OSM   C11S18079   5.401   5.967   3.147 -0.0806  0.5259 -0.1989
  161OSM   H11S18080   5.429   6.009   3.247  0.9630  0.2614 -0.3606
  161OSM   H11T18081   5.484   5.898   3.118 -1.1472  0.3178 -3.0236
  161OSM   C12S18082   5.277   5.885   3.165 -0.5392 -0.1097 -0.2576
  161OSM   H12S18083   5.310   5.782   3.191  0.3452  0.2503  0.0759
  161OSM   H12T18084   5.226   5.873   3.067  0.9944 -0.1139 -1.0838
  161OSM   C13S18085   5.180   5.942   3.261  0.1926  0.1086  0.1673
  161OSM   H13S18086   5.130   6.025   3.208  0.3896  0.2643  0.2236
  161OSM   H13T18087   5.241   5.984   3.344 -0.3983  0.2492  0.5380
  161OSM   C14S18088   5.065   5.850   3.305 -0.1229 -0.5777  0.2206
  161OSM   H14S18089   5.108   5.759   3.353  0.3627 -0.9152 -0.8348
  161OSM   H14T18090   5.017   5.811   3.213 -2.4524 -0.4311  1.2818
  161OSM   C15S18091   4.950   5.914   3.388  0.6329 -0.1579 -0.1353
  161OSM   H15S18092   4.862   5.939   3.325  0.5912 -0.4872 -0.2085
  161OSM   H15T18093   4.989   6.014   3.418  1.5736 -0.5736  0.0757
  161OSM   C16S18094   4.895   5.840   3.519 -0.1087  0.8490 -0.2814
  161OSM   H16S18095   4.823   5.914   3.561 -0.4905  1.6208 -2.1691
  161OSM   H16T18096   4.975   5.822   3.593 -0.7908 -0.4632  0.1567
  161OSM   C17S18097   4.838   5.703   3.478 -0.4501 -0.4130  0.0459
  161OSM   H17S18098   4.904   5.645   3.409  1.7408 -0.3402  1.9263
  161OSM   H17T18099   4.740   5.714   3.428  0.3800 -1.1057 -1.8753
  161OSM   C18S18100   4.798   5.623   3.605  0.3904  0.1394  0.3078
  161OSM   H18S18101   4.763   5.525   3.566 -0.5777  0.9283 -0.8900
  161OSM   H18T18102   4.719   5.677   3.661 -0.1631 -1.5233  1.1919
  161OSM   H18U18103   4.886   5.596   3.667  0.9716 -0.4105 -0.7147
  161OSM    C1F18104   5.847   5.901   2.230 -0.1937  0.8812  0.2411
  161OSM     OF18105   5.903   5.988   2.163 -0.6252 -0.1742  0.8258
  161OSM    C2F18106   5.923   5.783   2.284  1.2309 -0.2329  0.6616
  161OSM    H2F18107   5.945   5.716   2.198  1.4099  2.6378 -1.7301
  161OSM    H2G18108   5.848   5.740   2.353 -0.6528  2.0639  0.1963
  161OSM    C3F18109   6.059   5.813   2.351 -0.3926 -0.8445  0.3654
  161OSM    H3F18110   6.106   5.896   2.294 -0.5159  0.2874  1.8482
  161OSM    H3G18111   6.126   5.724   2.358 -0.0243 -0.5198  0.9994
  161OSM    C4F18112   6.039   5.854   2.502 -0.1107  0.1456 -0.5870
  161OSM    H4F18113   5.964   5.785   2.546 -2.5742  2.2693 -1.2256
  161OSM    H4G18114   5.982   5.949   2.510 -1.0270 -0.4843  0.8479
  161OSM    C5F18115   6.174   5.853   2.584  0.7403  0.6222  0.5515
  161OSM    H5F18116   6.233   5.942   2.554 -1.2402  2.1101  0.8455
  161OSM    H5G18117   6.236   5.765   2.556 -1.1737 -0.3540 -0.9319
  161OSM    C6F18118   6.156   5.873   2.737  0.4691 -0.4809  0.0158
  161OSM    H6F18119   6.115   5.779   2.779 -0.3292 -0.0155  0.2986
  161OSM    H6G18120   6.086   5.959   2.749  0.2019 -0.7446  0.3454
  161OSM    C7F18121   6.290   5.900   2.809  0.4094  0.6540  0.5739
  161OSM    H7F18122   6.260   5.961   2.897  2.6830  1.6181  0.7535
  161OSM    H7G18123   6.356   5.969   2.752 -1.9308  0.8811 -2.0957
  161OSM    C8F18124   6.365   5.775   2.857  0.5447 -0.1378 -0.2921
  161OSM    H8F18125   6.405   5.715   2.773  0.2500 -0.6710 -0.0546
  161OSM    H8G18126   6.290   5.709   2.906  0.7483  0.4286  0.8290
  161OSM    C9F18127   6.474   5.801   2.956  0.6250  0.2871  0.7604
  161OSM    H9F18128   6.563   5.843   2.907  0.8713 -0.2120  0.7710
  161OSM   C10F18129   6.474   5.768   3.090  0.3980  0.5613  0.2701
  161OSM   H10F18130   6.566   5.788   3.147 -0.3929  0.4811  1.5937
  161OSM   C11F18131   6.373   5.702   3.180  0.5595  0.1358  0.4422
  161OSM   H11F18132   6.402   5.669   3.282 -0.7704 -0.9697  0.4832
  161OSM   H11G18133   6.334   5.609   3.133 -2.2889  1.0126  0.9078
  161OSM   C12F18134   6.258   5.802   3.207 -0.6301  0.7581 -1.1330
  161OSM   H12F18135   6.184   5.750   3.271 -1.7579  1.7451 -1.6004
  161OSM   H12G18136   6.205   5.837   3.116 -1.1583 -1.1323 -1.6044
  161OSM   C13F18137   6.311   5.922   3.289 -0.6204  0.3631 -0.0672
  161OSM   H13F18138   6.367   5.989   3.220  0.8692 -1.2784 -0.5371
  161OSM   H13G18139   6.380   5.886   3.369 -0.4217 -0.6335 -0.6591
  161OSM   C14F18140   6.202   6.003   3.358 -0.6376 -0.5942 -0.4807
  161OSM   H14F18141   6.122   5.930   3.384 -0.8223 -0.7926 -1.5437
  161OSM   H14G18142   6.161   6.077   3.286  0.9078  1.0762  0.2893
  161OSM   C15F18143   6.254   6.073   3.483  0.4828 -1.1630  0.3642
  161OSM   H15F18144   6.338   6.145   3.466  1.4908 -2.1541  1.0131
  161OSM   H15G18145   6.279   5.995   3.557  0.5151 -1.9128 -0.4266
  161OSM   C16F18146   6.140   6.163   3.543 -0.0906 -0.1836  0.4689
  161OSM   H16F18147   6.039   6.116   3.540  0.7011 -1.9012 -0.8682
  161OSM   H16G18148   6.128   6.253   3.480  2.2790 -0.5375 -0.5641
  161OSM   C17F18149   6.167   6.222   3.688  0.0605 -0.8057 -0.8039
  161OSM   H17F18150   6.147   6.141   3.761  0.9589 -1.2610 -1.0395
  161OSM   H17G18151   6.098   6.307   3.705  1.0113  0.3464 -2.4153
  161OSM   C18F18152   6.311   6.264   3.706  0.4843 -0.8205 -0.4728
  161OSM   H18F18153   6.330   6.310   3.806  0.3089 -2.7248  0.4890
  161OSM   H18G18154   6.356   6.327   3.626  2.6042 -0.5088  0.8850
  161OSM   H18H18155   6.364   6.167   3.697  0.1881 -0.7891 -3.4684
  162OSM      N18156   6.911   5.525   1.618 -0.5430 -0.2687  0.1480
  162OSM    C1518157   7.023   5.532   1.527 -0.4378  0.3484 -0.3922
  162OSM   H15A18158   7.113   5.575   1.567  0.8354 -0.3712 -2.3533
  162OSM   H15B18159   6.999   5.588   1.438 -0.6784 -0.7298 -1.0192
  162OSM   H15C18160   7.043   5.432   1.492 -2.0777  0.5188 -2.0047
  162OSM    C1418161   6.850   5.661   1.645 -0.2519  0.6344 -0.0446
  162OSM   H14A18162   6.784   5.649   1.730  1.9490  0.2781  1.7245
  162OSM   H14B18163   6.806   5.705   1.557  0.3504 -0.3549 -0.8646
  162OSM   H14C18164   6.931   5.723   1.680  1.0510 -0.5641 -0.8192
  162OSM    C1318165   6.797   5.435   1.560  0.7031 -0.1595 -0.3811
  162OSM   H13A18166   6.781   5.458   1.455 -2.3702  1.6786  0.3862
  162OSM   H13B18167   6.708   5.440   1.620  1.3807 -3.0323  1.0529
  162OSM   H13C18168   6.825   5.331   1.565  0.8191 -0.1137 -0.1015
  162OSM    C1218169   6.953   5.463   1.754  0.3487  0.3893 -0.2032
  162OSM   H12A18170   6.870   5.473   1.821  1.1784 -2.5602  1.4047
  162OSM   H12B18171   7.025   5.517   1.814 -0.0987  1.8409 -0.9141
  162OSM    C1118172   7.004   5.320   1.748  0.8274  0.3452 -0.1468
  162OSM   H11A18173   6.941   5.245   1.697  2.1587  0.1678 -1.5809
  162OSM   H11B18174   7.017   5.285   1.853 -1.9936  1.6176  0.7202
  162OSM      P18175   7.266   5.386   1.742 -0.0305  0.4275 -0.3742
  162OSM    O1318176   7.377   5.285   1.739 -0.3045  0.0796 -0.0294
  162OSM    O1418177   7.282   5.501   1.650  0.0370 -0.1674 -0.6491
  162OSM    O1118178   7.230   5.414   1.893  0.0540 -0.0007  0.0565
  162OSM    O1218179   7.132   5.313   1.690  0.3493  0.6498  0.0719
  162OSM    C1S18180   7.334   5.479   1.974  0.8881 -0.4646  0.5730
  162OSM    H1S18181   7.339   5.589   1.958  0.2305 -0.2498  1.7843
  162OSM    H1T18182   7.433   5.430   1.959  2.4412  3.0262 -2.1125
  162OSM     NF18183   7.420   5.549   2.182  0.6007 -0.3748 -0.6629
  162OSM    HNF18184   7.506   5.499   2.191  0.1788 -1.0719 -0.4467
  162OSM    C2S18185   7.310   5.472   2.125 -0.3451 -0.2652  0.1501
  162OSM    H2S18186   7.209   5.515   2.142 -1.4110 -1.9329 -1.5036
  162OSM    C3S18187   7.304   5.332   2.178 -0.3092 -0.3973  0.5673
  162OSM    H3S18188   7.403   5.282   2.168 -1.2471 -2.1393 -0.4086
  162OSM     O318189   7.223   5.246   2.108 -0.1317  0.1059 -0.5898
  162OSM    HO318190   7.202   5.291   2.026 -1.2701 -0.5803 -0.6946
  162OSM    C4S18191   7.279   5.338   2.328  0.1693  0.6050  0.0540
  162OSM    H4S18192   7.336   5.257   2.375 -2.7353 -1.4190  0.3553
  162OSM    C5S18193   7.181   5.408   2.384  0.8158  0.1641 -0.3058
  162OSM    H5S18194   7.126   5.476   2.318 -1.2557 -1.9522 -0.9187
  162OSM    C6S18195   7.145   5.405   2.533 -0.3805  0.2273  0.0149
  162OSM    H6S18196   7.043   5.362   2.543  0.4788 -1.8445  0.3966
  162OSM    H6T18197   7.146   5.510   2.571  0.7360 -0.1270  1.0334
  162OSM    C7S18198   7.240   5.335   2.629  0.7912  0.3754  0.5900
  162OSM    H7S18199   7.336   5.392   2.628  0.8713  0.2428 -0.4720
  162OSM    H7T18200   7.260   5.230   2.598 -1.1265 -0.6994  2.7170
  162OSM    C8S18201   7.186   5.340   2.773  0.0907  0.3505 -0.0875
  162OSM    H8S18202   7.082   5.302   2.776  0.6971 -1.4547 -0.3064
  162OSM    H8T18203   7.168   5.442   2.813  1.5104  0.2522  0.9239
  162OSM    C9S18204   7.268   5.264   2.879 -0.1912 -0.0037  0.4859
  162OSM    H9S18205   7.377   5.273   2.859  0.2310 -0.6418  2.3292
  162OSM    H9T18206   7.242   5.157   2.864  0.4307  0.0920 -1.6675
  162OSM   C10S18207   7.231   5.309   3.018 -0.1375 -0.3686  0.0135
  162OSM   H10S18208   7.130   5.269   3.044 -0.4307  0.1313 -0.3438
  162OSM   H10T18209   7.218   5.419   3.027  0.2450 -0.4551  1.9950
  162OSM   C11S18210   7.315   5.259   3.134  0.2915 -0.5870 -0.2845
  162OSM   H11S18211   7.271   5.293   3.230 -0.0857  1.1456 -1.0298
  162OSM   H11T18212   7.416   5.305   3.133  0.0716 -0.1119 -0.5518
  162OSM   C12S18213   7.324   5.102   3.146 -0.2112  0.1675  0.1801
  162OSM   H12S18214   7.362   5.050   3.056  3.1090  2.6752 -0.0760
  162OSM   H12T18215   7.221   5.066   3.164 -0.2401 -1.0488 -2.0327
  162OSM   C13S18216   7.409   5.046   3.264  0.1459  0.0030 -0.4048
  162OSM   H13S18217   7.519   5.052   3.251  0.2808 -1.6653 -0.2774
  162OSM   H13T18218   7.369   4.944   3.280 -0.6588  0.7279  3.0235
  162OSM   C14S18219   7.393   5.118   3.400 -0.0988 -0.0403 -0.2929
  162OSM   H14S18220   7.289   5.109   3.437 -0.2348  0.3224 -0.5861
  162OSM   H14T18221   7.419   5.226   3.394 -0.1380  0.0562  1.0433
  162OSM   C15S18222   7.498   5.064   3.494 -0.9104 -0.6799 -0.8225
  162OSM   H15S18223   7.487   5.124   3.587 -2.1612 -1.5199 -0.3942
  162OSM   H15T18224   7.596   5.064   3.443  0.2223 -4.1747  1.0057
  162OSM   C16S18225   7.470   4.926   3.542  0.0610  0.7695 -0.4859
  162OSM   H16S18226   7.486   4.850   3.463 -1.1196 -1.5199  1.3328
  162OSM   H16T18227   7.362   4.927   3.571  0.4864  1.4511  1.2108
  162OSM   C17S18228   7.553   4.882   3.661  1.1157 -0.9235  0.2364
  162OSM   H17S18229   7.545   4.952   3.747  2.9961 -1.8423  1.2166
  162OSM   H17T18230   7.660   4.886   3.632  0.8483  1.5745 -0.6892
  162OSM   C18S18231   7.525   4.740   3.714  0.5620 -0.4437 -0.2629
  162OSM   H18S18232   7.546   4.669   3.632 -1.6690 -1.2059 -0.2378
  162OSM   H18T18233   7.419   4.725   3.744  0.2416  0.6509 -0.8111
  162OSM   H18U18234   7.596   4.710   3.794 -0.0415 -0.9956  0.0789
  162OSM    C1F18235   7.422   5.682   2.195  0.5137  0.3453 -0.1189
  162OSM     OF18236   7.321   5.754   2.175 -0.5741  0.5736 -0.0089
  162OSM    C2F18237   7.552   5.738   2.224 -0.1063 -0.4210 -0.5750
  162OSM    H2F18238   7.581   5.817   2.152  1.5511 -1.5162 -1.1631
  162OSM    H2G18239   7.629   5.659   2.228  0.1765 -0.2043 -1.4820
  162OSM    C3F18240   7.545   5.795   2.372  0.4230 -0.3920  0.8941
  162OSM    H3F18241   7.481   5.885   2.363  0.1227 -0.8077 -2.6131
  162OSM    H3G18242   7.644   5.838   2.398  0.9611 -2.3937  2.3969
  162OSM    C4F18243   7.483   5.695   2.478  0.4345 -0.4929  0.4882
  162OSM    H4F18244   7.535   5.599   2.456  0.4219  0.0968 -2.4953
  162OSM    H4G18245   7.372   5.695   2.480  0.4342  0.6439  1.5055
  162OSM    C5F18246   7.527   5.750   2.611 -0.4579  0.0924  0.3200
  162OSM    H5F18247   7.497   5.855   2.631  0.3324  0.5598 -0.8023
  162OSM    H5G18248   7.638   5.747   2.610 -0.4656 -3.0122 -0.4111
  162OSM    C6F18249   7.476   5.673   2.734  0.3915  0.5541 -0.5357
  162OSM    H6F18250   7.481   5.566   2.704  0.3971  0.7509 -1.2742
  162OSM    H6G18251   7.366   5.691   2.740  0.3009 -0.1920  0.1193
  162OSM    C7F18252   7.545   5.702   2.867  0.1282  0.6136 -0.2115
  162OSM    H7F18253   7.520   5.807   2.893 -1.1008  0.3236 -0.2022
  162OSM    H7G18254   7.655   5.685   2.859  0.3501  0.7244  2.0613
  162OSM    C8F18255   7.487   5.619   2.986 -0.2015 -0.0948  0.3005
  162OSM    H8F18256   7.559   5.618   3.070 -0.2191  1.9100  0.3933
  162OSM    H8G18257   7.487   5.516   2.944  0.3932  0.4054 -0.9905
  162OSM    C9F18258   7.349   5.659   3.026 -0.4922 -0.5017  0.7924
  162OSM    H9F18259   7.260   5.612   2.981  0.1236  0.1724 -1.2149
  162OSM   C10F18260   7.320   5.748   3.122 -0.4899  0.5535  0.3244
  162OSM   H10F18261   7.211   5.756   3.133 -0.6680  1.0522 -1.4813
  162OSM   C11F18262   7.426   5.819   3.208  0.2036  0.2350  0.1531
  162OSM   H11F18263   7.494   5.868   3.135 -0.8260  0.8705 -0.3947
  162OSM   H11G18264   7.491   5.749   3.265  1.4106  1.4718  0.3452
  162OSM   C12F18265   7.386   5.929   3.307 -0.4133 -0.5513 -0.2009
  162OSM   H12F18266   7.308   5.986   3.252  0.9357  0.4969 -1.0919
  162OSM   H12G18267   7.467   6.001   3.333 -0.5892 -0.2538 -0.4653
  162OSM   C13F18268   7.334   5.866   3.438  0.1310 -0.4334  0.0547
  162OSM   H13F18269   7.408   5.807   3.495  0.6817 -0.5594 -0.7834
  162OSM   H13G18270   7.248   5.799   3.419  0.4519 -0.2529 -2.4031
  162OSM   C14F18271   7.286   5.981   3.537 -0.2938 -0.1781 -0.0710
  162OSM   H14F18272   7.216   6.031   3.467 -1.3706 -0.4215  0.8036
  162OSM   H14G18273   7.369   6.051   3.560 -0.9503  0.5751  0.0384
  162OSM   C15F18274   7.224   5.930   3.673 -0.4307 -0.3312  0.8295
  162OSM   H15F18275   7.302   5.896   3.744 -0.0610  0.5214  0.8483
  162OSM   H15G18276   7.156   5.844   3.654  0.6354 -0.6803 -1.8009
  162OSM   C16F18277   7.149   6.036   3.750  0.2301  0.0363  0.2854
  162OSM   H16F18278   7.085   6.108   3.695 -1.0186  0.1511  1.7949
  162OSM   H16G18279   7.230   6.089   3.805  0.0385  1.1437 -0.4841
  162OSM   C17F18280   7.046   5.970   3.852  0.0411 -0.0567 -0.0546
  162OSM   H17F18281   7.087   5.875   3.893 -0.4410 -0.8020 -1.2493
  162OSM   H17G18282   6.960   5.940   3.789  1.2355 -0.0608 -1.7520
  162OSM   C18F18283   6.991   6.061   3.961 -0.0659 -0.1999  1.0225
  162OSM   H18F18284   7.070   6.101   4.027 -0.3376  0.0975  1.1671
  162OSM   H18G18285   6.922   6.004   4.026 -1.2792  0.4341  0.3131
  162OSM   H18H18286   6.931   6.141   3.912 -1.1106 -1.1175  0.7652
  163OSM      N18287   5.870   6.668   1.694  0.2804  0.4880 -0.1737
  163OSM    C1518288   5.721   6.687   1.690  1.1083 -0.1215  0.3715
  163OSM   H15A18289   5.688   6.749   1.608 -0.6277 -0.4390  0.7865
  163OSM   H15B18290   5.690   6.741   1.778  2.0475  0.0382  0.6164
  163OSM   H15C18291   5.674   6.591   1.678 -0.8380  0.6363  1.5541
  163OSM    C1418292   5.908   6.561   1.599 -0.0426 -0.4361  0.3252
  163OSM   H14A18293   6.013   6.540   1.612  0.0223  0.8486  2.3480
  163OSM   H14B18294   5.888   6.588   1.497  0.0820  0.7232  0.5949
  163OSM   H14C18295   5.846   6.477   1.627 -1.9025  1.2244  1.5487
  163OSM    C1318296   5.931   6.795   1.656 -0.2613 -0.6103  0.6650
  163OSM   H13A18297   5.932   6.863   1.739  0.9832  2.6410 -1.7832
  163OSM   H13B18298   5.888   6.834   1.565 -1.7204 -0.7918  1.2395
  163OSM   H13C18299   6.035   6.776   1.634 -0.2397  0.9976 -0.8648
  163OSM    C1218300   5.913   6.640   1.837  0.2382 -0.0501  0.3760
  163OSM   H12A18301   5.866   6.553   1.881  0.5788 -1.2713 -1.5836
  163OSM   H12B18302   5.877   6.718   1.903  2.5497  2.0406 -0.6857
  163OSM    C1118303   6.064   6.642   1.862 -0.0938  0.6779  0.1797
  163OSM   H11A18304   6.085   6.646   1.971 -0.7123  1.7444  0.2656
  163OSM   H11B18305   6.100   6.742   1.830  0.8951 -0.2333 -1.7443
  163OSM      P18306   6.142   6.386   1.868  0.3095 -0.2814  0.0547
  163OSM    O1318307   6.128   6.283   1.761 -0.2793 -0.3124  0.1315
  163OSM    O1418308   6.253   6.371   1.963 -0.3079 -0.7139 -0.2414
  163OSM    O1118309   6.006   6.388   1.952 -0.5495  0.1454  0.2900
  163OSM    O1218310   6.134   6.532   1.798  0.1410  0.5985 -0.1125
  163OSM    C1S18311   5.957   6.289   2.049  0.1300  0.1938  0.4030
  163OSM    H1S18312   6.031   6.291   2.132  0.8423  1.4903 -0.2274
  163OSM    H1T18313   5.941   6.185   2.014 -0.5174 -0.2391  1.9072
  163OSM     NF18314   5.785   6.281   2.245  0.2081  0.1580  0.2879
  163OSM    HNF18315   5.707   6.220   2.256  0.3094  0.0995  0.7051
  163OSM    C2S18316   5.817   6.339   2.113  0.2098  0.1118 -0.2387
  163OSM    H2S18317   5.819   6.449   2.122 -1.7018  0.1119  0.6043
  163OSM    C3S18318   5.707   6.318   2.009  0.1567 -0.7776  0.5657
  163OSM    H3S18319   5.687   6.209   2.006 -1.6675 -0.4871  0.7489
  163OSM     O318320   5.755   6.360   1.882  0.2708 -0.4131  0.3626
  163OSM    HO318321   5.847   6.385   1.895  0.0778  0.3011  0.4120
  163OSM    C4S18322   5.567   6.378   2.031 -0.1848  0.4988 -0.2214
  163OSM    H4S18323   5.501   6.325   2.101  0.7989  1.6359  1.6507
  163OSM    C5S18324   5.519   6.487   1.970 -0.4610 -0.7697 -0.0761
  163OSM    H5S18325   5.577   6.551   1.902 -0.6710  0.2391  0.6732
  163OSM    C6S18326   5.382   6.545   2.000 -0.0419  0.3185 -0.2628
  163OSM    H6S18327   5.322   6.465   2.049  0.3874  0.5023  0.5876
  163OSM    H6T18328   5.331   6.565   1.904  0.9152  1.5472 -0.5302
  163OSM    C7S18329   5.384   6.674   2.081  0.3639  0.2959 -0.6360
  163OSM    H7S18330   5.282   6.716   2.084  0.2064 -0.1422  0.6922
  163OSM    H7T18331   5.438   6.746   2.016  1.1782 -0.4497 -0.8127
  163OSM    C8S18332   5.454   6.672   2.217 -0.1381 -0.2122 -0.2202
  163OSM    H8S18333   5.461   6.774   2.260 -2.1672 -0.1303  0.0059
  163OSM    H8T18334   5.557   6.636   2.192 -0.4529  0.2532 -2.3912
  163OSM    C9S18335   5.388   6.589   2.331 -0.9150 -0.0256  1.0444
  163OSM    H9S18336   5.400   6.487   2.290 -1.2229 -0.5201  2.1387
  163OSM    H9T18337   5.278   6.605   2.334 -1.3617 -2.6875  1.3638
  163OSM   C10S18338   5.455   6.606   2.468 -0.2104  0.7503 -0.5693
  163OSM   H10S18339   5.392   6.557   2.545  0.5854 -2.2038 -1.6559
  163OSM   H10T18340   5.449   6.714   2.495  0.2326  0.3496  1.2826
  163OSM   C11S18341   5.607   6.561   2.481  0.2838  0.1220 -0.5568
  163OSM   H11S18342   5.659   6.609   2.395  0.7190  0.9520  0.1535
  163OSM   H11T18343   5.608   6.451   2.469 -0.4187  0.2283 -1.7754
  163OSM   C12S18344   5.659   6.613   2.611  0.2977  0.2147  0.8533
  163OSM   H12S18345   5.609   6.712   2.620  0.7987  0.5329  0.1847
  163OSM   H12T18346   5.769   6.628   2.611  0.1691  1.3695 -0.5449
  163OSM   C13S18347   5.621   6.523   2.734  0.8780 -0.3727 -0.2266
  163OSM   H13S18348   5.715   6.466   2.751  2.4620  2.1344 -0.0265
  163OSM   H13T18349   5.537   6.458   2.701  0.1682  1.0473 -1.3150
  163OSM   C14S18350   5.583   6.610   2.856 -0.7062 -0.6224  1.2329
  163OSM   H14S18351   5.474   6.630   2.852 -0.5481  0.0500 -0.5797
  163OSM   H14T18352   5.652   6.697   2.849 -0.5737 -0.8593 -1.7846
  163OSM   C15S18353   5.600   6.531   2.983  0.4012 -0.6768  0.2214
  163OSM   H15S18354   5.708   6.535   3.010  0.3704 -2.0591  0.5850
  163OSM   H15T18355   5.559   6.428   2.979 -1.5264  0.0374  0.6696
  163OSM   C16S18356   5.518   6.604   3.089  0.1014  0.4895 -0.2374
  163OSM   H16S18357   5.548   6.711   3.086 -0.3146  0.5826 -1.2822
  163OSM   H16T18358   5.550   6.569   3.190 -1.2096  2.0656  0.7941
  163OSM   C17S18359   5.361   6.587   3.089 -0.9086 -0.6999 -0.3842
  163OSM   H17S18360   5.322   6.639   2.999 -0.0557  0.5409 -0.0550
  163OSM   H17T18361   5.329   6.639   3.182  3.4181 -0.0983  0.9939
  163OSM   C18S18362   5.310   6.447   3.089 -0.2086  0.1761 -0.2578
  163OSM   H18S18363   5.355   6.385   3.170 -0.1179  0.4729 -0.0805
  163OSM   H18T18364   5.349   6.395   2.999  1.9073 -1.1462  1.3221
  163OSM   H18U18365   5.200   6.447   3.105 -0.0341 -2.8757  1.8910
  163OSM    C1F18366   5.843   6.299   2.365  0.3168 -0.3220 -0.2377
  163OSM     OF18367   5.942   6.368   2.375  0.1415  0.2313  0.7918
  163OSM    C2F18368   5.783   6.228   2.485 -0.4827 -0.1566 -0.4177
  163OSM    H2F18369   5.788   6.118   2.470 -1.3776  0.0657 -2.9150
  163OSM    H2G18370   5.675   6.255   2.492 -0.0462  1.4179  0.7739
  163OSM    C3F18371   5.864   6.252   2.620  0.2077 -0.1726 -0.2705
  163OSM    H3F18372   5.865   6.362   2.636 -1.2297  0.2683 -2.7660
  163OSM    H3G18373   5.968   6.216   2.608  0.5203 -0.2880  2.2244
  163OSM    C4F18374   5.802   6.178   2.738 -0.1231 -0.0083  0.3551
  163OSM    H4F18375   5.811   6.070   2.713 -1.2365  0.1745 -0.9644
  163OSM    H4G18376   5.692   6.191   2.732 -0.3771 -1.6226  0.8754
  163OSM    C5F18377   5.870   6.197   2.875 -0.6092  0.2725  0.4685
  163OSM    H5F18378   5.913   6.299   2.882  2.6199 -0.8985 -0.5756
  163OSM    H5G18379   5.962   6.135   2.879  0.1550  1.3530 -0.0020
  163OSM    C6F18380   5.775   6.178   2.987  0.1530 -0.4411 -0.4316
  163OSM    H6F18381   5.689   6.109   2.974  0.0607  0.1146 -3.6013
  163OSM    H6G18382   5.721   6.275   2.996 -0.7375 -1.0269  0.9372
  163OSM    C7F18383   5.835   6.175   3.127  0.0250 -0.3382  0.9194
  163OSM    H7F18384   5.898   6.266   3.134  0.8248 -0.6339 -1.4622
  163OSM    H7G18385   5.903   6.088   3.143 -2.0255 -1.8427  1.9947
  163OSM    C8F18386   5.731   6.171   3.240  0.2070  0.1628  0.5127
  163OSM    H8F18387   5.678   6.075   3.221  1.4119  0.1478 -3.8217
  163OSM    H8G18388   5.661   6.257   3.233  0.7787  0.8782  2.9402
  163OSM    C9F18389   5.794   6.168   3.376  0.3368 -0.1188 -0.2138
  163OSM    H9F18390   5.873   6.244   3.388 -2.8673  3.4434  0.5913
  163OSM   C10F18391   5.772   6.083   3.481 -0.9968  0.0044  0.1571
  163OSM   H10F18392   5.846   6.103   3.559 -0.2134  0.0741 -0.5824
  163OSM   C11F18393   5.665   5.986   3.508 -0.5768  0.1985 -0.1977
  163OSM   H11F18394   5.704   5.923   3.591 -0.9140 -0.6505 -0.6640
  163OSM   H11G18395   5.643   5.925   3.418 -2.8932  1.4776 -0.5835
  163OSM   C12F18396   5.538   6.060   3.550 -0.0618 -0.1128  0.7820
  163OSM   H12F18397   5.510   6.130   3.468  1.5267  0.4519  0.6759
  163OSM   H12G18398   5.545   6.118   3.645  3.1606 -0.4504  0.8702
  163OSM   C13F18399   5.429   5.954   3.573  0.4702  0.5628  0.2543
  163OSM   H13F18400   5.412   5.888   3.484 -3.7379  2.5202 -0.6427
  163OSM   H13G18401   5.326   5.996   3.574  0.8521  1.5673 -1.0682
  163OSM   C14F18402   5.439   5.857   3.694 -1.2179  0.0481  0.0151
  163OSM   H14F18403   5.467   5.921   3.780  0.2953  0.5935 -0.8498
  163OSM   H14G18404   5.510   5.777   3.663 -0.7219 -0.3707  2.0692
  163OSM   C15F18405   5.313   5.779   3.709 -0.5735  0.2643 -0.4765
  163OSM   H15F18406   5.342   5.680   3.751 -0.4001  0.4157 -0.2433
  163OSM   H15G18407   5.263   5.760   3.612 -0.7557 -0.8184 -0.1851
  163OSM   C16F18408   5.220   5.846   3.816  0.2163 -0.2544  0.4704
  163OSM   H16F18409   5.177   5.939   3.774 -1.7254 -1.2011  0.2200
  163OSM   H16G18410   5.283   5.883   3.899 -0.5547  0.1176  0.9026
  163OSM   C17F18411   5.101   5.758   3.860 -0.5368 -0.4591  0.6963
  163OSM   H17F18412   5.128   5.650   3.859 -1.2423 -0.6890  2.7626
  163OSM   H17G18413   5.007   5.772   3.801  0.2549 -0.7750 -0.6931
  163OSM   C18F18414   5.054   5.801   3.999 -0.3135 -0.5064 -0.6163
  163OSM   H18F18415   5.006   5.900   3.985  0.8707  0.3856  1.1476
  163OSM   H18G18416   5.139   5.791   4.070 -1.2057 -0.7212  0.4448
  163OSM   H18H18417   4.980   5.724   4.031 -0.0260 -0.6289 -0.2321
  164OSM      N18418   0.099   0.098   2.348  0.2783 -0.0846  0.8829
  164OSM    C1518419   0.015   0.105   2.479 -0.3660  0.3796 -0.1687
  164OSM   H15A18420  -0.015   0.006   2.510  0.0011  0.4457  0.4055
  164OSM   H15B18421  -0.076   0.161   2.468  0.2106  1.1384 -1.4775
  164OSM   H15C18422   0.073   0.142   2.562  1.4768 -3.4942  0.5042
  164OSM    C1418423   0.021   0.018   2.248 -0.4734 -0.6502  0.3740
  164OSM   H14A18424  -0.006  -0.082   2.278 -1.3407 -0.6387 -0.3124
  164OSM   H14B18425   0.068  -0.002   2.153 -2.5063  1.0762 -1.0918
  164OSM   H14C18426  -0.067   0.071   2.216  1.4331  0.6129 -3.3722
  164OSM    C1318427   0.106   0.238   2.308  0.4186  0.4225  1.0373
  164OSM   H13A18428   0.170   0.243   2.221  0.4666 -1.0154  0.9723
  164OSM   H13B18429   0.147   0.303   2.384  2.6391  2.3129 -1.5691
  164OSM   H13C18430   0.011   0.264   2.264  2.0155  0.8961 -2.4693
  164OSM    C1218431   0.233   0.051   2.376 -0.0127  0.0434  0.3473
  164OSM   H12A18432   0.237  -0.028   2.449  2.1872  0.0364  0.2769
  164OSM   H12B18433   0.298   0.133   2.403  1.6164 -0.9049 -0.5378
  164OSM    C1118434   0.313   0.000   2.258  0.5102  0.2304  0.0889
  164OSM   H11A18435   0.248  -0.059   2.191  0.1647  0.0976  0.5318
  164OSM   H11B18436   0.384  -0.076   2.297  0.9219  1.3036  1.5438
  164OSM      P18437   0.517   0.084   2.132 -0.3638 -0.0495  0.1670
  164OSM    O1318438   0.530  -0.052   2.071  0.1250  0.3858 -0.2471
  164OSM    O1418439   0.542   0.188   2.029  0.3292 -0.0068 -1.0122
  164OSM    O1118440   0.613   0.100   2.251 -0.3527 -0.5369  0.3580
  164OSM    O1218441   0.374   0.113   2.187  0.3004  0.4931  0.0535
  164OSM    C1S18442   0.654   0.225   2.316 -0.7741  0.3840  0.3253
  164OSM    H1S18443   0.602   0.244   2.412 -1.1548 -2.3025  0.7272
  164OSM    H1T18444   0.649   0.316   2.252  1.1905  0.7648  0.6492
  164OSM     NF18445   0.842   0.318   2.465 -0.6799 -0.2100  0.0411
  164OSM    HNF18446   0.870   0.412   2.443  0.0676 -0.8211 -1.8640
  164OSM    C2S18447   0.811   0.221   2.356 -0.4811 -0.5384 -0.4057
  164OSM    H2S18448   0.824   0.125   2.409 -0.8541  1.6045  4.0387
  164OSM    C3S18449   0.911   0.220   2.238  0.5285  0.2466  0.1863
  164OSM    H3S18450   0.895   0.316   2.186 -1.5532  0.7992  1.7059
  164OSM     O318451   0.882   0.113   2.146 -0.4703  0.0159 -0.4784
  164OSM    HO318452   0.798   0.080   2.180  1.0115 -1.8029  1.6050
  164OSM    C4S18453   1.054   0.209   2.293  0.4905  0.0281  0.6504
  164OSM    H4S18454   1.092   0.310   2.314 -0.0587  0.0706  1.5048
  164OSM    C5S18455   1.126   0.102   2.321 -0.3728  1.1163 -0.4186
  164OSM    H5S18456   1.084  -0.000   2.317 -0.5072  1.0465  1.5434
  164OSM    C6S18457   1.256   0.089   2.378  0.3105 -0.9904 -0.6136
  164OSM    H6S18458   1.330   0.081   2.296  1.5551 -1.0833  0.4762
  164OSM    H6T18459   1.270  -0.004   2.438  1.8529 -0.6171 -0.3356
  164OSM    C7S18460   1.308   0.202   2.474 -1.1826 -0.2970 -0.0091
  164OSM    H7S18461   1.290   0.302   2.429  1.6913  1.1512  1.7876
  164OSM    H7T18462   1.416   0.184   2.461 -1.1035  0.1914 -0.0354
  164OSM    C8S18463   1.251   0.196   2.611 -0.4271  1.0376  0.1971
  164OSM    H8S18464   1.256   0.095   2.657 -1.2741  0.4598 -0.9306
  164OSM    H8T18465   1.142   0.215   2.602 -0.8682 -1.7327 -2.3083
  164OSM    C9S18466   1.330   0.288   2.702  0.1488 -0.5409  0.0316
  164OSM    H9S18467   1.306   0.395   2.685 -1.4358 -0.0871  3.9289
  164OSM    H9T18468   1.436   0.261   2.685 -0.9931 -3.8617 -3.2782
  164OSM   C10S18469   1.304   0.271   2.854 -0.2195 -0.1422  0.8865
  164OSM   H10S18470   1.379   0.326   2.915  1.6382  0.3122 -1.6599
  164OSM   H10T18471   1.319   0.167   2.889  1.6433 -0.0915  0.3411
  164OSM   C11S18472   1.168   0.332   2.895 -0.0858  0.8931  0.1765
  164OSM   H11S18473   1.106   0.349   2.804 -2.7134 -0.8455  1.4815
  164OSM   H11T18474   1.192   0.431   2.938  0.5017  0.5150  0.7277
  164OSM   C12S18475   1.100   0.251   3.003  0.5035  0.6645  0.0135
  164OSM   H12S18476   1.103   0.145   2.971 -1.3316  0.8530 -0.9561
  164OSM   H12T18477   0.994   0.280   3.021  1.2005  3.0055  0.7266
  164OSM   C13S18478   1.165   0.257   3.139 -0.7592  0.4322  0.2280
  164OSM   H13S18479   1.172   0.365   3.163 -1.5828  1.4082 -3.2387
  164OSM   H13T18480   1.273   0.238   3.123 -0.3187  3.3794 -1.0711
  164OSM   C14S18481   1.109   0.169   3.256 -0.0881 -0.3357  0.2313
  164OSM   H14S18482   1.064   0.076   3.216 -3.3884  0.6959  1.2383
  164OSM   H14T18483   1.017   0.221   3.291 -0.5787 -0.7646 -0.3966
  164OSM   C15S18484   1.200   0.148   3.377 -0.1932 -0.5861 -0.4336
  164OSM   H15S18485   1.212   0.247   3.425 -0.5433 -1.9076  2.6117
  164OSM   H15T18486   1.303   0.112   3.356 -0.5624 -2.7088  1.0740
  164OSM   C16S18487   1.157   0.051   3.486  0.1518 -1.0600 -0.9990
  164OSM   H16S18488   1.140  -0.054   3.454  1.3128 -1.4921 -0.2561
  164OSM   H16T18489   1.061   0.087   3.528  0.1374 -1.4256 -0.7149
  164OSM   C17S18490   1.263   0.045   3.599 -0.2663  0.0978 -0.3963
  164OSM   H17S18491   1.327   0.135   3.605  0.1589 -0.2720  1.1871
  164OSM   H17T18492   1.340  -0.034   3.583  0.3902  0.5265  0.5219
  164OSM   C18S18493   1.195   0.041   3.738  0.2320  0.0562  0.4148
  164OSM   H18S18494   1.263   0.049   3.825  2.0604 -0.1471 -0.9404
  164OSM   H18T18495   1.126  -0.042   3.765  0.9442 -0.1460  1.6703
  164OSM   H18U18496   1.129   0.131   3.744 -0.8810 -0.6126 -1.0480
  164OSM    C1F18497   0.800   0.302   2.590 -0.6611 -0.3932 -0.4618
  164OSM     OF18498   0.738   0.198   2.618  0.0933  0.2715 -0.4316
  164OSM    C2F18499   0.846   0.401   2.697 -0.4086 -0.4263 -0.2370
  164OSM    H2F18500   0.935   0.457   2.660 -1.0468  1.2601  0.6719
  164OSM    H2G18501   0.885   0.332   2.775 -0.8969 -0.8693 -0.3774
  164OSM    C3F18502   0.736   0.487   2.749  0.2511  0.4410  0.2024
  164OSM    H3F18503   0.641   0.433   2.771  0.1271  1.1876  1.5940
  164OSM    H3G18504   0.717   0.570   2.678 -2.5167  1.7987  2.3083
  164OSM    C4F18505   0.771   0.557   2.878 -0.1620  0.2565  0.3606
  164OSM    H4F18506   0.696   0.637   2.897 -0.9781 -0.0283 -1.4716
  164OSM    H4G18507   0.861   0.618   2.862 -0.7624  1.3044  0.8835
  164OSM    C5F18508   0.782   0.465   3.003  0.3148 -0.0097  0.5076
  164OSM    H5F18509   0.892   0.464   3.021  0.2721 -0.1909  0.7615
  164OSM    H5G18510   0.751   0.364   2.970  3.3019 -0.0278 -2.8523
  164OSM    C6F18511   0.717   0.524   3.135  0.1735  0.2839 -0.5986
  164OSM    H6F18512   0.782   0.613   3.145  0.5992 -0.2061  1.4883
  164OSM    H6G18513   0.732   0.459   3.224 -0.9244  2.8789  1.5995
  164OSM    C7F18514   0.569   0.550   3.120  0.1759 -0.3860 -0.3629
  164OSM    H7F18515   0.498   0.468   3.095 -3.0921  1.9037  0.6450
  164OSM    H7G18516   0.560   0.612   3.028 -2.3323 -2.9752 -2.0552
  164OSM    C8F18517   0.492   0.622   3.232 -0.4544 -0.1407  0.2699
  164OSM    H8F18518   0.482   0.553   3.318  0.6007 -0.1936  0.3533
  164OSM    H8G18519   0.387   0.652   3.210 -1.1592 -1.0478  2.2368
  164OSM    C9F18520   0.565   0.742   3.286 -0.2943  0.9178  0.3597
  164OSM    H9F18521   0.592   0.815   3.208  1.6047 -1.1544 -1.0552
  164OSM   C10F18522   0.576   0.777   3.414  0.1714  0.0801  0.1840
  164OSM   H10F18523   0.613   0.877   3.441 -0.6101  0.2596  0.6336
  164OSM   C11F18524   0.537   0.697   3.532 -0.8733 -0.8843  0.3987
  164OSM   H11F18525   0.453   0.627   3.509 -1.8130  0.2483  0.2516
  164OSM   H11G18526   0.494   0.766   3.609  1.2157  2.2174 -1.0025
  164OSM   C12F18527   0.653   0.613   3.596 -0.1737  0.3647  0.6419
  164OSM   H12F18528   0.746   0.670   3.617  1.3130 -1.7762  0.1782
  164OSM   H12G18529   0.672   0.551   3.506 -1.3304  2.0881 -0.8728
  164OSM   C13F18530   0.615   0.533   3.726 -0.1099 -0.0463  0.9150
  164OSM   H13F18531   0.628   0.596   3.816 -0.4666 -0.5039  1.2907
  164OSM   H13G18532   0.678   0.442   3.739 -0.3358 -0.3722 -0.1110
  164OSM   C14F18533   0.471   0.482   3.732  0.2537 -0.0238  0.4420
  164OSM   H14F18534   0.449   0.415   3.647 -1.8315  1.4436 -0.2588
  164OSM   H14G18535   0.397   0.564   3.722 -0.7216 -1.0458 -1.1311
  164OSM   C15F18536   0.438   0.423   3.868 -0.7493 -0.1890 -0.2503
  164OSM   H15F18537   0.446   0.506   3.941  2.0966 -0.9278  0.3928
  164OSM   H15G18538   0.519   0.352   3.895  1.7600  1.7784 -2.1154
  164OSM   C16F18539   0.299   0.355   3.869  0.5747  0.6581 -0.1739
  164OSM   H16F18540   0.281   0.283   3.786 -2.8590 -3.2670  3.4873
  164OSM   H16G18541   0.215   0.426   3.859 -1.0452 -1.3586 -1.8219
  164OSM   C17F18542   0.273   0.266   3.997 -0.1105 -0.1599  0.0006
  164OSM   H17F18543   0.172   0.220   3.989 -1.3175  2.2217  0.6254
  164OSM   H17G18544   0.279   0.329   4.089  1.6263 -0.6486  0.2580
  164OSM   C18F18545   0.367   0.144   3.996  0.0745 -0.3252 -0.1213
  164OSM   H18F18546   0.471   0.164   4.028  0.4425 -0.1488 -1.3756
  164OSM   H18G18547   0.380   0.099   3.895  2.8662 -0.3736  0.1861
  164OSM   H18H18548   0.315   0.061   4.048  0.0050  0.8003  1.6832
  165SAPS     N18549   4.719   4.579   6.184 -0.0471  0.2739  0.5763
  165SAPS   HN118550   4.665   4.566   6.095 -1.0267  0.1897  1.1710
  165SAPS   HN218551   4.709   4.505   6.255 -1.2370  0.8914  1.0844
  165SAPS   HN318552   4.698   4.670   6.230  0.9974 -0.7957  3.3234
  165SAPS   C1218553   4.870   4.598   6.142  0.5737 -0.2403  0.3931
  165SAPS  H12A18554   4.872   4.654   6.050 -1.6099 -0.2643  0.2753
  165SAPS   C1318555   4.964   4.669   6.238 -0.2068 -0.3804 -0.1673
  165SAPS  O13A18556   4.920   4.710   6.349  0.0710 -0.1800  0.1222
  165SAPS  O13B18557   5.071   4.715   6.196  0.0072  0.4834 -0.2117
  165SAPS   C1118558   4.920   4.458   6.102 -0.2923 -0.0805 -0.5729
  165SAPS  H11A18559   4.935   4.397   6.194 -2.9453  0.4051  0.2851
  165SAPS  H11B18560   5.023   4.476   6.064 -1.3553  0.6838 -3.3313
  165SAPS     P18561   4.897   4.282   5.906  0.2200 -0.0905  0.0152
  165SAPS   O1318562   4.967   4.181   5.983 -0.6395  0.5525 -0.0858
  165SAPS   O1418563   4.780   4.230   5.833 -0.1976 -0.5187  0.4150
  165SAPS   O1218564   4.838   4.386   6.010 -0.3786 -0.7523  0.1663
  165SAPS   O1118565   4.993   4.367   5.807 -0.7702 -0.8196 -0.1767
  165SAPS    C118566   4.991   4.328   5.666  0.1987  0.0122 -0.3999
  165SAPS    HA18567   5.090   4.286   5.638 -1.5970 -3.7629 -1.8924
  165SAPS    HB18568   4.924   4.245   5.635  2.9728 -1.2791 -3.4609
  165SAPS    C218569   4.948   4.447   5.573 -0.2002  0.1320  0.2307
  165SAPS    HS18570   4.951   4.413   5.467 -4.2008  1.1490 -0.3413
  165SAPS   O2118571   5.022   4.566   5.594  0.5100 -0.1576 -0.0521
  165SAPS   C2118572   5.147   4.558   5.556  0.1683 -0.4172 -0.0831
  165SAPS   O2218573   5.213   4.468   5.516 -0.3161  0.5075  0.4017
  165SAPS   C2218574   5.213   4.692   5.577 -0.1961 -0.5662 -0.5653
  165SAPS   H2R18575   5.149   4.773   5.534 -2.4752 -1.7274  0.4901
  165SAPS   H2S18576   5.210   4.700   5.687 -1.0241  0.1331 -0.6231
  165SAPS    C318577   4.796   4.472   5.587  0.1288  0.4663  0.6440
  165SAPS    HX18578   4.780   4.495   5.694  2.1425 -0.9235  1.3128
  165SAPS    HY18579   4.734   4.380   5.578  1.4659 -0.3729 -0.4420
  165SAPS   O3118580   4.745   4.559   5.483 -0.4914 -0.0811 -0.0531
  165SAPS   C3118581   4.727   4.687   5.522  0.0797  0.0371 -0.8865
  165SAPS   O3218582   4.737   4.726   5.638  0.0966  0.0407  0.0634
  165SAPS   C3218583   4.709   4.780   5.404  0.4221  1.2071  0.0576
  165SAPS   H2X18584   4.770   4.870   5.425  3.2158 -0.7896  1.0929
  165SAPS   H2Y18585   4.600   4.803   5.399  0.1782 -0.0370 -1.0098
  165SAPS   C2318586   5.358   4.704   5.532 -0.1293  0.3928 -0.4218
  165SAPS   H3R18587   5.375   4.654   5.435 -1.7534  0.4643 -0.7625
  165SAPS   H3S18588   5.436   4.671   5.604 -1.1807 -0.3811  0.3961
  165SAPS   C2418589   5.397   4.851   5.508  0.2224  0.6181  0.5040
  165SAPS   H4R18590   5.374   4.899   5.605 -0.2526  0.1581  0.6255
  165SAPS   H4S18591   5.326   4.893   5.433 -0.8869 -2.5766 -0.4049
  165SAPS   C2518592   5.543   4.868   5.480 -0.6243  0.3440  0.0243
  165SAPS   H5R18593   5.613   4.859   5.564 -0.8137  0.2282  0.1694
  165SAPS   C2618594   5.603   4.871   5.359  0.3608 -1.1498  0.1640
  165SAPS   H6R18595   5.712   4.885   5.346  0.0462  0.7393 -0.7221
  165SAPS   C2718596   5.526   4.880   5.232  0.4760  0.0090 -0.1161
  165SAPS   H7R18597   5.513   4.989   5.215  2.1273  0.3951  0.8019
  165SAPS   H7S18598   5.425   4.835   5.242 -0.5845  2.6122  2.3529
  165SAPS   C2818599   5.604   4.805   5.127 -0.2820  0.1225  0.3297
  165SAPS   H8R18600   5.658   4.716   5.163 -0.6523 -0.1577  0.1957
  165SAPS   C2918601   5.612   4.851   4.998 -0.1613 -0.2320 -0.4392
  165SAPS   H9R18602   5.671   4.793   4.926  2.1430  0.5353  0.7085
  165SAPS  C21018603   5.551   4.965   4.923  0.3066 -0.0215  0.0470
  165SAPS  H10R18604   5.470   5.011   4.984 -1.0576 -0.4293 -1.3746
  165SAPS  H10S18605   5.509   4.929   4.827 -2.9047 -1.0935  1.6804
  165SAPS  C21118606   5.650   5.081   4.920  1.1208  0.0195  0.8887
  165SAPS  H11R18607   5.744   5.087   4.977  0.6172  2.0006  1.5742
  165SAPS  C21218608   5.631   5.185   4.830 -0.1549  0.9965 -0.0925
  165SAPS  H12R18609   5.699   5.271   4.839  1.2254 -0.0898  0.1570
  165SAPS  C21318610   5.522   5.209   4.730  0.5535  0.3411 -0.0474
  165SAPS  H13R18611   5.492   5.314   4.752 -1.4164 -0.0975 -0.4793
  165SAPS  H13S18612   5.437   5.139   4.748  0.1772  0.5090 -1.0771
  165SAPS  C21418613   5.558   5.203   4.583 -0.0678 -0.6856 -0.4006
  165SAPS  H14R18614   5.630   5.125   4.554 -1.7011 -1.5042 -2.4906
  165SAPS  C21518615   5.471   5.246   4.492  0.4244  0.2549  0.8009
  165SAPS  H15R18616   5.484   5.233   4.384 -0.2204 -1.7853  0.9157
  165SAPS  C21618617   5.344   5.329   4.534 -0.3061 -0.2331 -0.3686
  165SAPS  H16R18618   5.386   5.427   4.563 -1.1624 -0.2414  0.9514
  165SAPS  H16S18619   5.289   5.275   4.614  1.3811 -0.4492  0.7014
  165SAPS  C21718620   5.249   5.332   4.414  0.2343 -0.4682 -0.6232
  165SAPS  H17R18621   5.153   5.375   4.450  0.6597  0.2179 -0.3010
  165SAPS  H17S18622   5.224   5.225   4.395 -1.1134 -0.4476  0.8134
  165SAPS  C21818623   5.303   5.403   4.289 -0.3352 -0.2009 -0.4276
  165SAPS  H18R18624   5.364   5.320   4.247 -0.3883  0.9766 -3.0288
  165SAPS  H18S18625   5.362   5.494   4.316 -1.9232  0.5966  0.5259
  165SAPS  C21918626   5.202   5.435   4.176 -0.0206  0.1360  0.0525
  165SAPS  H19R18627   5.173   5.341   4.125 -2.0096 -0.1296  1.5907
  165SAPS  H19S18628   5.257   5.500   4.104  0.8617  0.4911  1.0242
  165SAPS  C22018629   5.072   5.509   4.230  0.5240 -0.5779  0.1216
  165SAPS  H20R18630   4.996   5.521   4.150  0.0327 -1.1238  0.4978
  165SAPS  H20S18631   5.102   5.607   4.273  1.8101 -1.2969  0.9138
  165SAPS  H20T18632   5.021   5.451   4.310 -0.0653  0.1018  0.2454
  165SAPS   C3318633   4.737   4.716   5.264 -0.3998 -0.2890 -0.0989
  165SAPS   H3X18634   4.668   4.630   5.251  0.2785 -0.4943 -2.9601
  165SAPS   H3Y18635   4.843   4.683   5.257 -0.7453 -1.5685  0.4875
  165SAPS   C3418636   4.707   4.824   5.155 -0.0713 -0.2803  0.2161
  165SAPS   H4X18637   4.784   4.903   5.162  0.6229 -0.7979 -1.0894
  165SAPS   H4Y18638   4.610   4.876   5.175 -0.1781  0.2437 -1.4907
  165SAPS   C3518639   4.707   4.775   5.005  0.5673  0.1039  0.6179
  165SAPS   H5X18640   4.607   4.740   4.973 -0.6326 -0.3826  4.4658
  165SAPS   H5Y18641   4.786   4.697   5.006  1.1919  0.6039  3.9446
  165SAPS   C3618642   4.763   4.881   4.904  0.0258 -0.0018 -0.2315
  165SAPS   H6X18643   4.874   4.876   4.897 -0.0230 -4.3512 -0.3874
  165SAPS   H6Y18644   4.724   4.978   4.941  0.4979  0.0986  0.0076
  165SAPS   C3718645   4.706   4.858   4.756  0.0311 -0.1027  0.3980
  165SAPS   H7X18646   4.597   4.842   4.764 -0.0181  0.3853  0.7977
  165SAPS   H7Y18647   4.755   4.762   4.727 -1.4260 -0.3396 -1.4449
  165SAPS   C3818648   4.751   4.972   4.663  0.6879  0.1009 -0.0721
  165SAPS   H8X18649   4.861   4.978   4.646  0.7377 -2.1418 -0.8159
  165SAPS   H8Y18650   4.726   5.066   4.717  1.6825  0.7076 -0.6462
  165SAPS   C3918651   4.682   4.958   4.526  1.0237 -0.0848  0.2391
  165SAPS   H9X18652   4.637   4.856   4.519  0.6681  0.1598 -1.2920
  165SAPS   H9Y18653   4.755   4.967   4.443 -1.2166 -0.2576 -1.8605
  165SAPS  C31018654   4.576   5.068   4.506 -0.4435  0.0894 -0.6970
  165SAPS  H10X18655   4.630   5.165   4.501 -0.9077  0.3904 -0.0435
  165SAPS  H10Y18656   4.495   5.075   4.581 -0.6320 -2.0296 -0.6320
  165SAPS  C31118657   4.506   5.053   4.373  0.4415 -0.0854  0.5299
  165SAPS  H11X18658   4.450   4.960   4.349  1.6808 -0.5338 -0.7699
  165SAPS  H11Y18659   4.581   5.051   4.291  0.4536  1.8688  0.4473
  165SAPS  C31218660   4.407   5.172   4.357 -0.0738  0.2106  0.3034
  165SAPS  H12X18661   4.464   5.261   4.390 -1.2759  2.0495 -2.2548
  165SAPS  H12Y18662   4.332   5.153   4.437 -0.5223  0.3405 -0.0838
  165SAPS  C31318663   4.354   5.192   4.213  0.5331  0.4150  0.1622
  165SAPS  H13X18664   4.291   5.108   4.178  3.2559 -1.6040 -0.2711
  165SAPS  H13Y18665   4.441   5.186   4.144  0.0861  1.7182 -0.5656
  165SAPS  C31418666   4.285   5.326   4.185 -1.2072 -0.0115  0.9401
  165SAPS  H14X18667   4.272   5.338   4.075 -0.4682 -1.2680  0.7000
  165SAPS  H14Y18668   4.355   5.407   4.217 -0.3606 -0.1818 -0.4146
  165SAPS  C31518669   4.155   5.340   4.264  0.0155  0.0142  0.5395
  165SAPS  H15X18670   4.185   5.325   4.370 -0.8105 -0.7973  0.6663
  165SAPS  H15Y18671   4.078   5.260   4.263  0.3621 -0.3474  1.4006
  165SAPS  C31618672   4.103   5.483   4.251 -0.0221 -0.3852 -0.2567
  165SAPS  H16X18673   4.187   5.541   4.296 -0.2069 -2.1763  2.6631
  165SAPS  H16Y18674   4.013   5.504   4.314 -0.2793 -1.6959 -0.1701
  165SAPS  C31718675   4.084   5.543   4.113  0.2947 -0.2822 -0.0289
  165SAPS  H17X18676   4.180   5.531   4.059  1.3234 -1.6844  1.9687
  165SAPS  H17Y18677   4.058   5.651   4.115  3.2594  0.5002  0.2079
  165SAPS  C31818678   3.987   5.456   4.035  0.8823  0.1262  0.5454
  165SAPS  H18X18679   3.882   5.486   4.056  1.0160 -0.5035  2.2752
  165SAPS  H18Y18680   3.980   5.350   4.068  2.0666  0.9464  3.8459
  165SAPS  H18Z18681   3.995   5.461   3.924 -0.8973  1.0038  0.4177
  166SAPS     N18682   1.819   5.387   6.512  0.4458  0.4921 -0.1168
  166SAPS   HN118683   1.866   5.355   6.424 -0.9855 -0.9110 -0.4143
  166SAPS   HN218684   1.824   5.491   6.509  2.2197  0.4974  1.0473
  166SAPS   HN318685   1.864   5.365   6.603  0.2750  3.6539  0.8493
  166SAPS   C1218686   1.670   5.355   6.521  0.1515  0.4708  0.1270
  166SAPS  H12A18687   1.658   5.248   6.514  1.6028  0.1916  1.4187
  166SAPS   C1318688   1.593   5.394   6.645  0.2037  0.1008 -0.0186
  166SAPS  O13A18689   1.648   5.453   6.743 -0.0535 -0.0574  0.0952
  166SAPS  O13B18690   1.466   5.378   6.637  0.1396 -0.5326 -0.1941
  166SAPS   C1118691   1.609   5.428   6.397  0.5586  0.1156  0.3539
  166SAPS  H11A18692   1.641   5.535   6.394 -1.5373  0.7640 -0.3789
  166SAPS  H11B18693   1.499   5.438   6.411  0.9585  1.6058  3.1529
  166SAPS     P18694   1.531   5.328   6.162 -0.3038 -0.1341 -0.2529
  166SAPS   O1318695   1.500   5.184   6.189  0.3061 -0.1791 -0.6659
  166SAPS   O1418696   1.411   5.419   6.172 -0.0989 -0.5198 -0.2808
  166SAPS   O1218697   1.643   5.372   6.273  0.3622  0.1453  0.0579
  166SAPS   O1118698   1.612   5.348   6.028 -0.1341  0.4765 -0.0916
  166SAPS    C118699   1.560   5.327   5.897  0.7635  0.0528 -0.1814
  166SAPS    HA18700   1.451   5.306   5.897  1.0978 -1.9714  0.5962
  166SAPS    HB18701   1.581   5.417   5.836  0.0842 -1.2906 -2.5270
  166SAPS    C218702   1.635   5.216   5.827 -1.0029 -0.2067  0.7994
  166SAPS    HS18703   1.638   5.133   5.900 -0.0817 -0.3116  0.6560
  166SAPS   O2118704   1.760   5.264   5.767 -0.3235  0.3325 -0.3803
  166SAPS   C2118705   1.862   5.186   5.752 -0.1429 -0.2114  0.4282
  166SAPS   O2218706   1.869   5.076   5.807  0.1964  0.4178 -1.0363
  166SAPS   C2218707   1.965   5.251   5.662  0.2122 -0.5620  0.5037
  166SAPS   H2R18708   2.008   5.336   5.720 -1.0946  0.5270 -0.0656
  166SAPS   H2S18709   2.043   5.177   5.634  0.4961  0.1529 -0.7080
  166SAPS    C318710   1.560   5.159   5.708 -0.4747 -0.7463  0.1041
  166SAPS    HX18711   1.548   5.236   5.629 -1.5410  0.2252  1.1684
  166SAPS    HY18712   1.452   5.148   5.734 -0.5307  1.3755  0.9991
  166SAPS   O3118713   1.618   5.033   5.656 -0.3842  0.5576 -0.1689
  166SAPS   C3118714   1.564   4.918   5.709 -0.3789 -0.2355  0.0679
  166SAPS   O3218715   1.475   4.923   5.793 -0.5501  0.2988 -0.1382
  166SAPS   C3218716   1.632   4.793   5.671  0.1601 -0.3994  0.4726
  166SAPS   H2X18717   1.641   4.727   5.760 -0.2889 -2.5560 -0.9974
  166SAPS   H2Y18718   1.726   4.819   5.618  0.2938 -3.6970 -1.1552
  166SAPS   C2318719   1.903   5.306   5.535  0.6759  0.4050  0.4208
  166SAPS   H3R18720   1.978   5.374   5.490  0.3582  0.0848 -0.6185
  166SAPS   H3S18721   1.811   5.360   5.566 -0.1126 -2.4128  3.5783
  166SAPS   C2418722   1.872   5.199   5.428 -0.7481  0.1601 -0.1369
  166SAPS   H4R18723   1.828   5.109   5.475  1.7297 -2.1145 -1.8686
  166SAPS   H4S18724   1.970   5.168   5.385 -0.8069  1.8928 -1.6288
  166SAPS   C2518725   1.784   5.246   5.316  0.0552 -0.3730  0.9396
  166SAPS   H5R18726   1.699   5.312   5.335  0.8076  1.0562 -0.3700
  166SAPS   C2618727   1.798   5.225   5.185  0.2818  0.2648 -0.2671
  166SAPS   H6R18728   1.720   5.263   5.117 -1.8954 -2.4491  0.4805
  166SAPS   C2718729   1.908   5.148   5.113 -0.0789 -0.3406  0.0336
  166SAPS   H7R18730   1.992   5.122   5.180  0.4055  0.3161 -0.3033
  166SAPS   H7S18731   1.948   5.214   5.032 -0.1162 -0.9564 -0.4928
  166SAPS   C2818732   1.850   5.023   5.049  0.0442 -0.7477  0.1830
  166SAPS   H8R18733   1.845   4.944   5.125 -1.5575  0.3748  1.3238
  166SAPS   C2918734   1.832   4.992   4.920  0.2650  0.2481 -0.4078
  166SAPS   H9R18735   1.789   4.895   4.888  0.3221 -0.2368  0.9282
  166SAPS  C21018736   1.858   5.087   4.807  0.3863 -0.7224 -0.1554
  166SAPS  H10R18737   1.904   5.037   4.720 -1.4013 -0.8367 -1.0762
  166SAPS  H10S18738   1.941   5.156   4.836  0.1640 -0.8228  0.7617
  166SAPS  C21118739   1.746   5.181   4.774  1.0346  0.6060  0.1244
  166SAPS  H11R18740   1.693   5.223   4.861 -0.0472  0.0429 -0.2456
  166SAPS  C21218741   1.695   5.210   4.651  0.0593 -0.1989  0.0034
  166SAPS  H12R18742   1.622   5.292   4.648  1.1235  0.9490  2.5458
  166SAPS  C21318743   1.764   5.166   4.515  0.3892 -0.4956 -0.4206
  166SAPS  H13R18744   1.833   5.081   4.532 -1.9973 -2.2834  1.1576
  166SAPS  H13S18745   1.811   5.261   4.484 -0.4847 -0.0176 -0.3289
  166SAPS  C21418746   1.660   5.126   4.418 -0.5347 -0.6241 -0.4841
  166SAPS  H14R18747   1.593   5.046   4.454  1.2791 -2.0619 -0.1148
  166SAPS  C21518748   1.632   5.177   4.301 -0.0707  0.5928 -0.8920
  166SAPS  H15R18749   1.554   5.132   4.236 -0.5998  0.2560 -0.0367
  166SAPS  C21618750   1.702   5.289   4.230 -0.0808  0.0954 -0.3411
  166SAPS  H16R18751   1.795   5.331   4.274  0.6292 -1.7314  0.0168
  166SAPS  H16S18752   1.639   5.378   4.208  0.7648  0.4958 -1.2490
  166SAPS  C21718753   1.736   5.244   4.085 -0.1238  0.2669  0.0404
  166SAPS  H17R18754   1.642   5.211   4.035  0.4878  0.2494 -1.1376
  166SAPS  H17S18755   1.812   5.162   4.088 -0.9255 -0.5765 -1.3736
  166SAPS  C21818756   1.796   5.364   4.010  0.4173 -0.1674 -0.0023
  166SAPS  H18R18757   1.897   5.383   4.050  0.9331 -1.2034 -0.7537
  166SAPS  H18S18758   1.729   5.452   4.019  1.5623  0.8383 -1.0116
  166SAPS  C21918759   1.804   5.348   3.858 -0.3252 -0.4655 -0.0420
  166SAPS  H19R18760   1.843   5.249   3.824  1.0590  0.0814 -0.0859
  166SAPS  H19S18761   1.870   5.431   3.826 -0.8996  1.0952  2.5214
  166SAPS  C22018762   1.664   5.357   3.796 -0.5636 -0.0823  0.7379
  166SAPS  H20R18763   1.614   5.455   3.811 -1.0818  0.4296 -3.1657
  166SAPS  H20S18764   1.598   5.280   3.842  1.3240 -1.8483  0.6362
  166SAPS  H20T18765   1.668   5.336   3.687  0.8130 -0.1312  0.7723
  166SAPS   C3318766   1.548   4.708   5.571 -0.1812 -0.1688 -0.1781
  166SAPS   H3X18767   1.441   4.708   5.601 -0.1688 -2.6013  0.0385
  166SAPS   H3Y18768   1.579   4.602   5.585  0.6702  0.0593 -0.2820
  166SAPS   C3418769   1.564   4.759   5.418  0.0125  0.3819  0.1901
  166SAPS   H4X18770   1.673   4.763   5.396 -0.0617  0.5803 -0.1313
  166SAPS   H4Y18771   1.516   4.858   5.405 -2.4534 -0.5872  1.1960
  166SAPS   C3518772   1.500   4.654   5.325  0.1129 -0.1096  0.0622
  166SAPS   H5X18773   1.396   4.684   5.302  0.4589  0.6736 -0.5379
  166SAPS   H5Y18774   1.510   4.547   5.355  4.7959  0.2900  0.6892
  166SAPS   C3618775   1.584   4.667   5.201  0.2442 -0.2230 -0.0019
  166SAPS   H6X18776   1.676   4.612   5.229  0.5692 -0.1680 -0.9125
  166SAPS   H6Y18777   1.599   4.773   5.172 -2.8610  0.5733  0.9605
  166SAPS   C3718778   1.514   4.591   5.088  0.0568 -0.6700 -0.0200
  166SAPS   H7X18779   1.417   4.641   5.069  0.9737  1.0315 -0.4051
  166SAPS   H7Y18780   1.508   4.483   5.114  2.5145 -0.8591 -0.0095
  166SAPS   C3818781   1.585   4.599   4.953 -0.7607 -0.2403 -0.5634
  166SAPS   H8X18782   1.676   4.535   4.949 -1.3579 -1.1413  0.0086
  166SAPS   H8Y18783   1.628   4.702   4.954 -0.6642 -0.2763  0.5166
  166SAPS   C3918784   1.497   4.575   4.833 -0.2193  0.4645  0.6708
  166SAPS   H9X18785   1.434   4.666   4.821  1.6244  1.7680  0.5117
  166SAPS   H9Y18786   1.428   4.490   4.854  1.5636 -1.1812  0.1013
  166SAPS  C31018787   1.569   4.554   4.698 -0.9851 -0.5966  0.0720
  166SAPS  H10X18788   1.491   4.545   4.621  0.3457  0.2199 -1.4254
  166SAPS  H10Y18789   1.611   4.454   4.721 -1.4002 -0.3268  2.2884
  166SAPS  C31118790   1.680   4.660   4.671 -0.2095  0.0755  0.3954
  166SAPS  H11X18791   1.755   4.649   4.752 -0.9372  1.4497  1.2851
  166SAPS  H11Y18792   1.641   4.764   4.668  0.2608  0.2598  0.6139
  166SAPS  C31218793   1.754   4.636   4.536 -0.1171 -0.2220 -0.4709
  166SAPS  H12X18794   1.680   4.609   4.458 -0.4442 -2.2817  0.5060
  166SAPS  H12Y18795   1.820   4.548   4.550 -0.2514 -0.2794 -0.1963
  166SAPS  C31318796   1.837   4.761   4.491 -0.5742 -0.2246  0.3955
  166SAPS  H13X18797   1.892   4.801   4.579  0.2258  0.5745 -0.4466
  166SAPS  H13Y18798   1.753   4.831   4.469 -0.2322 -0.4269 -1.7575
  166SAPS  C31418799   1.945   4.758   4.375  0.1774  0.4520  0.0518
  166SAPS  H14X18800   1.894   4.708   4.290 -2.2058  0.1923  1.5371
  166SAPS  H14Y18801   2.029   4.698   4.415 -1.2093 -1.2894  0.4745
  166SAPS  C31518802   1.993   4.893   4.325  0.1913 -0.1425  0.1416
  166SAPS  H15X18803   2.032   4.946   4.414 -0.8789 -1.1321  1.2367
  166SAPS  H15Y18804   1.910   4.961   4.296  0.2857 -0.4623 -0.9001
  166SAPS  C31618805   2.086   4.881   4.199  0.2719 -0.7707  0.3750
  166SAPS  H16X18806   2.031   4.838   4.114 -3.0068 -0.5662  2.2309
  166SAPS  H16Y18807   2.170   4.813   4.226 -0.4720 -0.8347  2.8054
  166SAPS  C31718808   2.142   5.020   4.176 -1.1212 -0.3308 -0.7173
  166SAPS  H17X18809   2.198   5.052   4.267  0.1850  1.0970 -1.9653
  166SAPS  H17Y18810   2.057   5.091   4.174 -0.8928 -0.0547 -0.7140
  166SAPS  C31818811   2.237   5.058   4.049  0.5927  0.5713  0.0030
  166SAPS  H18X18812   2.341   5.019   4.062  0.3229 -0.4953 -0.8606
  166SAPS  H18Y18813   2.255   5.167   4.049 -1.7381  0.9935  0.4233
  166SAPS  H18Z18814   2.197   5.015   3.955  0.0637 -1.5931  1.1559
  167SAPS     N18815   3.855   6.242   6.199 -0.3564  0.1542  0.2609
  167SAPS   HN118816   3.832   6.330   6.148  0.2510  0.5000  0.5627
  167SAPS   HN218817   3.956   6.225   6.180 -1.1909 -1.1092 -4.2606
  167SAPS   HN318818   3.801   6.161   6.163 -2.4881  0.4791  2.4246
  167SAPS   C1218819   3.822   6.268   6.342 -0.4680  0.3300 -0.3222
  167SAPS  H12A18820   3.717   6.296   6.345 -1.7476 -3.8335  1.7564
  167SAPS   C1318821   3.840   6.146   6.437 -0.4887  0.1113  0.4038
  167SAPS  O13A18822   3.889   6.042   6.389 -0.2286 -0.0815 -0.4853
  167SAPS  O13B18823   3.784   6.152   6.553  0.4219  0.0229  0.2412
  167SAPS   C1118824   3.911   6.379   6.389  0.1534 -0.1401  0.1381
  167SAPS  H11A18825   4.015   6.344   6.373 -0.2746 -0.7867 -1.3495
  167SAPS  H11B18826   3.890   6.408   6.495  1.9812 -0.5699  0.6499
  167SAPS     P18827   3.843   6.640   6.361 -0.1548  0.2049 -0.0943
  167SAPS   O1318828   3.697   6.631   6.379 -0.5883  0.1076 -0.1243
  167SAPS   O1418829   3.919   6.653   6.484  0.0664 -0.1034  0.0331
  167SAPS   O1218830   3.897   6.499   6.303 -0.0222 -0.3097 -0.5546
  167SAPS   O1118831   3.895   6.743   6.254  0.4670 -0.3827  0.8528
  167SAPS    C118832   4.030   6.777   6.236  0.4903 -0.5749 -0.5659
  167SAPS    HA18833   4.044   6.885   6.259 -2.2793 -0.0340 -1.0998
  167SAPS    HB18834   4.096   6.722   6.307 -0.9128 -2.5936 -0.7601
  167SAPS    C218835   4.094   6.766   6.090 -0.0642 -0.3278 -0.9743
  167SAPS    HS18836   4.190   6.821   6.088 -0.3830  0.3017 -0.0195
  167SAPS   O2118837   4.004   6.812   5.994 -0.2464  0.5144  0.7859
  167SAPS   C2118838   3.962   6.941   5.989  0.1306 -0.1091  0.3974
  167SAPS   O2218839   4.024   7.030   6.041  0.3363 -0.6215 -0.3698
  167SAPS   C2218840   3.838   6.958   5.903  0.3155 -0.8568  0.1807
  167SAPS   H2R18841   3.805   6.858   5.866  0.2553 -0.4535 -0.9045
  167SAPS   H2S18842   3.765   7.003   5.973  0.5456  0.4067 -0.3726
  167SAPS    C318843   4.134   6.609   6.083  0.2121  0.2342  0.3254
  167SAPS    HX18844   4.035   6.564   6.105  0.4402  0.1097  1.1450
  167SAPS    HY18845   4.207   6.585   6.163  0.3463  0.5153  0.2900
  167SAPS   O3118846   4.189   6.588   5.957 -0.3674 -0.7562 -0.0962
  167SAPS   C3118847   4.245   6.466   5.945 -0.0714 -0.0438  0.2886
  167SAPS   O3218848   4.244   6.378   6.024 -0.2653  0.0174 -0.8226
  167SAPS   C3218849   4.289   6.443   5.795 -0.2217  0.1149  0.9929
  167SAPS   H2X18850   4.394   6.479   5.799  0.2316 -1.2406  2.3621
  167SAPS   H2Y18851   4.238   6.502   5.716  0.8545 -0.6722 -0.3390
  167SAPS   C2318852   3.865   7.061   5.784  0.1938  0.1553 -0.9971
  167SAPS   H3R18853   3.943   7.012   5.722  0.0780 -0.0557 -0.9772
  167SAPS   H3S18854   3.886   7.162   5.824 -1.8914  0.8874 -1.6246
  167SAPS   C2418855   3.725   7.077   5.708 -0.4978  0.0920 -0.4923
  167SAPS   H4R18856   3.707   7.171   5.652 -1.9566 -0.2652 -0.6679
  167SAPS   H4S18857   3.657   7.086   5.795  1.8373  0.9094  1.3647
  167SAPS   C2518858   3.698   6.953   5.635  0.6760  0.2264  0.4881
  167SAPS   H5R18859   3.676   6.867   5.701 -0.3974 -0.6182 -0.9107
  167SAPS   C2618860   3.679   6.932   5.498 -0.4278 -0.3912 -0.6527
  167SAPS   H6R18861   3.656   6.831   5.463  0.2928 -0.6898 -0.2728
  167SAPS   C2718862   3.690   7.048   5.401  0.3053 -0.1399  0.2498
  167SAPS   H7R18863   3.686   7.151   5.443  2.2866  0.1326 -0.0925
  167SAPS   H7S18864   3.609   7.042   5.326  0.0279  0.2048  0.5143
  167SAPS   C2818865   3.824   7.023   5.329 -0.2884  0.2323 -0.3955
  167SAPS   H8R18866   3.919   7.044   5.381  0.9863 -0.1858 -2.4314
  167SAPS   C2918867   3.840   6.981   5.202  0.5839 -0.1293  0.2351
  167SAPS   H9R18868   3.943   6.989   5.165  0.4457  0.8725  0.0298
  167SAPS  C21018869   3.746   6.935   5.099 -0.6879 -0.5144 -0.3122
  167SAPS  H10R18870   3.665   6.882   5.155  2.2003 -1.8595  2.9706
  167SAPS  H10S18871   3.781   6.853   5.033 -0.9241 -1.0716  0.2399
  167SAPS  C21118872   3.686   7.038   5.008 -0.3373 -0.4815 -0.1565
  167SAPS  H11R18873   3.606   7.097   5.055 -1.3688 -2.4995  0.7874
  167SAPS  C21218874   3.716   7.057   4.876 -0.2832 -0.4169  0.3117
  167SAPS  H12R18875   3.655   7.126   4.816 -1.2914  0.7351  2.5491
  167SAPS  C21318876   3.820   6.984   4.796  0.3733 -0.2648 -0.2881
  167SAPS  H13R18877   3.758   6.921   4.729 -3.1598  1.9596  0.6113
  167SAPS  H13S18878   3.884   6.925   4.865 -1.2526 -0.3446  1.2187
  167SAPS  C21418879   3.914   7.081   4.729  0.8411 -0.4494  0.3340
  167SAPS  H14R18880   3.973   7.142   4.799 -0.9848  1.6641  0.1436
  167SAPS  C21518881   3.929   7.109   4.598  0.4529  0.0604  0.2358
  167SAPS  H15R18882   3.993   7.195   4.573  0.3839  1.1119  3.2169
  167SAPS  C21618883   3.841   7.052   4.486 -0.7847 -0.9874 -0.0802
  167SAPS  H16R18884   3.771   7.131   4.452 -2.5523 -1.2070  2.7423
  167SAPS  H16S18885   3.774   6.968   4.513 -1.9158 -0.5722 -1.5080
  167SAPS  C21718886   3.937   7.003   4.372 -0.2723 -0.2493  0.2481
  167SAPS  H17R18887   4.015   6.930   4.403  0.6174  1.0607  1.2026
  167SAPS  H17S18888   3.982   7.094   4.326 -0.9767  1.5329  2.8497
  167SAPS  C21818889   3.859   6.933   4.254  0.3006 -0.8559 -0.1054
  167SAPS  H18R18890   3.771   6.996   4.231  0.8236 -0.2242 -0.4066
  167SAPS  H18S18891   3.827   6.836   4.298 -0.1259  0.6170  3.0966
  167SAPS  C21918892   3.937   6.909   4.128 -0.5682 -0.4107  0.4832
  167SAPS  H19R18893   4.024   6.842   4.143 -0.4009 -0.6917 -1.4588
  167SAPS  H19S18894   3.990   7.001   4.096 -1.1441 -0.5817 -1.0229
  167SAPS  C22018895   3.855   6.859   4.006  0.3256 -0.5173 -0.3662
  167SAPS  H20R18896   3.802   6.764   4.028  0.8503 -0.4122  1.5342
  167SAPS  H20S18897   3.923   6.853   3.918  2.4943  0.3983  1.1666
  167SAPS  H20T18898   3.782   6.938   3.979 -0.3340 -1.0964 -0.3171
  167SAPS   C3318899   4.300   6.292   5.755 -0.0350 -0.2926  0.2361
  167SAPS   H3X18900   4.198   6.248   5.746  0.2105 -0.7003 -0.5902
  167SAPS   H3Y18901   4.353   6.237   5.836  0.4494  0.7233  0.6333
  167SAPS   C3418902   4.388   6.279   5.632 -0.4842 -0.6277 -0.4647
  167SAPS   H4X18903   4.422   6.174   5.619 -1.0850 -0.7728 -0.8731
  167SAPS   H4Y18904   4.478   6.340   5.654 -1.2434  0.1238  0.6333
  167SAPS   C3518905   4.323   6.315   5.494  0.8052 -0.9365 -0.0957
  167SAPS   H5X18906   4.309   6.425   5.496  0.4195 -0.9514 -1.3387
  167SAPS   H5Y18907   4.218   6.279   5.495  0.8043 -0.9265  1.2080
  167SAPS   C3618908   4.395   6.267   5.373  0.3250 -0.3328 -0.1962
  167SAPS   H6X18909   4.343   6.279   5.276  1.9545 -1.0214 -1.1873
  167SAPS   H6Y18910   4.415   6.159   5.393 -0.7833 -0.5871 -0.3806
  167SAPS   C3718911   4.530   6.331   5.366 -0.5380 -1.0446 -0.5860
  167SAPS   H7X18912   4.590   6.283   5.447 -1.0635 -0.4325  0.1745
  167SAPS   H7Y18913   4.528   6.441   5.380  0.8847 -0.8415 -1.6668
  167SAPS   C3818914   4.603   6.310   5.230 -0.3520 -0.0640  0.4376
  167SAPS   H8X18915   4.569   6.209   5.198 -2.9244  0.5864  0.9122
  167SAPS   H8Y18916   4.713   6.325   5.244 -0.6256  2.4262  0.3938
  167SAPS   C3918917   4.547   6.401   5.118 -0.4069  0.2619  0.0655
  167SAPS   H9X18918   4.581   6.505   5.139  1.4130 -0.0251 -1.2848
  167SAPS   H9Y18919   4.436   6.401   5.129 -0.7359 -2.5654 -2.1002
  167SAPS  C31018920   4.582   6.375   4.965 -0.6281 -0.3730 -0.1879
  167SAPS  H10X18921   4.516   6.437   4.901 -1.0763  0.4315  1.0310
  167SAPS  H10Y18922   4.567   6.266   4.944  1.3134 -0.6843 -0.1971
  167SAPS  C31118923   4.730   6.420   4.938 -0.3906 -0.1036 -0.2413
  167SAPS  H11X18924   4.807   6.379   5.008 -0.2380  0.8943  0.1988
  167SAPS  H11Y18925   4.738   6.530   4.952  0.0914 -0.2414  0.6387
  167SAPS  C31218926   4.775   6.375   4.803 -0.1755 -0.3543 -0.3208
  167SAPS  H12X18927   4.696   6.402   4.731 -0.1724 -1.5981 -0.8288
  167SAPS  H12Y18928   4.778   6.264   4.807 -0.3432 -0.3990 -1.3985
  167SAPS  C31318929   4.905   6.435   4.759  0.5034  0.5212 -0.5465
  167SAPS  H13X18930   4.982   6.409   4.835 -0.3239  0.8552  0.4266
  167SAPS  H13Y18931   4.896   6.544   4.774  0.9006  0.3336  1.4357
  167SAPS  C31418932   4.929   6.410   4.610 -0.6280 -0.1963 -0.0676
  167SAPS  H14X18933   5.014   6.465   4.564 -1.3781  0.2979 -0.9146
  167SAPS  H14Y18934   4.832   6.432   4.559 -0.7618  0.3261  0.4062
  167SAPS  C31518935   4.969   6.263   4.577  0.5952  0.0467 -0.3301
  167SAPS  H15X18936   4.879   6.206   4.607  0.9642 -0.3442  0.0519
  167SAPS  H15Y18937   5.060   6.235   4.634  0.8854  1.4808 -0.0293
  167SAPS  C31618938   4.984   6.241   4.425 -0.2787  0.8095  0.1278
  167SAPS  H16X18939   5.070   6.303   4.391 -0.9016  0.8874 -1.3658
  167SAPS  H16Y18940   4.894   6.272   4.368 -1.0386  0.8266  1.3145
  167SAPS  C31718941   5.025   6.100   4.387 -0.0027 -0.1034 -0.1389
  167SAPS  H17X18942   5.125   6.077   4.430  1.2354  0.2488 -2.6221
  167SAPS  H17Y18943   5.038   6.100   4.276 -0.3592 -2.8130 -0.2591
  167SAPS  C31818944   4.929   5.997   4.437 -0.1594 -0.6477  0.8119
  167SAPS  H18X18945   4.974   5.903   4.400 -0.3198 -0.6868  0.7164
  167SAPS  H18Y18946   4.830   6.012   4.389  0.0818  2.0188  1.0142
  167SAPS  H18Z18947   4.926   5.996   4.548  0.5569  0.6005  0.8637
  168SAPS     N18948   2.275   6.912   6.451  0.4553 -0.5717  0.1422
  168SAPS   HN118949   2.235   7.005   6.474 -0.5787 -1.3287  1.6705
  168SAPS   HN218950   2.374   6.912   6.419  0.1428  1.0794 -0.8895
  168SAPS   HN318951   2.221   6.864   6.376  0.3472 -1.4063  0.7361
  168SAPS   C1218952   2.252   6.818   6.570  0.3854 -0.5191  0.5004
  168SAPS  H12A18953   2.302   6.870   6.651  0.0310  1.6556 -0.5871
  168SAPS   C1318954   2.105   6.797   6.613 -0.5576 -0.3573  0.5643
  168SAPS  O13A18955   2.014   6.849   6.542 -0.5351 -0.5352 -0.0065
  168SAPS  O13B18956   2.083   6.695   6.687 -0.2297 -0.0375  0.0112
  168SAPS   C1118957   2.323   6.682   6.538  0.2220 -0.4696 -0.6275
  168SAPS  H11A18958   2.259   6.613   6.479 -1.8445 -0.9837  2.0241
  168SAPS  H11B18959   2.342   6.631   6.635 -1.3490  1.3081  0.6853
  168SAPS     P18960   2.563   6.615   6.443 -0.3022  0.3631 -0.0627
  168SAPS   O1318961   2.689   6.652   6.511  0.3316  0.2062 -0.7231
  168SAPS   O1418962   2.515   6.474   6.458  0.0232  0.7123 -0.4071
  168SAPS   O1218963   2.443   6.709   6.480  0.2281  0.4606  0.3686
  168SAPS   O1118964   2.581   6.653   6.288  0.0039  0.3429  0.2543
  168SAPS    C118965   2.476   6.671   6.197 -1.4775  0.1144  0.0950
  168SAPS    HA18966   2.387   6.609   6.220 -0.5169 -0.7257  1.7613
  168SAPS    HB18967   2.442   6.777   6.192  0.2357  0.6218 -1.5582
  168SAPS    C218968   2.512   6.639   6.047  0.1239  0.3861  0.5924
  168SAPS    HS18969   2.421   6.621   5.987 -0.1863 -0.7903  1.3708
  168SAPS   O2118970   2.612   6.536   6.050  0.3141 -0.0315 -0.2053
  168SAPS   C2118971   2.561   6.414   6.067  0.0386 -0.3855  0.2742
  168SAPS   O2218972   2.441   6.387   6.081 -0.0010 -0.0372  0.5256
  168SAPS   C2218973   2.680   6.319   6.048 -0.6540 -0.3566  0.7854
  168SAPS   H2R18974   2.768   6.383   6.025 -2.1378  1.2703 -0.6791
  168SAPS   H2S18975   2.695   6.257   6.139  0.4722 -3.2162 -1.2155
  168SAPS    C318976   2.573   6.766   5.976  0.0261  0.2046  0.7411
  168SAPS    HX18977   2.658   6.810   6.034  0.5111  2.2549 -1.3788
  168SAPS    HY18978   2.490   6.839   5.972 -1.9718 -2.0155 -1.4089
  168SAPS   O3118979   2.629   6.735   5.844  0.4149 -0.4918  0.1977
  168SAPS   C3118980   2.555   6.771   5.739  0.6812  0.6568  0.9247
  168SAPS   O3218981   2.446   6.831   5.745 -1.0667  0.2955 -0.6198
  168SAPS   C3218982   2.614   6.708   5.608  0.6061  0.4288  0.0370
  168SAPS   H2X18983   2.543   6.703   5.523  0.0313  0.2145  0.5258
  168SAPS   H2Y18984   2.619   6.603   5.644  1.3362  0.5036  0.1675
  168SAPS   C2318985   2.647   6.218   5.934 -0.4804 -0.1153 -0.3663
  168SAPS   H3R18986   2.608   6.281   5.852  0.8321  3.3830  1.5020
  168SAPS   H3S18987   2.567   6.151   5.972 -0.5808  0.8538  1.2183
  168SAPS   C2418988   2.764   6.131   5.889  0.3459  0.2145 -0.3650
  168SAPS   H4R18989   2.790   6.062   5.972 -1.6281 -0.4791 -0.2670
  168SAPS   H4S18990   2.849   6.196   5.858 -0.8576  0.6170 -3.0779
  168SAPS   C2518991   2.717   6.049   5.770 -0.1157 -0.2488  0.6916
  168SAPS   H5R18992   2.651   5.962   5.790  0.5210 -1.0195 -0.4851
  168SAPS   C2618993   2.749   6.075   5.643  0.3080  0.4061  0.0670
  168SAPS   H6R18994   2.694   6.018   5.565 -1.0509  1.0036  0.5527
  168SAPS   C2718995   2.828   6.194   5.591  0.7281  0.0932  0.0303
  168SAPS   H7R18996   2.905   6.232   5.661  1.6556 -0.4119 -0.7018
  168SAPS   H7S18997   2.755   6.277   5.582 -0.7567 -0.6144  3.4798
  168SAPS   C2818998   2.894   6.158   5.458  0.1798 -0.6015  1.0049
  168SAPS   H8R18999   2.917   6.052   5.440 -1.6073 -1.2220  2.1238
  168SAPS   C2919000   2.912   6.252   5.361 -0.6949  0.4804  0.1900
  168SAPS   H9R19001   2.966   6.221   5.270  1.1030  0.1017  1.3327
  168SAPS  C21019002   2.876   6.396   5.360 -0.5288 -0.0635 -0.2637
  168SAPS  H10R19003   2.844   6.436   5.458 -1.5376  0.5796 -0.8341
  168SAPS  H10S19004   2.775   6.394   5.312  0.1900 -1.9533 -1.8168
  168SAPS  C21119005   2.983   6.488   5.297  0.0681 -0.1735 -0.5162
  168SAPS  H11R19006   3.048   6.540   5.369 -0.0694 -2.1216  1.1191
  168SAPS  C21219007   3.000   6.512   5.167 -0.3969  0.0051 -0.2544
  168SAPS  H12R19008   3.094   6.562   5.142  0.1851 -1.1135 -0.3778
  168SAPS  C21319009   2.928   6.448   5.052 -0.0520  0.2744 -0.1464
  168SAPS  H13R19010   2.830   6.405   5.083 -1.0251  2.0933 -0.5539
  168SAPS  H13S19011   2.997   6.365   5.024  0.4875  0.6545  0.0510
  168SAPS  C21419012   2.913   6.537   4.932  0.1909 -0.2491 -0.0241
  168SAPS  H14R19013   2.832   6.611   4.936  1.0686  0.8111 -1.1472
  168SAPS  C21519014   2.966   6.524   4.811  0.2362  0.7645 -0.3538
  168SAPS  H15R19015   2.929   6.591   4.732  1.4875  1.6967 -0.1799
  168SAPS  C21619016   3.079   6.444   4.761 -0.3272  0.1123  0.7038
  168SAPS  H16R19017   3.159   6.407   4.828  1.4593 -0.5873 -1.6587
  168SAPS  H16S19018   3.128   6.510   4.685 -0.2054 -0.4656  0.2735
  168SAPS  C21719019   3.020   6.318   4.698  0.0895  0.8878  0.4227
  168SAPS  H17R19020   2.946   6.351   4.622 -0.8240 -1.0008  0.4342
  168SAPS  H17S19021   2.967   6.253   4.770 -2.5439  0.4507 -1.7174
  168SAPS  C21819022   3.115   6.241   4.611  0.2830 -0.5276  0.1509
  168SAPS  H18R19023   3.159   6.303   4.529  0.1547 -0.4330  0.1534
  168SAPS  H18S19024   3.064   6.162   4.552 -0.1255 -1.3489  1.5752
  168SAPS  C21919025   3.234   6.182   4.695  0.5077  0.4024 -0.0926
  168SAPS  H19R19026   3.192   6.104   4.762  2.8262 -0.5834  0.2972
  168SAPS  H19S19027   3.283   6.263   4.753 -0.1961  0.8299 -0.0841
  168SAPS  C22019028   3.338   6.119   4.606  0.5417 -0.0580 -0.4318
  168SAPS  H20R19029   3.291   6.038   4.547  0.4212 -1.4408  1.4590
  168SAPS  H20S19030   3.422   6.072   4.660  1.0116 -0.3168 -1.3741
  168SAPS  H20T19031   3.384   6.193   4.537  1.4291 -0.4025 -0.2175
  168SAPS   C3319032   2.753   6.749   5.577  0.0548  0.1339 -0.9822
  168SAPS   H3X19033   2.822   6.676   5.529  1.3432  0.7069 -0.0713
  168SAPS   H3Y19034   2.804   6.773   5.673  0.5672  1.9978 -1.6711
  168SAPS   C3419035   2.747   6.873   5.477  0.1479  0.5080 -0.3878
  168SAPS   H4X19036   2.848   6.919   5.475  0.0332  0.7524 -1.2343
  168SAPS   H4Y19037   2.678   6.951   5.517 -0.6565 -0.3141 -0.1577
  168SAPS   C3519038   2.721   6.837   5.331 -0.5449 -0.5032  1.1026
  168SAPS   H5X19039   2.623   6.788   5.311 -0.7285  0.2818  0.0140
  168SAPS   H5Y19040   2.787   6.754   5.299  0.5774  1.0378 -0.8055
  168SAPS   C3619041   2.752   6.947   5.232 -0.0032  0.1191 -0.2957
  168SAPS   H6X19042   2.857   6.983   5.227 -0.5599  1.9775  0.4065
  168SAPS   H6Y19043   2.695   7.035   5.270 -0.6541 -0.1705 -0.5966
  168SAPS   C3719044   2.696   6.908   5.091 -0.3324 -0.3599 -0.9363
  168SAPS   H7X19045   2.591   6.873   5.106  0.2924 -2.3422 -0.8963
  168SAPS   H7Y19046   2.759   6.823   5.057  0.1638  0.1366 -1.2822
  168SAPS   C3819047   2.693   7.024   4.989  0.0369  0.1720  0.5543
  168SAPS   H8X19048   2.797   7.059   4.978 -0.2310  1.3410  1.5866
  168SAPS   H8Y19049   2.642   7.110   5.037 -0.8935 -0.1392  0.1572
  168SAPS   C3919050   2.631   6.982   4.853 -0.1741 -0.0283 -0.1298
  168SAPS   H9X19051   2.529   6.943   4.870 -0.4721 -1.1940 -3.7994
  168SAPS   H9Y19052   2.682   6.898   4.803  2.8261  0.4490  1.8183
  168SAPS  C31019053   2.636   7.100   4.763  0.6687  0.0504  0.3595
  168SAPS  H10X19054   2.742   7.123   4.741  0.3047  2.2042  0.6155
  168SAPS  H10Y19055   2.593   7.192   4.809 -2.0665  0.5657 -2.8461
  168SAPS  C31119056   2.559   7.070   4.633 -0.3955 -0.0513 -0.8884
  168SAPS  H11X19057   2.449   7.068   4.650 -0.3203 -2.9432 -0.2728
  168SAPS  H11Y19058   2.598   6.968   4.614  3.2629  1.5478 -2.8440
  168SAPS  C31219059   2.609   7.154   4.512 -0.1636  0.1531 -0.1902
  168SAPS  H12X19060   2.717   7.171   4.526 -0.1924 -0.6349  1.2817
  168SAPS  H12Y19061   2.555   7.250   4.524 -0.2999 -0.2387  3.8439
  168SAPS  C31319062   2.578   7.080   4.379 -0.2882 -0.5289 -0.0475
  168SAPS  H13X19063   2.469   7.060   4.374 -0.1665 -1.2446  0.0920
  168SAPS  H13Y19064   2.628   6.981   4.390 -2.0875 -1.3052  1.9371
  168SAPS  C31419065   2.617   7.158   4.255 -0.0826  0.5120  0.3643
  168SAPS  H14X19066   2.727   7.154   4.249 -0.1237 -1.3792  0.3697
  168SAPS  H14Y19067   2.579   7.262   4.261 -1.7590 -0.0551  0.3342
  168SAPS  C31519068   2.561   7.088   4.135  0.2952  0.3319 -0.0303
  168SAPS  H15X19069   2.459   7.055   4.165  0.2343  2.5739  2.6714
  168SAPS  H15Y19070   2.619   6.995   4.118 -0.6661 -0.5400  1.3159
  168SAPS  C31619071   2.554   7.182   4.010  0.1866  0.2736  0.2277
  168SAPS  H16X19072   2.658   7.207   3.979  1.1310 -0.6497  2.3958
  168SAPS  H16Y19073   2.488   7.270   4.026 -0.1701  0.6698 -2.9490
  168SAPS  C31719074   2.500   7.117   3.883 -0.0262  0.4635 -0.0609
  168SAPS  H17X19075   2.469   7.205   3.822  1.5836  1.5842  0.6867
  168SAPS  H17Y19076   2.411   7.053   3.901  0.6407 -0.7863 -1.0352
  168SAPS  C31819077   2.587   7.033   3.801 -0.4161 -0.2549  0.7281
  168SAPS  H18X19078   2.644   6.964   3.867  1.8541  0.8139 -0.0015
  168SAPS  H18Y19079   2.665   7.104   3.766 -0.9384 -0.4624 -0.9505
  168SAPS  H18Z19080   2.539   6.991   3.710  2.8720 -2.3988 -0.2047
  169SAPS     N19081   6.409   1.756   6.335  0.4712  0.3670  0.9017
  169SAPS   HN119082   6.448   1.680   6.274 -0.0440  1.3271 -0.6940
  169SAPS   HN219083   6.374   1.719   6.426  0.1396 -0.3150  0.5117
  169SAPS   HN319084   6.323   1.792   6.290 -0.2357 -1.9770  0.2317
  169SAPS   C1219085   6.495   1.876   6.355  0.1784  0.1326  0.1440
  169SAPS  H12A19086   6.442   1.966   6.328 -1.3688 -0.7019  0.2467
  169SAPS   C1319087   6.553   1.895   6.503 -1.2516  0.4167 -0.3804
  169SAPS  O13A19088   6.511   1.818   6.594  0.6663 -0.2031  0.6171
  169SAPS  O13B19089   6.613   2.003   6.530  0.0762 -0.2394 -0.0471
  169SAPS   C1119090   6.619   1.854   6.264 -0.4785  0.0527 -0.3005
  169SAPS  H11A19091   6.664   1.758   6.298  0.7213  0.2747 -1.2040
  169SAPS  H11B19092   6.684   1.938   6.294 -1.3884 -0.0485  2.1866
  169SAPS     P19093   6.566   1.729   6.031 -0.0439 -0.0373 -0.1493
  169SAPS   O1319094   6.691   1.697   5.973 -0.5912  0.3239  0.0577
  169SAPS   O1419095   6.504   1.622   6.108  0.0855  0.3706  0.1440
  169SAPS   O1219096   6.592   1.847   6.127 -0.3798 -0.3127  0.2854
  169SAPS   O1119097   6.464   1.790   5.932  0.0157 -0.7626 -0.1588
  169SAPS    C119098   6.504   1.896   5.849 -0.1460 -0.9511 -0.1934
  169SAPS    HA19099   6.561   1.974   5.902  1.0500 -1.3868 -0.7959
  169SAPS    HB19100   6.574   1.862   5.769  0.8440  0.2567  0.1309
  169SAPS    C219101   6.385   1.971   5.782  1.0438 -0.0170 -0.2565
  169SAPS    HS19102   6.317   2.009   5.861  1.8438 -0.1098  0.4983
  169SAPS   O2119103   6.323   1.876   5.695  0.1776 -0.1129 -0.1276
  169SAPS   C2119104   6.188   1.890   5.681 -0.5906  0.6417  0.0161
  169SAPS   O2219105   6.121   1.977   5.739 -0.4650  0.4061 -0.3627
  169SAPS   C2219106   6.135   1.793   5.574 -0.0724  0.1379 -0.7168
  169SAPS   H2R19107   6.206   1.711   5.550  0.4550 -0.4505  2.3706
  169SAPS   H2S19108   6.051   1.739   5.622  0.8848 -1.3877 -0.6814
  169SAPS    C319109   6.434   2.088   5.686  0.4562 -0.5731 -0.2943
  169SAPS    HX19110   6.499   2.038   5.612  2.3258  0.0236  0.8888
  169SAPS    HY19111   6.492   2.157   5.751  2.1358 -2.0511 -0.1368
  169SAPS   O3119112   6.331   2.156   5.622 -0.0671 -0.1180  0.3568
  169SAPS   C3119113   6.358   2.245   5.528 -1.3611  0.4422 -0.5259
  169SAPS   O3219114   6.470   2.247   5.474 -0.4940 -0.4916  0.3801
  169SAPS   C3219115   6.228   2.331   5.499  0.4868  0.2844  0.4121
  169SAPS   H2X19116   6.192   2.382   5.592  0.5207  0.6561  0.2249
  169SAPS   H2Y19117   6.149   2.263   5.462  0.8253  0.1312 -0.0321
  169SAPS   C2319118   6.080   1.871   5.456 -0.2468  0.5424  0.0411
  169SAPS   H3R19119   6.030   1.965   5.489  0.2965  1.4131 -1.5056
  169SAPS   H3S19120   6.002   1.813   5.401  1.2489 -1.4695 -0.0665
  169SAPS   C2419121   6.199   1.922   5.369  0.1642  0.0617 -0.4062
  169SAPS   H4R19122   6.274   1.964   5.439  0.9522 -2.3217  0.2978
  169SAPS   H4S19123   6.164   2.004   5.304  2.3403 -0.5287 -2.4357
  169SAPS   C2519124   6.250   1.812   5.283 -0.7862  0.3562 -0.3616
  169SAPS   H5R19125   6.180   1.752   5.223 -2.3619  2.6628 -1.0072
  169SAPS   C2619126   6.385   1.787   5.272 -0.3244 -0.1808 -0.8275
  169SAPS   H6R19127   6.428   1.699   5.223 -0.1130 -0.3969 -0.2520
  169SAPS   C2719128   6.492   1.874   5.328 -0.6106 -0.0402 -0.5448
  169SAPS   H7R19129   6.460   1.935   5.415  0.3076 -0.8671  0.3999
  169SAPS   H7S19130   6.515   1.952   5.253 -1.9179  0.9551  0.0477
  169SAPS   C2819131   6.629   1.813   5.352 -0.8004  0.0649 -1.0337
  169SAPS   H8R19132   6.641   1.785   5.458 -0.6432 -2.2740 -1.6116
  169SAPS   C2919133   6.728   1.779   5.263 -0.5687 -0.2767 -0.2340
  169SAPS   H9R19134   6.825   1.748   5.306 -0.8741  0.8276  1.3430
  169SAPS  C21019135   6.742   1.806   5.117  0.0785  0.1398  0.1527
  169SAPS  H10R19136   6.828   1.876   5.119 -0.3872  0.7069  0.5763
  169SAPS  H10S19137   6.655   1.866   5.082 -1.1105 -0.5757  1.7390
  169SAPS  C21119138   6.749   1.683   5.038  0.6754 -0.1673  0.1012
  169SAPS  H11R19139   6.708   1.595   5.091 -0.9854 -0.6406 -1.8420
  169SAPS  C21219140   6.802   1.661   4.913 -1.0425  0.5819  0.3830
  169SAPS  H12R19141   6.793   1.561   4.870  0.0090  0.6141  0.0469
  169SAPS  C21319142   6.859   1.762   4.815 -0.2910 -0.5020  0.5227
  169SAPS  H13R19143   6.808   1.861   4.818  1.3382  0.3991  0.0454
  169SAPS  H13S19144   6.847   1.719   4.714  2.5549 -0.5540  0.1282
  169SAPS  C21419145   7.015   1.780   4.810  0.6062  0.3025 -0.2173
  169SAPS  H14R19146   7.060   1.803   4.907  2.7486 -0.3976 -0.9851
  169SAPS  C21519147   7.096   1.781   4.705  0.2166 -0.2230  0.2169
  169SAPS  H15R19148   7.201   1.783   4.736  0.6584  0.7713 -1.2475
  169SAPS  C21619149   7.066   1.749   4.557  0.6827 -0.1119 -0.4793
  169SAPS  H16R19150   7.078   1.847   4.506  1.3234  1.3305  2.2697
  169SAPS  H16S19151   6.963   1.715   4.531  0.8399  0.4502 -1.9491
  169SAPS  C21719152   7.132   1.625   4.491 -0.0945 -0.6068  0.0680
  169SAPS  H17R19153   7.110   1.524   4.531 -1.1057 -1.2371 -1.9729
  169SAPS  H17S19154   7.243   1.637   4.500 -0.3211  0.5484  1.7943
  169SAPS  C21819155   7.104   1.614   4.348 -0.5019 -0.1579  0.9961
  169SAPS  H18R19156   6.996   1.603   4.325 -0.2872 -0.9268  0.3054
  169SAPS  H18S19157   7.170   1.540   4.297  0.5464  0.5578  1.2799
  169SAPS  C21919158   7.135   1.746   4.269  0.3072 -0.4336  0.0809
  169SAPS  H19R19159   7.234   1.788   4.299  0.6694 -0.3468 -1.1496
  169SAPS  H19S19160   7.055   1.817   4.298  0.7216  0.3017 -0.5243
  169SAPS  C22019161   7.109   1.734   4.118  0.3039 -0.2784  0.2504
  169SAPS  H20R19162   7.007   1.701   4.092 -0.6525  1.1659  1.9582
  169SAPS  H20S19163   7.175   1.660   4.068  1.4018 -2.0013  3.9086
  169SAPS  H20T19164   7.120   1.834   4.070 -1.7824 -0.1144  0.0523
  169SAPS   C3319165   6.253   2.434   5.392 -0.0935 -0.2344  0.3923
  169SAPS   H3X19166   6.339   2.493   5.430  2.6375 -2.7504 -1.4934
  169SAPS   H3Y19167   6.168   2.504   5.378  0.8623  0.7806 -0.4804
  169SAPS   C3419168   6.277   2.374   5.248  0.3317  0.3599 -0.2060
  169SAPS   H4X19169   6.185   2.326   5.209  0.3070  1.1393 -1.1367
  169SAPS   H4Y19170   6.354   2.294   5.242 -0.9902 -0.9486 -0.3397
  169SAPS   C3519171   6.318   2.479   5.143 -0.1986  0.8321 -0.2743
  169SAPS   H5X19172   6.353   2.420   5.056 -0.4598 -0.9141  0.7604
  169SAPS   H5Y19173   6.406   2.538   5.178 -0.1381  0.4997  0.1390
  169SAPS   C3619174   6.214   2.572   5.093  0.7667 -0.4615 -0.0954
  169SAPS   H6X19175   6.193   2.653   5.166  2.0833  1.6756 -1.9658
  169SAPS   H6Y19176   6.124   2.516   5.059  1.1744 -0.8072 -0.6164
  169SAPS   C3719177   6.267   2.670   4.977 -0.0452  0.1595 -0.2769
  169SAPS   H7X19178   6.365   2.715   5.001 -0.2704  0.1754  0.6394
  169SAPS   H7Y19179   6.195   2.754   4.981  0.5208  0.6086  0.5856
  169SAPS   C3819180   6.283   2.599   4.841 -0.9685  1.1700 -0.4963
  169SAPS   H8X19181   6.180   2.585   4.802 -1.2065 -1.5605  0.8198
  169SAPS   H8Y19182   6.331   2.499   4.847 -0.7758  1.2495 -0.7361
  169SAPS   C3919183   6.358   2.686   4.742 -0.2448  0.1339  0.4905
  169SAPS   H9X19184   6.462   2.701   4.779 -0.5912 -0.9637  2.0029
  169SAPS   H9Y19185   6.297   2.778   4.755 -2.1462 -1.0044  0.0415
  169SAPS  C31019186   6.352   2.642   4.595  0.0895 -0.2281 -0.0187
  169SAPS  H10X19187   6.411   2.703   4.524 -1.4330  1.6980  0.3108
  169SAPS  H10Y19188   6.245   2.656   4.567  0.9544  1.0077 -3.1368
  169SAPS  C31119189   6.389   2.491   4.574 -0.7659 -0.7531 -0.5425
  169SAPS  H11X19190   6.310   2.431   4.623 -0.6010 -0.7299 -0.2477
  169SAPS  H11Y19191   6.482   2.476   4.633 -0.1776  2.0154 -0.6506
  169SAPS  C31219192   6.406   2.446   4.428 -0.3714  0.1359 -0.9304
  169SAPS  H12X19193   6.332   2.504   4.369 -2.6289 -2.6360 -1.0371
  169SAPS  H12Y19194   6.390   2.336   4.417  1.0652 -0.3886  1.4404
  169SAPS  C31319195   6.542   2.485   4.361 -0.9482 -0.2168  0.1654
  169SAPS  H13X19196   6.629   2.441   4.413 -0.1695  0.6150 -0.3921
  169SAPS  H13Y19197   6.545   2.597   4.360  0.2611 -0.2417 -0.2784
  169SAPS  C31419198   6.540   2.441   4.212 -0.3204  0.4949 -0.4816
  169SAPS  H14X19199   6.450   2.496   4.176 -1.2633  1.2285  2.6465
  169SAPS  H14Y19200   6.528   2.332   4.199  1.1304  0.4272 -1.4190
  169SAPS  C31519201   6.676   2.489   4.150  0.0902  0.6373  0.0610
  169SAPS  H15X19202   6.758   2.439   4.207 -2.3607 -2.4339  1.1714
  169SAPS  H15Y19203   6.681   2.595   4.181 -0.8308  0.1631  1.9683
  169SAPS  C31619204   6.690   2.456   4.001 -0.4022  0.0335 -0.0415
  169SAPS  H16X19205   6.789   2.481   3.957  0.1477 -0.6791  0.7478
  169SAPS  H16Y19206   6.610   2.507   3.944  1.1910  0.6614 -1.8250
  169SAPS  C31719207   6.691   2.310   3.970  0.6426  0.9361 -0.6923
  169SAPS  H17X19208   6.583   2.286   3.983  0.8387  0.8334  0.9170
  169SAPS  H17Y19209   6.748   2.257   4.049  0.5273  0.8122 -0.6918
  169SAPS  C31819210   6.744   2.266   3.836 -0.0686 -0.2939 -0.2681
  169SAPS  H18X19211   6.708   2.169   3.797 -2.3591  0.9116 -1.3160
  169SAPS  H18Y19212   6.855   2.261   3.840 -0.0972 -0.3164  1.7698
  169SAPS  H18Z19213   6.715   2.350   3.770  0.2078 -1.3034 -1.7262
  170SAPS     N19214   6.649   6.094   6.312  0.2112 -0.2147  0.3885
  170SAPS   HN119215   6.697   6.053   6.395 -1.2256 -1.3235  0.7047
  170SAPS   HN219216   6.612   6.015   6.255  1.4281  0.7618 -1.8844
  170SAPS   HN319217   6.719   6.151   6.261  0.4107 -1.6379 -1.0199
  170SAPS   C1219218   6.534   6.191   6.337  1.1309  0.6568  0.5190
  170SAPS  H12A19219   6.474   6.141   6.412  1.3805 -2.8527 -1.4103
  170SAPS   C1319220   6.548   6.333   6.386 -0.0044  0.4395 -0.0513
  170SAPS  O13A19221   6.659   6.359   6.440  0.0599  0.0986 -0.0611
  170SAPS  O13B19222   6.440   6.394   6.417  0.3821 -0.0405  0.1595
  170SAPS   C1119223   6.459   6.202   6.195  0.9192  0.1661  0.0970
  170SAPS  H11A19224   6.521   6.262   6.125  0.4081  0.4728 -0.1003
  170SAPS  H11B19225   6.360   6.252   6.209  0.1753 -1.1493 -0.2823
  170SAPS     P19226   6.356   6.052   6.010 -0.0848  0.1697 -0.3403
  170SAPS   O1319227   6.428   5.941   5.942 -0.4513  0.0388  0.0539
  170SAPS   O1419228   6.213   6.032   6.047 -0.0656 -0.1235 -0.4087
  170SAPS   O1219229   6.440   6.069   6.150  0.5096  0.1059  0.4541
  170SAPS   O1119230   6.377   6.191   5.937  0.3076 -0.1212 -0.0202
  170SAPS    C119231   6.465   6.201   5.829 -0.6509 -0.0098  0.4907
  170SAPS    HA19232   6.559   6.145   5.850 -0.1765  0.2711 -0.7664
  170SAPS    HB19233   6.416   6.161   5.737 -1.2341  1.8349 -0.0568
  170SAPS    C219234   6.506   6.347   5.800 -0.6633  0.1895 -0.1045
  170SAPS    HS19235   6.534   6.393   5.897 -2.4845  0.7522  0.1944
  170SAPS   O2119236   6.393   6.415   5.745 -0.2390 -0.1367 -0.1082
  170SAPS   C2119237   6.404   6.551   5.754  0.0814  0.2119  0.1728
  170SAPS   O2219238   6.487   6.612   5.815  1.0683 -0.1325 -0.8418
  170SAPS   C2219239   6.284   6.613   5.679  1.1720 -0.1391 -0.2049
  170SAPS   H2R19240   6.221   6.544   5.618 -1.6529  1.0069  1.2202
  170SAPS   H2S19241   6.217   6.651   5.760 -0.2940 -2.6946 -0.1013
  170SAPS    C319242   6.631   6.362   5.708 -0.2159 -0.0309 -0.0625
  170SAPS    HX19243   6.711   6.309   5.765 -1.1428  0.1464  1.4672
  170SAPS    HY19244   6.669   6.466   5.695  0.0313  0.2188  2.1483
  170SAPS   O3119245   6.613   6.298   5.571  0.1436  0.2384 -0.1013
  170SAPS   C3119246   6.699   6.212   5.530 -0.2894  0.1271  0.2357
  170SAPS   O3219247   6.802   6.167   5.584  0.1540  0.6582 -0.5104
  170SAPS   C3219248   6.631   6.155   5.402 -0.9844  0.5121 -0.4957
  170SAPS   H2X19249   6.522   6.175   5.395 -1.5721 -2.3668 -0.9769
  170SAPS   H2Y19250   6.643   6.046   5.419  1.5271  0.8928  0.6054
  170SAPS   C2319251   6.319   6.739   5.597 -0.5225  0.3771  0.2418
  170SAPS   H3R19252   6.387   6.811   5.646  0.5833  1.4480 -2.6259
  170SAPS   H3S19253   6.225   6.794   5.572 -1.3515 -0.9873  0.2738
  170SAPS   C2419254   6.392   6.698   5.468  0.8245  0.0787 -0.1904
  170SAPS   H4R19255   6.393   6.787   5.401 -3.0710  1.9899  1.9634
  170SAPS   H4S19256   6.341   6.611   5.422  1.2736 -0.3024  0.0259
  170SAPS   C2519257   6.540   6.670   5.496  0.8204  0.1456 -0.0396
  170SAPS   H5R19258   6.580   6.711   5.590 -0.2309  1.5673 -0.1644
  170SAPS   C2619259   6.627   6.616   5.407 -0.1578  0.1916 -0.4621
  170SAPS   H6R19260   6.723   6.588   5.453 -1.1941 -3.1611 -0.0825
  170SAPS   C2719261   6.603   6.579   5.267  0.2288 -0.0540  0.1168
  170SAPS   H7R19262   6.693   6.538   5.217  0.7151  0.1383  0.8289
  170SAPS   H7S19263   6.581   6.668   5.204  0.8404 -0.5191 -0.7759
  170SAPS   C2819264   6.497   6.477   5.240  0.6124 -0.4321  0.2338
  170SAPS   H8R19265   6.456   6.419   5.324  0.8538 -0.8819  0.0449
  170SAPS   C2919266   6.445   6.457   5.120 -0.1404 -0.6057  0.4991
  170SAPS   H9R19267   6.353   6.398   5.109  0.0549 -0.8185 -0.0670
  170SAPS  C21019268   6.484   6.510   4.984  0.0223  0.2435 -0.1614
  170SAPS  H10R19269   6.448   6.438   4.907 -0.4769 -0.5414  0.7795
  170SAPS  H10S19270   6.594   6.511   4.971  0.1350  0.0614  0.7160
  170SAPS  C21119271   6.427   6.648   4.965 -0.5346  0.0519 -0.3643
  170SAPS  H11R19272   6.373   6.693   5.050 -2.4720 -2.1546 -0.3112
  170SAPS  C21219273   6.436   6.714   4.844 -0.1994 -0.4148 -0.1719
  170SAPS  H12R19274   6.375   6.804   4.828  0.4101  0.2560  1.0798
  170SAPS  C21319275   6.496   6.659   4.718 -0.7960  0.0050 -0.4687
  170SAPS  H13R19276   6.562   6.574   4.745  0.3770  0.6171 -1.3270
  170SAPS  H13S19277   6.572   6.734   4.687 -0.2508 -1.2384 -2.2435
  170SAPS  C21419278   6.397   6.628   4.605 -0.4573  0.5750  0.2064
  170SAPS  H14R19279   6.291   6.640   4.631 -1.6168 -0.4681 -3.4173
  170SAPS  C21519280   6.428   6.585   4.479 -0.5540  0.4668 -0.1384
  170SAPS  H15R19281   6.344   6.585   4.408 -1.7742  1.6701  1.2523
  170SAPS  C21619282   6.560   6.574   4.407 -0.2269  0.4268 -0.3546
  170SAPS  H16R19283   6.605   6.475   4.432 -1.9211 -0.2327  0.2211
  170SAPS  H16S19284   6.620   6.661   4.441  0.4177  0.3327 -1.2072
  170SAPS  C21719285   6.547   6.601   4.257 -0.0672  0.4107 -0.5589
  170SAPS  H17R19286   6.469   6.535   4.212  0.8113 -1.8414  1.0945
  170SAPS  H17S19287   6.638   6.560   4.209  0.2598 -1.1809  1.3067
  170SAPS  C21819288   6.531   6.752   4.222  0.4308  0.1733  0.3461
  170SAPS  H18R19289   6.473   6.804   4.301  0.9992 -0.5124  1.2349
  170SAPS  H18S19290   6.494   6.752   4.117  0.2067  2.2426  0.3783
  170SAPS  C21919291   6.655   6.843   4.204 -0.0524  0.0358 -0.4436
  170SAPS  H19R19292   6.646   6.914   4.118  0.8742  0.1853 -0.4312
  170SAPS  H19S19293   6.746   6.786   4.176  0.9200  1.4507 -0.3151
  170SAPS  C22019294   6.696   6.925   4.327  0.5244  0.6652  0.3708
  170SAPS  H20R19295   6.609   6.989   4.354 -0.8118 -1.1580  0.5692
  170SAPS  H20S19296   6.777   7.000   4.320  0.7068  0.5789  1.3976
  170SAPS  H20T19297   6.706   6.859   4.416 -0.2854  0.8522  0.6157
  170SAPS   C3319298   6.708   6.174   5.270  0.1473  0.7373  0.2142
  170SAPS   H3X19299   6.803   6.117   5.275 -0.8658 -1.0952 -0.3937
  170SAPS   H3Y19300   6.736   6.274   5.231  0.1628  0.6175 -0.0866
  170SAPS   C3419301   6.629   6.100   5.158 -0.0870  0.0791  0.7571
  170SAPS   H4X19302   6.520   6.122   5.147  0.2520  1.3930 -0.4166
  170SAPS   H4Y19303   6.628   5.990   5.168 -1.4496 -0.0425 -0.4004
  170SAPS   C3519304   6.678   6.132   5.015  0.8169 -0.4491 -0.4804
  170SAPS   H5X19305   6.785   6.104   5.001  1.3421  1.2942 -0.1398
  170SAPS   H5Y19306   6.677   6.243   5.009 -0.3183 -0.4371 -0.2996
  170SAPS   C3619307   6.589   6.071   4.905  1.1287  0.5016 -0.0553
  170SAPS   H6X19308   6.488   6.085   4.949  1.0992  1.8298 -0.4972
  170SAPS   H6Y19309   6.605   5.962   4.892  0.5705  0.6017 -1.8312
  170SAPS   C3719310   6.612   6.152   4.775 -0.0401 -0.0776 -0.3597
  170SAPS   H7X19311   6.717   6.142   4.738 -0.0200  1.9826 -1.0085
  170SAPS   H7Y19312   6.599   6.257   4.808  1.0949 -0.7402  2.4557
  170SAPS   C3819313   6.518   6.113   4.669  0.3362  0.9307  0.6737
  170SAPS   H8X19314   6.415   6.110   4.708 -0.4656 -3.2149 -1.1511
  170SAPS   H8Y19315   6.540   6.012   4.627 -1.8502  1.3329 -1.6509
  170SAPS   C3919316   6.509   6.204   4.548  0.4808  0.1369  0.4636
  170SAPS   H9X19317   6.488   6.304   4.590 -0.3170 -0.1359  0.7202
  170SAPS   H9Y19318   6.426   6.177   4.480 -0.2633  1.9151  0.6182
  170SAPS  C31019319   6.628   6.186   4.452 -0.2835 -0.4534 -0.5671
  170SAPS  H10X19320   6.654   6.079   4.464 -1.2566 -0.7497 -0.9912
  170SAPS  H10Y19321   6.719   6.238   4.487  0.1951 -0.2145 -2.0891
  170SAPS  C31119322   6.603   6.237   4.313 -0.3437 -0.1429  0.1230
  170SAPS  H11X19323   6.680   6.314   4.290 -0.7666  0.7976  1.7001
  170SAPS  H11Y19324   6.507   6.294   4.313 -0.3208 -0.0822  1.2190
  170SAPS  C31219325   6.594   6.122   4.210  0.4305 -0.0515  0.2030
  170SAPS  H12X19326   6.506   6.066   4.248 -0.2303  0.3697 -0.6721
  170SAPS  H12Y19327   6.690   6.067   4.222 -0.1592 -0.4592  4.3877
  170SAPS  C31319328   6.560   6.186   4.072  0.0285 -0.1434  0.0252
  170SAPS  H13X19329   6.641   6.261   4.058  0.7978 -0.8475  0.5989
  170SAPS  H13Y19330   6.462   6.238   4.076 -1.1210 -2.1359 -0.4035
  170SAPS  C31419331   6.557   6.085   3.956  0.6034  0.2450  0.2861
  170SAPS  H14X19332   6.655   6.051   3.917 -1.2766 -1.6179 -3.3087
  170SAPS  H14Y19333   6.502   6.124   3.868  1.5878  2.7924  0.7305
  170SAPS  C31519334   6.477   5.960   3.988  0.0526 -0.4402 -0.2953
  170SAPS  H15X19335   6.520   5.903   4.073 -0.1245 -0.8157 -0.4551
  170SAPS  H15Y19336   6.478   5.884   3.907  0.4347 -2.3275  1.3968
  170SAPS  C31619337   6.325   5.996   4.017 -0.3872  0.5170 -0.5925
  170SAPS  H16X19338   6.282   6.047   3.929  0.9016  0.6198 -1.1799
  170SAPS  H16Y19339   6.322   6.060   4.108 -0.2348  1.0926 -0.9937
  170SAPS  C31719340   6.246   5.862   4.034 -0.0869  0.2653  0.6198
  170SAPS  H17X19341   6.316   5.807   4.100  0.7143 -0.1433 -0.5358
  170SAPS  H17Y19342   6.244   5.811   3.935 -0.0999 -1.3350  1.4088
  170SAPS  C31819343   6.109   5.865   4.090  0.3464 -0.3435 -0.2234
  170SAPS  H18X19344   6.041   5.904   4.011  1.2353 -0.5865 -1.1192
  170SAPS  H18Y19345   6.108   5.923   4.185 -0.8250  0.1501 -0.5127
  170SAPS  H18Z19346   6.070   5.764   4.112  0.0653 -0.2699 -0.3676
  171SAPS     N19347   0.134   5.497   6.147  0.6726 -0.4875 -0.1434
  171SAPS   HN119348   0.156   5.521   6.245 -0.9859 -0.9204  0.3667
  171SAPS   HN219349   0.045   5.443   6.148  1.4007 -1.8104 -1.5428
  171SAPS   HN319350   0.211   5.437   6.110  0.5230 -0.4486 -0.5288
  171SAPS   C1219351   0.118   5.625   6.062  0.0417 -0.3059 -0.1057
  171SAPS  H12A19352   0.049   5.600   5.983  1.4253 -2.6701 -0.6888
  171SAPS   C1319353   0.051   5.745   6.134 -0.2348 -0.2251  0.0794
  171SAPS  O13A19354  -0.023   5.731   6.234 -0.1250 -0.5980  0.0076
  171SAPS  O13B19355   0.032   5.843   6.061  0.1934  0.2598  0.0310
  171SAPS   C1119356   0.258   5.663   6.000 -0.2116 -0.6430 -1.2577
  171SAPS  H11A19357   0.324   5.702   6.081 -5.3218 -0.1294  3.1664
  171SAPS  H11B19358   0.248   5.742   5.922 -0.3021 -2.0970 -2.7570
  171SAPS     P19359   0.471   5.554   5.892  0.2098  0.1636 -0.3590
  171SAPS   O1319360   0.523   5.689   5.928  0.0393 -0.3372 -0.1564
  171SAPS   O1419361   0.544   5.437   5.937 -0.0260 -0.1594 -0.4925
  171SAPS   O1219362   0.326   5.542   5.948 -0.8609  0.2671 -0.0944
  171SAPS   O1119363   0.443   5.548   5.734 -0.6089 -0.1663 -0.2198
  171SAPS    C119364   0.551   5.498   5.646 -0.1539 -0.9261  0.1739
  171SAPS    HA19365   0.617   5.419   5.687  0.8667 -0.1998 -0.0321
  171SAPS    HB19366   0.501   5.458   5.556 -1.1285  1.0543 -0.2093
  171SAPS    C219367   0.654   5.610   5.617  0.3052 -0.0468 -0.3423
  171SAPS    HS19368   0.718   5.613   5.708  0.2233  0.2619 -0.2944
  171SAPS   O2119369   0.588   5.739   5.588  0.5168 -0.2442 -0.9005
  171SAPS   C2119370   0.629   5.845   5.654 -0.0670 -0.9928 -0.6517
  171SAPS   O2219371   0.720   5.855   5.734  0.1073 -0.3943 -0.1285
  171SAPS   C2219372   0.533   5.959   5.615 -0.6408  0.8210 -0.3623
  171SAPS   H2R19373   0.431   5.922   5.594 -0.7128 -0.7690  2.3053
  171SAPS   H2S19374   0.513   6.016   5.708 -1.1854 -1.2906  0.8778
  171SAPS    C319375   0.741   5.567   5.493  0.4409  0.1843  0.4728
  171SAPS    HX19376   0.788   5.471   5.522  0.9464  0.3642  0.2724
  171SAPS    HY19377   0.831   5.631   5.478 -0.9914  2.0429 -0.7091
  171SAPS   O3119378   0.662   5.540   5.377 -0.0996 -0.4940 -0.2121
  171SAPS   C3119379   0.650   5.650   5.296 -0.1820 -0.0314  0.0336
  171SAPS   O3219380   0.695   5.757   5.326 -0.1977 -0.0035  0.2670
  171SAPS   C3219381   0.544   5.626   5.178 -0.1812  0.0664 -0.1589
  171SAPS   H2X19382   0.559   5.520   5.147  0.7883  0.4222 -0.9455
  171SAPS   H2Y19383   0.573   5.686   5.090 -0.4947 -1.1159 -1.0977
  171SAPS   C2319384   0.593   6.040   5.503  0.4808  0.2842  0.1777
  171SAPS   H3R19385   0.593   5.979   5.411 -3.4079  0.6673 -0.1998
  171SAPS   H3S19386   0.699   6.064   5.530  0.7594 -0.1262 -0.5253
  171SAPS   C2419387   0.503   6.160   5.468 -0.1909  0.3721  0.1055
  171SAPS   H4R19388   0.445   6.195   5.555 -3.3664 -0.4367 -1.5317
  171SAPS   H4S19389   0.418   6.134   5.402  0.1343 -2.1583  0.5502
  171SAPS   C2519390   0.582   6.275   5.404  0.1936 -0.0007 -0.4864
  171SAPS   H5R19391   0.643   6.332   5.477 -1.3356  0.9773  0.0755
  171SAPS   C2619392   0.557   6.330   5.280  0.0890  0.1027  0.1474
  171SAPS   H6R19393   0.629   6.403   5.240  0.5852  0.8300  2.2561
  171SAPS   C2719394   0.449   6.290   5.179  0.3857 -0.2989 -1.0264
  171SAPS   H7R19395   0.429   6.362   5.097 -0.3034  0.1182 -0.5018
  171SAPS   H7S19396   0.354   6.289   5.237  0.4517  4.4888 -0.4370
  171SAPS   C2819397   0.484   6.154   5.119  0.5644  0.2690 -0.0421
  171SAPS   H8R19398   0.552   6.090   5.178 -1.1307 -2.0435 -0.4590
  171SAPS   C2919399   0.428   6.101   5.009  0.5165 -0.5678  0.2703
  171SAPS   H9R19400   0.470   6.005   4.976 -1.9530 -1.9487  0.8508
  171SAPS  C21019401   0.324   6.162   4.919 -0.1423  0.2019 -0.2999
  171SAPS  H10R19402   0.371   6.174   4.819  1.3544  0.8362  0.4422
  171SAPS  H10S19403   0.298   6.262   4.960  0.7573 -0.4598  2.0258
  171SAPS  C21119404   0.201   6.076   4.910 -0.4420  0.5453 -0.2056
  171SAPS  H11R19405   0.132   6.079   4.996 -0.6537 -1.8280 -0.2224
  171SAPS  C21219406   0.162   6.007   4.803 -0.0939  0.5031 -0.0151
  171SAPS  H12R19407   0.065   5.955   4.804  0.0959  0.1518  1.7882
  171SAPS  C21319408   0.238   6.002   4.670  0.5437  0.5503 -0.2562
  171SAPS  H13R19409   0.185   5.923   4.614  0.6875  0.6067 -0.4730
  171SAPS  H13S19410   0.348   5.985   4.679  0.1829 -1.1029  1.7380
  171SAPS  C21419411   0.215   6.136   4.594  0.5852  0.3188  0.9414
  171SAPS  H14R19412   0.114   6.179   4.598  0.7898  0.8489  0.4246
  171SAPS  C21519413   0.311   6.181   4.511 -0.1196 -0.0812 -0.5476
  171SAPS  H15R19414   0.288   6.275   4.459  0.3279  0.4595  0.2089
  171SAPS  C21619415   0.453   6.141   4.493 -0.2021  0.1067  0.5344
  171SAPS  H16R19416   0.507   6.104   4.583  0.2535  1.6658  0.9230
  171SAPS  H16S19417   0.512   6.230   4.464 -0.8175  0.0188 -1.0762
  171SAPS  C21719418   0.479   6.046   4.366  0.1125  0.3073 -0.0082
  171SAPS  H17R19419   0.454   5.940   4.387 -2.0825  0.6560 -0.5697
  171SAPS  H17S19420   0.589   6.057   4.352  0.2682  1.5633  1.8725
  171SAPS  C21819421   0.405   6.086   4.242 -0.2442  0.3734 -0.6726
  171SAPS  H18R19422   0.413   6.193   4.214 -1.1455  0.5887 -0.1560
  171SAPS  H18S19423   0.300   6.053   4.260  0.4253 -1.5745 -0.0564
  171SAPS  C21919424   0.447   6.005   4.120  0.0742 -0.3241 -0.1463
  171SAPS  H19R19425   0.443   5.897   4.143  0.8060 -0.2670  0.2902
  171SAPS  H19S19426   0.552   6.010   4.085 -0.7353 -1.8767 -3.0997
  171SAPS  C22019427   0.358   6.047   4.002  0.5311  0.6328 -0.0700
  171SAPS  H20R19428   0.390   6.151   3.978  1.9776 -0.2461 -2.3297
  171SAPS  H20S19429   0.253   6.041   4.036  0.0088 -1.6822 -1.7655
  171SAPS  H20T19430   0.378   5.982   3.913 -0.0419 -0.0041  0.2608
  171SAPS   C3319431   0.405   5.646   5.231  0.0750  0.5854  0.2302
  171SAPS   H3X19432   0.395   5.609   5.336  1.5000  2.8330  1.2458
  171SAPS   H3Y19433   0.334   5.583   5.174  0.2854 -0.2344  0.8509
  171SAPS   C3419434   0.362   5.793   5.216  0.7030 -1.1848 -0.7286
  171SAPS   H4X19435   0.358   5.826   5.110 -1.6371  0.8947 -0.0737
  171SAPS   H4Y19436   0.420   5.868   5.272 -1.1202 -0.6515  0.5276
  171SAPS   C3519437   0.227   5.822   5.277  0.3238 -0.1482  0.3743
  171SAPS   H5X19438   0.216   5.775   5.377 -0.6838  0.2611  0.4708
  171SAPS   H5Y19439   0.157   5.751   5.229 -0.6152  0.9284  0.0946
  171SAPS   C3619440   0.182   5.968   5.279  0.0296 -0.7847 -0.1463
  171SAPS   H6X19441   0.232   6.026   5.199  0.2651 -0.9748 -0.1368
  171SAPS   H6Y19442   0.225   6.010   5.373 -0.1203 -0.6558 -0.1358
  171SAPS   C3719443   0.030   6.002   5.289  0.3803 -0.4635 -0.8023
  171SAPS   H7X19444  -0.023   5.955   5.375 -0.3216  0.5797 -0.6353
  171SAPS   H7Y19445  -0.029   5.961   5.205 -1.7719 -3.2442  1.8426
  171SAPS   C3819446   0.013   6.151   5.328 -0.0831 -0.3766 -0.4804
  171SAPS   H8X19447   0.098   6.199   5.380  0.1633 -0.1428 -1.0949
  171SAPS   H8Y19448  -0.082   6.167   5.384  0.0887 -1.4941  0.1689
  171SAPS   C3919449  -0.008   6.237   5.205 -0.1191 -0.2957 -0.4909
  171SAPS   H9X19450  -0.084   6.194   5.136 -0.5626  0.3443 -0.4119
  171SAPS   H9Y19451   0.086   6.248   5.147 -0.4359  0.6832 -0.8342
  171SAPS  C31019452  -0.045   6.385   5.237  0.6613 -0.3869  0.7506
  171SAPS  H10X19453   0.013   6.433   5.319  0.0791  1.6758  0.0269
  171SAPS  H10Y19454  -0.148   6.380   5.277  0.6410 -1.2254  0.6116
  171SAPS  C31119455  -0.056   6.477   5.115  0.7448  0.4328  0.1202
  171SAPS  H11X19456   0.049   6.476   5.076 -0.3502 -1.8491 -3.1982
  171SAPS  H11Y19457  -0.081   6.580   5.147  1.5165  1.7085 -2.9845
  171SAPS  C31219458  -0.157   6.430   5.004 -0.1939 -0.6085  0.4005
  171SAPS  H12X19459  -0.256   6.464   5.042 -1.5995 -2.9445 -0.9191
  171SAPS  H12Y19460  -0.153   6.319   4.995  2.2098 -0.6220  0.8288
  171SAPS  C31319461  -0.134   6.486   4.861 -0.0329  1.1351  0.0276
  171SAPS  H13X19462  -0.177   6.417   4.785 -0.1873 -0.2087  1.2984
  171SAPS  H13Y19463  -0.024   6.481   4.847  0.1087 -0.0416  1.3845
  171SAPS  C31419464  -0.181   6.630   4.832 -0.2302 -1.0086 -0.3976
  171SAPS  H14X19465  -0.160   6.682   4.928 -1.8490  0.2306 -0.6618
  171SAPS  H14Y19466  -0.292   6.633   4.828 -0.2728 -0.3307  0.7086
  171SAPS  C31519467  -0.120   6.683   4.707 -0.6009  0.1840  0.0554
  171SAPS  H15X19468  -0.155   6.622   4.621 -1.9719 -1.2791  1.5919
  171SAPS  H15Y19469  -0.014   6.652   4.703 -1.2147 -2.3060  1.0796
  171SAPS  C31619470  -0.130   6.833   4.674 -0.0955 -0.5661  0.5993
  171SAPS  H16X19471  -0.109   6.849   4.566 -1.6900  1.4375  0.5314
  171SAPS  H16Y19472  -0.056   6.883   4.740 -1.5011 -0.3117  2.0213
  171SAPS  C31719473  -0.257   6.905   4.707  0.3282  0.9618  0.7283
  171SAPS  H17X19474  -0.281   6.884   4.813  0.5465 -2.4771  0.2430
  171SAPS  H17Y19475  -0.343   6.879   4.641 -0.2307  0.2172  1.7164
  171SAPS  C31819476  -0.246   7.056   4.698 -0.2947 -0.5201  0.0763
  171SAPS  H18X19477  -0.329   7.103   4.754  1.3794  1.2342  1.2127
  171SAPS  H18Y19478  -0.260   7.084   4.591  2.7763 -3.1656 -1.2063
  171SAPS  H18Z19479  -0.148   7.091   4.736  0.0664  0.6395 -1.8062
  172SAPS     N19480   0.195   6.015   6.184 -0.4845  0.2107  0.0101
  172SAPS   HN119481   0.270   6.042   6.117 -2.2425  2.8306 -1.0833
  172SAPS   HN219482   0.230   5.954   6.261 -1.9406  1.6527  1.9141
  172SAPS   HN319483   0.124   5.967   6.124 -2.4711 -2.5869  4.1416
  172SAPS   C1219484   0.129   6.132   6.248  0.2508 -0.3260  0.4240
  172SAPS  H12A19485   0.050   6.101   6.315  1.0032  0.4514  1.7131
  172SAPS   C1319486   0.224   6.212   6.335 -0.9120 -0.3262  0.0541
  172SAPS  O13A19487   0.347   6.186   6.334  0.2758 -0.1748 -0.1005
  172SAPS  O13B19488   0.188   6.319   6.392 -0.0877 -0.1474 -0.0839
  172SAPS   C1119489   0.066   6.226   6.135 -0.4837 -0.4323  0.0705
  172SAPS  H11A19490   0.151   6.248   6.067 -0.2049 -1.2332  0.1529
  172SAPS  H11B19491   0.030   6.317   6.188  0.4841  0.6245 -1.0425
  172SAPS     P19492  -0.181   6.227   6.042  0.1375  0.2930  0.1448
  172SAPS   O1319493  -0.268   6.137   5.966 -0.1750 -0.0339 -0.1949
  172SAPS   O1419494  -0.233   6.273   6.177  0.2047  0.2990  0.2060
  172SAPS   O1219495  -0.039   6.157   6.060 -0.6163  0.2445  0.3603
  172SAPS   O1119496  -0.148   6.359   5.951 -0.0232 -0.3696  0.0427
  172SAPS    C119497  -0.085   6.338   5.824 -0.4236  0.0828  0.5856
  172SAPS    HA19498  -0.004   6.262   5.833  1.9509  2.4416  0.4369
  172SAPS    HB19499  -0.152   6.294   5.748  3.0229 -2.6688 -1.1860
  172SAPS    C219500  -0.008   6.459   5.776 -0.2848 -0.3185  0.1012
  172SAPS    HS19501   0.080   6.473   5.843 -0.1987 -0.5706  0.0421
  172SAPS   O2119502  -0.101   6.567   5.782  0.7152 -0.1884 -0.6956
  172SAPS   C2119503  -0.070   6.680   5.843  0.0994  0.4810 -0.3927
  172SAPS   O2219504   0.039   6.702   5.895  0.4672  0.1360  0.0638
  172SAPS   C2219505  -0.183   6.781   5.834 -0.5467  0.2206 -0.4497
  172SAPS   H2R19506  -0.248   6.747   5.917 -0.2908 -0.0593 -0.3609
  172SAPS   H2S19507  -0.143   6.883   5.850 -0.9000  0.2542  0.2280
  172SAPS    C319508   0.049   6.441   5.628 -0.3064  0.3359 -0.3412
  172SAPS    HX19509  -0.032   6.432   5.553  1.7331  2.7391 -3.0570
  172SAPS    HY19510   0.107   6.346   5.629  1.2011  1.2208 -0.2198
  172SAPS   O3119511   0.120   6.557   5.592  0.1787  0.4264  0.3268
  172SAPS   C3119512   0.250   6.547   5.610 -0.4067 -1.0202  0.8322
  172SAPS   O3219513   0.306   6.470   5.684  0.6117 -0.4884 -0.4332
  172SAPS   C3219514   0.330   6.649   5.521  1.0309 -0.5715  0.0591
  172SAPS   H2X19515   0.439   6.646   5.541  0.8271 -1.4438  1.1440
  172SAPS   H2Y19516   0.295   6.749   5.553  1.3909 -0.2859 -0.4213
  172SAPS   C2319517  -0.269   6.796   5.701  0.1025  0.6637  0.4148
  172SAPS   H3R19518  -0.374   6.817   5.730 -0.3838  0.9179 -1.3840
  172SAPS   H3S19519  -0.289   6.695   5.659  0.7461  0.6932  0.0224
  172SAPS   C2419520  -0.209   6.886   5.587  0.4577 -0.2799 -0.4170
  172SAPS   H4R19521  -0.215   6.987   5.633  1.3914 -0.3493 -0.1019
  172SAPS   H4S19522  -0.282   6.876   5.505 -0.4657 -0.9965  0.4751
  172SAPS   C2519523  -0.073   6.854   5.543 -0.6004  0.1059  0.4071
  172SAPS   H5R19524   0.003   6.845   5.621 -0.2748  0.3243  0.1157
  172SAPS   C2619525  -0.033   6.837   5.419  0.2176  0.4118 -0.2184
  172SAPS   H6R19526   0.076   6.832   5.405  0.2175 -0.4359  0.0158
  172SAPS   C2719527  -0.117   6.847   5.288 -1.0849 -0.5624 -0.4359
  172SAPS   H7R19528  -0.176   6.941   5.271 -0.2603 -0.4107 -2.8307
  172SAPS   H7S19529  -0.186   6.760   5.287 -0.8599 -0.7412 -0.3025
  172SAPS   C2819530  -0.018   6.855   5.175  0.1849 -0.2020  0.6519
  172SAPS   H8R19531   0.008   6.754   5.139 -0.9697 -0.1722 -0.3178
  172SAPS   C2919532   0.023   6.960   5.099  0.0134 -0.1198  0.1934
  172SAPS   H9R19533   0.092   6.939   5.015 -0.4056 -0.8829  0.0331
  172SAPS  C21019534  -0.014   7.104   5.122  0.0331  0.5932 -0.4102
  172SAPS  H10R19535  -0.008   7.119   5.232 -1.3727 -0.8691 -0.0914
  172SAPS  H10S19536  -0.115   7.120   5.078  0.1915  1.4976 -0.4696
  172SAPS  C21119537   0.100   7.196   5.068  1.0586  0.0788 -0.3437
  172SAPS  H11R19538   0.196   7.143   5.055  1.7245  1.1000  0.2836
  172SAPS  C21219539   0.096   7.328   5.058  0.2396  0.2115  0.1769
  172SAPS  H12R19540   0.178   7.381   5.007 -1.0778 -0.5757 -2.9951
  172SAPS  C21319541  -0.014   7.419   5.093  0.1599 -0.5204 -0.1128
  172SAPS  H13R19542  -0.117   7.380   5.078 -0.2805 -0.4085  2.2242
  172SAPS  H13S19543  -0.006   7.494   5.011  0.2376 -1.3030 -0.8350
  172SAPS  C21419544  -0.005   7.477   5.234 -0.3695 -1.1463  0.1039
  172SAPS  H14R19545   0.091   7.525   5.257 -1.7655  0.9733  2.0053
  172SAPS  C21519546  -0.091   7.496   5.331 -0.9469  0.4679 -0.0302
  172SAPS  H15R19547  -0.059   7.563   5.412  0.1258 -0.7376  0.5880
  172SAPS  C21619548  -0.233   7.453   5.346 -0.2565 -0.3848  0.1184
  172SAPS  H16R19549  -0.239   7.344   5.367  1.9563 -0.1668  2.3345
  172SAPS  H16S19550  -0.298   7.477   5.259 -2.4017 -0.1125  1.6890
  172SAPS  C21719551  -0.295   7.520   5.467 -0.0466 -0.6407  0.4330
  172SAPS  H17R19552  -0.395   7.475   5.479  0.1217 -0.9065  0.8590
  172SAPS  H17S19553  -0.316   7.628   5.451 -1.8986 -0.6400  2.5584
  172SAPS  C21819554  -0.234   7.484   5.598 -0.7038 -0.0611  0.3602
  172SAPS  H18R19555  -0.140   7.537   5.620 -1.6118  1.5616  0.4972
  172SAPS  H18S19556  -0.221   7.375   5.615 -0.1837 -0.0873 -0.1746
  172SAPS  C21919557  -0.315   7.537   5.718 -0.0139 -1.1963 -0.2663
  172SAPS  H19R19558  -0.423   7.511   5.713 -0.6663  1.3174 -0.3211
  172SAPS  H19S19559  -0.310   7.647   5.730 -1.7751 -1.2006  0.7599
  172SAPS  C22019560  -0.263   7.485   5.855 -0.3978  0.2421  0.1559
  172SAPS  H20R19561  -0.285   7.376   5.862 -0.6460  0.2526 -0.4756
  172SAPS  H20S19562  -0.310   7.541   5.939 -0.7458  1.8770 -1.0999
  172SAPS  H20T19563  -0.153   7.501   5.858 -0.4318  0.7971 -1.1553
  172SAPS   C3319564   0.309   6.625   5.365  0.1621  0.7182 -0.0711
  172SAPS   H3X19565   0.199   6.615   5.353  0.4056 -2.4053 -0.6946
  172SAPS   H3Y19566   0.363   6.533   5.336  0.0947  0.8402 -0.5932
  172SAPS   C3419567   0.350   6.746   5.282 -0.9105 -0.5087  0.8707
  172SAPS   H4X19568   0.458   6.754   5.305  0.0912 -3.3359 -2.0099
  172SAPS   H4Y19569   0.306   6.844   5.312  0.3329  0.4759 -0.3536
  172SAPS   C3519570   0.321   6.724   5.141  0.1013  1.3726 -0.0939
  172SAPS   H5X19571   0.215   6.696   5.127  0.3217 -0.0596  0.8651
  172SAPS   H5Y19572   0.389   6.641   5.111 -1.0317  0.4048 -0.0735
  172SAPS   C3619573   0.358   6.842   5.046  0.3038  0.5915 -1.0477
  172SAPS   H6X19574   0.468   6.857   5.051  0.9299 -3.2952  0.8025
  172SAPS   H6Y19575   0.319   6.930   5.101 -1.0555 -1.0623  0.8051
  172SAPS   C3719576   0.306   6.838   4.903  0.1433 -0.1662  0.5959
  172SAPS   H7X19577   0.196   6.822   4.904  0.0880 -0.2041 -1.3793
  172SAPS   H7Y19578   0.345   6.750   4.846 -2.7713 -2.4751  1.9017
  172SAPS   C3819579   0.320   6.971   4.832 -0.2205  0.1665 -0.5584
  172SAPS   H8X19580   0.430   6.981   4.821 -0.2327 -1.0681 -2.2163
  172SAPS   H8Y19581   0.285   7.063   4.883  0.6863  1.5825 -2.3626
  172SAPS   C3919582   0.263   6.969   4.689  0.5154  0.5197 -0.0023
  172SAPS   H9X19583   0.159   6.929   4.687  1.6375 -2.6508  0.4932
  172SAPS   H9Y19584   0.323   6.895   4.632  0.1711  1.5427 -1.7697
  172SAPS  C31019585   0.254   7.101   4.618  0.0350  0.9177 -0.5647
  172SAPS  H10X19586   0.348   7.130   4.566  1.9594 -1.4100  1.3633
  172SAPS  H10Y19587   0.256   7.166   4.708 -0.6396 -3.0760  2.6452
  172SAPS  C31119588   0.131   7.106   4.526  0.0700  0.1816  0.0245
  172SAPS  H11X19589   0.110   7.209   4.490 -2.1297 -1.2271 -3.1740
  172SAPS  H11Y19590   0.043   7.071   4.583 -0.0668  0.3258 -0.0994
  172SAPS  C31219591   0.143   7.020   4.396 -0.7371  0.2048 -0.5511
  172SAPS  H12X19592   0.139   6.912   4.423 -2.4901  0.6645  1.2787
  172SAPS  H12Y19593   0.231   7.039   4.331 -1.9915  1.6797 -1.9188
  172SAPS  C31319594   0.016   7.054   4.310  1.2136  0.1813  0.4949
  172SAPS  H13X19595  -0.007   7.163   4.319  0.4021  0.0387  0.2408
  172SAPS  H13Y19596  -0.064   6.998   4.362  2.7793 -1.9193  0.7483
  172SAPS  C31419597   0.024   7.013   4.163  0.8097 -0.4110 -0.3293
  172SAPS  H14X19598   0.078   7.098   4.115 -0.6337  0.8485  0.2263
  172SAPS  H14Y19599  -0.080   7.023   4.127 -0.1287  1.0602  2.5363
  172SAPS  C31519600   0.073   6.876   4.129  0.4332  0.2569  1.0117
  172SAPS  H15X19601   0.020   6.805   4.195 -1.1584  1.3029  0.9167
  172SAPS  H15Y19602   0.175   6.856   4.168  0.0374 -2.3200  0.8719
  172SAPS  C31619603   0.060   6.835   3.980  0.2953 -0.4414 -0.7358
  172SAPS  H16X19604   0.119   6.743   3.961  1.1875  0.1657 -0.9435
  172SAPS  H16Y19605  -0.049   6.821   3.961 -0.7810  0.9182  3.2792
  172SAPS  C31719606   0.120   6.936   3.883 -1.5075  0.3686  0.4318
  172SAPS  H17X19607   0.229   6.923   3.898 -1.7290 -1.5089  0.6351
  172SAPS  H17Y19608   0.093   7.040   3.912 -2.6810  0.5018 -1.0311
  172SAPS  C31819609   0.080   6.907   3.739 -0.0097 -0.7488 -0.8129
  172SAPS  H18X19610   0.118   6.810   3.699 -0.7246 -0.9609 -0.9921
  172SAPS  H18Y19611   0.133   6.975   3.669 -0.6410 -1.3199 -1.8719
  172SAPS  H18Z19612  -0.030   6.914   3.723  0.1012 -0.8746 -1.7074
  173SAPS     N19613   5.751   4.136   1.568 -0.0951 -0.2001 -0.0193
  173SAPS   HN119614   5.827   4.071   1.539 -0.3344  0.1437 -1.4953
  173SAPS   HN219615   5.744   4.205   1.491  1.0394 -0.7669 -0.6581
  173SAPS   HN319616   5.789   4.192   1.647  0.4073 -0.3929 -0.1153
  173SAPS   C1219617   5.628   4.073   1.595  0.2419  0.3216  0.4729
  173SAPS  H12A19618   5.553   4.141   1.631 -1.9295 -2.5264  1.6871
  173SAPS   C1319619   5.578   3.989   1.470  0.2742 -0.4316  0.1342
  173SAPS  O13A19620   5.614   4.025   1.357  0.8523  0.4388  0.2990
  173SAPS  O13B19621   5.469   3.920   1.490  0.6504 -0.1900 -0.2526
  173SAPS   C1119622   5.658   3.977   1.715  0.1552 -0.2242  0.2706
  173SAPS  H11A19623   5.739   3.908   1.684  0.4560  0.6830 -1.0313
  173SAPS  H11B19624   5.565   3.920   1.735  0.6929 -1.4048 -0.5127
  173SAPS     P19625   5.616   4.117   1.942 -0.6012 -0.4035  0.1128
  173SAPS   O1319626   5.690   4.229   2.012 -0.0298  0.6401 -0.4247
  173SAPS   O1419627   5.490   4.139   1.874  0.1997  0.1612  0.5487
  173SAPS   O1219628   5.701   4.047   1.829 -0.1026 -0.1734  0.2130
  173SAPS   O1119629   5.602   3.992   2.033 -0.4316  0.5391 -0.0076
  173SAPS    C119630   5.551   3.993   2.164 -0.6392  0.3887 -0.4633
  173SAPS    HA19631   5.555   3.888   2.199  0.8291  0.5318 -0.1361
  173SAPS    HB19632   5.607   4.063   2.230 -0.5053 -1.5712  1.6128
  173SAPS    C219633   5.399   4.028   2.174 -0.1589 -0.0520  0.6290
  173SAPS    HS19634   5.348   3.975   2.091  0.1019 -0.2136  0.5700
  173SAPS   O2119635   5.379   4.169   2.157 -0.7400 -0.0828 -0.0671
  173SAPS   C2119636   5.262   4.207   2.116  0.3027 -0.5262 -0.6584
  173SAPS   O2219637   5.169   4.133   2.094 -0.3143  0.4632 -0.2564
  173SAPS   C2219638   5.263   4.355   2.106  1.1125 -0.4647 -0.1596
  173SAPS   H2R19639   5.328   4.402   2.184  1.1836 -1.2233  0.2511
  173SAPS   H2S19640   5.292   4.385   2.004  0.3620  0.0946 -0.2123
  173SAPS    C319641   5.329   3.972   2.299  0.0547 -0.8603 -0.2699
  173SAPS    HX19642   5.222   4.002   2.302 -0.0339 -1.0521 -1.2080
  173SAPS    HY19643   5.377   4.020   2.387 -0.1093  0.9140 -1.1028
  173SAPS   O3119644   5.343   3.832   2.320 -0.2162  0.4534 -0.1731
  173SAPS   C3119645   5.260   3.748   2.264  0.5781  0.0982  0.2687
  173SAPS   O3219646   5.159   3.773   2.194  0.8205  0.2716 -0.2554
  173SAPS   C3219647   5.290   3.609   2.314 -0.4464  0.1984  0.8371
  173SAPS   H2X19648   5.332   3.611   2.417 -1.1737  0.3743  1.1368
  173SAPS   H2Y19649   5.374   3.561   2.259 -0.9412 -0.0272  0.2639
  173SAPS   C2319650   5.118   4.410   2.149 -0.2007  0.2406 -0.0926
  173SAPS   H3R19651   5.076   4.389   2.249 -1.1667  0.9297 -0.3369
  173SAPS   H3S19652   5.058   4.355   2.074  1.8064 -1.0170 -0.8832
  173SAPS   C2419653   5.104   4.559   2.109 -0.3440  0.6810 -0.2699
  173SAPS   H4R19654   4.998   4.585   2.127  0.0232  1.2092  1.3036
  173SAPS   H4S19655   5.115   4.573   1.999  1.7177 -1.2558 -0.3864
  173SAPS   C2519656   5.187   4.663   2.181  0.7041 -0.0454 -0.2612
  173SAPS   H5R19657   5.279   4.700   2.134  1.4953 -0.4943  0.8921
  173SAPS   C2619658   5.164   4.688   2.314  0.3326  0.3102  1.0308
  173SAPS   H6R19659   5.237   4.749   2.370  1.2768 -0.6807  0.9285
  173SAPS   C2719660   5.058   4.623   2.403  0.3184 -0.2541  0.1779
  173SAPS   H7R19661   5.104   4.527   2.434  1.5416  0.2644  0.0063
  173SAPS   H7S19662   4.974   4.593   2.336  0.3136 -0.6545  0.3573
  173SAPS   C2819663   5.019   4.718   2.509 -0.0919  0.5023 -0.2348
  173SAPS   H8R19664   5.031   4.824   2.482 -1.2682  1.0994  1.3826
  173SAPS   C2919665   4.984   4.683   2.632  0.6772  0.2962  0.3663
  173SAPS   H9R19666   4.963   4.763   2.705 -1.3694  0.7737 -0.6705
  173SAPS  C21019667   4.949   4.543   2.682 -0.6845 -0.4434  0.2634
  173SAPS  H10R19668   4.919   4.483   2.593 -0.2254 -0.9066  0.4185
  173SAPS  H10S19669   4.860   4.555   2.747  0.5982  0.2108  1.9584
  173SAPS  C21119670   5.054   4.480   2.762  0.8936  0.1236 -0.4672
  173SAPS  H11R19671   5.110   4.556   2.819  1.1629 -0.3165 -0.1393
  173SAPS  C21219672   5.091   4.352   2.747  0.2762  0.1217  0.5655
  173SAPS  H12R19673   5.180   4.332   2.809  0.8088 -0.5615 -0.3960
  173SAPS  C21319674   5.037   4.239   2.659 -0.0294  0.2429 -0.0623
  173SAPS  H13R19675   4.930   4.223   2.687 -0.0111  0.2257 -0.0009
  173SAPS  H13S19676   5.085   4.142   2.683 -0.7633 -0.2638 -0.5655
  173SAPS  C21419677   5.044   4.263   2.510  0.3601 -0.0156  0.6074
  173SAPS  H14R19678   5.103   4.347   2.470  0.9751 -0.4479  0.5823
  173SAPS  C21519679   4.971   4.190   2.419  0.1920 -0.1372  0.5229
  173SAPS  H15R19680   4.976   4.220   2.313  1.7075 -2.0370  0.0030
  173SAPS  C21619681   4.876   4.074   2.452 -0.0168 -0.6878  0.6405
  173SAPS  H16R19682   4.852   4.029   2.354  0.2245 -1.0088  0.7266
  173SAPS  H16S19683   4.777   4.111   2.487 -0.0456  0.4302 -0.5567
  173SAPS  C21719684   4.927   3.959   2.541  0.1718 -0.4510 -0.5672
  173SAPS  H17R19685   4.911   3.986   2.648 -0.1226 -3.9673  0.4114
  173SAPS  H17S19686   5.036   3.948   2.526  0.2792  0.3964 -0.4452
  173SAPS  C21819687   4.851   3.833   2.521  0.4337 -0.4151  0.4046
  173SAPS  H18R19688   4.834   3.816   2.412 -0.5028 -1.2139  0.6728
  173SAPS  H18S19689   4.745   3.833   2.553  0.6077  0.6581  1.0113
  173SAPS  C21919690   4.922   3.713   2.583  0.8412 -0.2828 -0.3710
  173SAPS  H19R19691   4.919   3.728   2.693 -2.1354 -1.6097 -0.1853
  173SAPS  H19S19692   5.023   3.696   2.540 -0.0046 -1.2631 -2.0666
  173SAPS  C22019693   4.858   3.583   2.553  0.1873  0.1295  0.4066
  173SAPS  H20R19694   4.812   3.583   2.452 -0.1090 -0.6937  0.5316
  173SAPS  H20S19695   4.772   3.558   2.620 -2.0173  2.0649 -1.5167
  173SAPS  H20T19696   4.928   3.498   2.559  1.2238  0.7972 -1.4466
  173SAPS   C3319697   5.163   3.528   2.294  1.5944 -0.4645 -0.0384
  173SAPS   H3X19698   5.127   3.511   2.190 -1.2146  0.5742  0.6653
  173SAPS   H3Y19699   5.077   3.582   2.340 -1.0706 -2.9982 -1.6846
  173SAPS   C3419700   5.166   3.403   2.377 -0.0442 -0.2050  0.5370
  173SAPS   H4X19701   5.231   3.329   2.326  2.6472  2.2162  0.2056
  173SAPS   H4Y19702   5.063   3.362   2.380 -0.0305 -0.4465 -1.0739
  173SAPS   C3519703   5.211   3.421   2.522  0.5100 -1.0455  0.0257
  173SAPS   H5X19704   5.184   3.528   2.540  2.1670 -0.5728 -0.1623
  173SAPS   H5Y19705   5.318   3.398   2.541 -0.5250 -3.3292  4.0102
  173SAPS   C3619706   5.140   3.325   2.617 -0.0459  0.4174 -0.9693
  173SAPS   H6X19707   5.171   3.220   2.596 -1.1844  0.4879 -3.2414
  173SAPS   H6Y19708   5.030   3.329   2.607 -0.1929 -0.4219  0.0760
  173SAPS   C3719709   5.179   3.345   2.772  0.4242 -0.0588  0.1442
  173SAPS   H7X19710   5.287   3.370   2.771  0.6315 -0.8168  1.5201
  173SAPS   H7Y19711   5.149   3.247   2.815  0.1340 -0.1689 -0.2981
  173SAPS   C3819712   5.094   3.450   2.848 -0.5191  0.0482 -0.3146
  173SAPS   H8X19713   4.995   3.401   2.851  1.1635 -4.0531 -2.7328
  173SAPS   H8Y19714   5.100   3.551   2.801 -2.1616 -0.6047 -2.0454
  173SAPS   C3919715   5.145   3.464   2.998  0.4015  0.2653  0.2274
  173SAPS   H9X19716   5.251   3.494   2.983  1.5037 -0.7649  4.6230
  173SAPS   H9Y19717   5.160   3.363   3.041  0.7725  0.6047  0.8951
  173SAPS  C31019718   5.052   3.542   3.091  0.9834 -0.5009 -0.9172
  173SAPS  H10X19719   5.001   3.617   3.026 -0.9840 -2.3800 -1.6795
  173SAPS  H10Y19720   5.108   3.593   3.172 -1.1871 -1.2071  1.1333
  173SAPS  C31119721   4.945   3.464   3.178  0.0507 -0.0369 -0.1293
  173SAPS  H11X19722   5.005   3.386   3.230  0.1611 -0.1701 -0.4523
  173SAPS  H11Y19723   4.884   3.427   3.093  0.2019  1.8437 -1.1192
  173SAPS  C31219724   4.864   3.543   3.275 -0.0798 -0.0433 -0.2851
  173SAPS  H12X19725   4.809   3.629   3.232 -0.3672 -0.6359 -1.1400
  173SAPS  H12Y19726   4.922   3.590   3.358 -2.1330  1.1307  0.5696
  173SAPS  C31319727   4.750   3.457   3.336  0.5954  0.1358 -0.5557
  173SAPS  H13X19728   4.797   3.379   3.400  1.2193  1.9835  1.3243
  173SAPS  H13Y19729   4.694   3.402   3.257 -0.1428 -0.9148  0.6548
  173SAPS  C31419730   4.648   3.541   3.424 -0.0949 -0.5669 -0.2421
  173SAPS  H14X19731   4.583   3.602   3.357  0.8271 -0.5137 -1.1141
  173SAPS  H14Y19732   4.705   3.616   3.483 -0.1949 -1.2169  0.6989
  173SAPS  C31519733   4.566   3.446   3.514  0.2509 -0.5357 -0.1393
  173SAPS  H15X19734   4.639   3.386   3.572 -0.5293 -1.6246 -0.2468
  173SAPS  H15Y19735   4.514   3.375   3.446  0.3997  2.0154 -3.1772
  173SAPS  C31619736   4.471   3.518   3.612  0.0229 -0.2938 -0.0297
  173SAPS  H16X19737   4.423   3.590   3.542  1.4521  0.8954  0.1805
  173SAPS  H16Y19738   4.531   3.589   3.672  1.0427  0.4928 -1.8761
  173SAPS  C31719739   4.369   3.435   3.691  0.5969  0.0528 -0.0832
  173SAPS  H17X19740   4.418   3.356   3.751  0.1491  0.3612  0.6969
  173SAPS  H17Y19741   4.310   3.367   3.625  0.0781 -0.5602  0.9812
  173SAPS  C31819742   4.272   3.524   3.778  0.2513  0.1655  0.9287
  173SAPS  H18X19743   4.265   3.626   3.734 -1.1713 -0.5760 -0.6910
  173SAPS  H18Y19744   4.311   3.527   3.882 -1.2545 -0.7639  1.5537
  173SAPS  H18Z19745   4.167   3.488   3.787 -0.2984  1.6543  0.7268
  174SAPS     N19746   1.975   3.112   1.955  0.1383 -0.1656 -0.0701
  174SAPS   HN119747   2.069   3.150   1.932  0.3043 -0.3796  0.2374
  174SAPS   HN219748   1.921   3.180   2.013  1.5826  0.3095  0.7617
  174SAPS   HN319749   1.991   3.023   2.006  1.0341 -0.2106 -0.4138
  174SAPS   C1219750   1.894   3.074   1.831  0.5581  0.6703  0.0098
  174SAPS  H12A19751   1.887   3.158   1.763 -0.3016 -0.5352 -1.4436
  174SAPS   C1319752   1.943   2.952   1.749 -0.4753  0.3015 -0.6090
  174SAPS  O13A19753   2.054   2.901   1.785 -1.3301  0.1473 -0.2321
  174SAPS  O13B19754   1.894   2.933   1.636  0.5332 -0.2046 -0.3535
  174SAPS   C1119755   1.747   3.029   1.873  0.0445  0.4028  0.4782
  174SAPS  H11A19756   1.749   2.948   1.948 -0.3575 -0.3629 -0.3221
  174SAPS  H11B19757   1.689   2.991   1.787 -0.4919  0.1571  0.9437
  174SAPS     P19758   1.523   3.174   1.907  0.2506 -0.0797 -0.6821
  174SAPS   O1319759   1.495   3.312   1.938 -0.3621 -0.3755  0.4101
  174SAPS   O1419760   1.483   3.118   1.772 -0.5478 -0.4650 -0.0598
  174SAPS   O1219761   1.681   3.151   1.914  0.4153 -0.5055 -0.7090
  174SAPS   O1119762   1.481   3.083   2.035  0.2425 -0.3726 -0.0891
  174SAPS    C119763   1.437   2.947   2.017 -0.9191  0.6301  0.6063
  174SAPS    HA19764   1.340   2.943   1.964 -0.8789  0.0794  0.5664
  174SAPS    HB19765   1.511   2.896   1.951 -1.2373  0.2037  0.5686
  174SAPS    C219766   1.429   2.865   2.151 -0.8796  0.6245 -0.6791
  174SAPS    HS19767   1.380   2.770   2.122 -0.8598  0.9872 -1.9914
  174SAPS   O2119768   1.360   2.945   2.255  0.1879  0.3716 -0.0409
  174SAPS   C2119769   1.232   2.922   2.259  0.4408 -0.1598 -0.2013
  174SAPS   O2219770   1.175   2.842   2.190 -0.3671 -1.0916 -0.9253
  174SAPS   C2219771   1.158   3.011   2.356  0.0512  0.4008 -0.5563
  174SAPS   H2R19772   1.139   3.112   2.314 -0.3558 -0.0250 -1.4171
  174SAPS   H2S19773   1.059   2.973   2.391  0.0217  1.3480  0.4385
  174SAPS    C319774   1.570   2.849   2.201  0.0453  0.2431  0.3371
  174SAPS    HX19775   1.616   2.949   2.219  0.9884  0.0011 -0.6299
  174SAPS    HY19776   1.633   2.797   2.125 -0.7913  0.6226 -0.6438
  174SAPS   O3119777   1.573   2.773   2.325 -0.2828  0.2811 -0.2197
  174SAPS   C3119778   1.701   2.744   2.358 -0.6689  0.2601  0.0642
  174SAPS   O3219779   1.804   2.793   2.305  0.0041 -0.0604  0.3813
  174SAPS   C3219780   1.711   2.643   2.481 -0.5372 -0.2817  0.9156
  174SAPS   H2X19781   1.815   2.614   2.507 -1.6397 -3.5364  2.1724
  174SAPS   H2Y19782   1.671   2.548   2.439  0.3889 -0.1910 -0.2297
  174SAPS   C2319783   1.251   3.034   2.477 -0.1213  0.2439 -0.8298
  174SAPS   H3R19784   1.330   3.104   2.442  0.6382  0.6910  1.5754
  174SAPS   H3S19785   1.299   2.940   2.512  0.4907  0.5417 -0.8505
  174SAPS   C2419786   1.186   3.101   2.600 -0.1803 -0.2025  0.7114
  174SAPS   H4R19787   1.262   3.145   2.668 -0.3001 -0.3776  0.9616
  174SAPS   H4S19788   1.131   3.022   2.655 -2.9353 -0.5458 -2.2734
  174SAPS   C2519789   1.082   3.201   2.569 -0.2901 -0.4641 -0.1018
  174SAPS   H5R19790   0.979   3.166   2.554 -0.6341  0.1217  0.7524
  174SAPS   C2619791   1.086   3.333   2.579 -0.0868  0.1394 -0.1219
  174SAPS   H6R19792   0.985   3.376   2.577 -0.0937  0.1598  0.5735
  174SAPS   C2719793   1.196   3.423   2.629  0.3433  1.3422  0.1320
  174SAPS   H7R19794   1.266   3.375   2.701  0.1269  0.4787 -0.2317
  174SAPS   H7S19795   1.136   3.501   2.682 -0.6128  1.4672 -1.0699
  174SAPS   C2819796   1.278   3.482   2.521 -0.3291  0.4206 -0.0206
  174SAPS   H8R19797   1.309   3.424   2.433 -0.2764  1.6316 -0.8152
  174SAPS   C2919798   1.314   3.610   2.513 -0.4401  0.1553 -0.5525
  174SAPS   H9R19799   1.363   3.639   2.419  1.1294  2.2244  0.8147
  174SAPS  C21019800   1.272   3.716   2.611 -1.3113  0.0913 -0.0269
  174SAPS  H10R19801   1.277   3.681   2.717  0.4484  2.5098  0.7635
  174SAPS  H10S19802   1.162   3.725   2.596 -1.4820 -0.4901  0.7337
  174SAPS  C21119803   1.374   3.830   2.595  0.2226 -0.2898 -0.5342
  174SAPS  H11R19804   1.369   3.879   2.497  4.4623 -0.2990 -0.9252
  174SAPS  C21219805   1.471   3.867   2.683  0.0989 -0.3549  0.4714
  174SAPS  H12R19806   1.533   3.953   2.653  1.8604 -1.6816  0.2273
  174SAPS  C21319807   1.493   3.812   2.819  0.0072  0.4207 -0.2765
  174SAPS  H13R19808   1.396   3.777   2.859 -0.3780  1.5908 -0.1456
  174SAPS  H13S19809   1.517   3.899   2.884  0.2515  0.6475 -0.6628
  174SAPS  C21419810   1.598   3.707   2.815 -0.1833 -0.6529  1.0216
  174SAPS  H14R19811   1.609   3.642   2.728  0.7139  1.8795 -0.8883
  174SAPS  C21519812   1.684   3.696   2.918 -0.0191  0.6910  0.0932
  174SAPS  H15R19813   1.744   3.604   2.921 -0.2735  0.5360  2.4334
  174SAPS  C21619814   1.697   3.794   3.030 -0.7073  0.1535 -0.1975
  174SAPS  H16R19815   1.678   3.895   2.986 -3.2158 -1.2752 -2.7264
  174SAPS  H16S19816   1.801   3.794   3.068 -0.8529 -1.1043  0.2468
  174SAPS  C21719817   1.601   3.771   3.149 -0.4057 -0.6422  0.6430
  174SAPS  H17R19818   1.496   3.771   3.111  0.2831 -2.2586 -1.4500
  174SAPS  H17S19819   1.605   3.866   3.207 -0.8547  1.1399 -2.0574
  174SAPS  C21819820   1.629   3.655   3.241  0.0715 -0.0492  0.0844
  174SAPS  H18R19821   1.735   3.670   3.272 -0.3738  1.5065  0.9252
  174SAPS  H18S19822   1.619   3.562   3.181 -2.2522 -0.0530  0.3936
  174SAPS  C21919823   1.548   3.650   3.367 -0.5493 -0.1853 -0.1258
  174SAPS  H19R19824   1.442   3.645   3.333 -0.6460 -2.0037  0.3584
  174SAPS  H19S19825   1.565   3.739   3.431 -2.5111  0.2755 -0.1861
  174SAPS  C22019826   1.586   3.526   3.464 -0.0022 -1.3104  0.4570
  174SAPS  H20R19827   1.595   3.434   3.403  3.1481 -1.5962  1.1559
  174SAPS  H20S19828   1.506   3.512   3.540  1.8357 -1.1576  2.5355
  174SAPS  H20T19829   1.687   3.553   3.503 -0.0210 -0.2072 -0.2129
  174SAPS   C3319830   1.620   2.688   2.593  0.3384 -1.1039  0.0192
  174SAPS   H3X19831   1.612   2.604   2.664 -1.5090 -0.2346  0.9186
  174SAPS   H3Y19832   1.517   2.713   2.557  0.9672 -1.4590 -2.1754
  174SAPS   C3419833   1.664   2.820   2.664  0.3051 -0.1143 -0.7391
  174SAPS   H4X19834   1.611   2.910   2.627 -0.7615 -0.3844  0.1063
  174SAPS   H4Y19835   1.773   2.829   2.642 -0.0049 -2.7145 -4.0836
  174SAPS   C3519836   1.642   2.816   2.820 -0.0312  0.4393  0.3371
  174SAPS   H5X19837   1.531   2.814   2.825 -0.0524 -0.7548 -0.2228
  174SAPS   H5Y19838   1.678   2.911   2.863  1.5656  0.1343 -0.2493
  174SAPS   C3619839   1.713   2.703   2.897 -0.3183  0.5765 -0.4095
  174SAPS   H6X19840   1.823   2.712   2.882 -0.3368 -1.3889 -2.2505
  174SAPS   H6Y19841   1.681   2.602   2.861 -0.3640  1.0722 -1.8237
  174SAPS   C3719842   1.680   2.719   3.042 -0.8402  0.0150 -0.2759
  174SAPS   H7X19843   1.570   2.729   3.060 -0.8842 -2.3947  1.2721
  174SAPS   H7Y19844   1.732   2.806   3.087  0.8216 -0.4142 -1.2851
  174SAPS   C3819845   1.719   2.592   3.123 -0.0089 -0.1236  0.0351
  174SAPS   H8X19846   1.830   2.588   3.134  0.0026 -1.6514 -0.3558
  174SAPS   H8Y19847   1.684   2.512   3.053  1.7385 -0.7328 -0.1970
  174SAPS   C3919848   1.660   2.573   3.266  0.2162  0.1615  1.0191
  174SAPS   H9X19849   1.718   2.484   3.299  0.1442  0.0768  0.9173
  174SAPS   H9Y19850   1.551   2.559   3.256  0.4579 -1.8241  0.8702
  174SAPS  C31019851   1.696   2.694   3.341  0.7232 -0.1706 -0.5757
  174SAPS  H10X19852   1.627   2.775   3.309 -1.8857 -1.5699  1.1273
  174SAPS  H10Y19853   1.802   2.723   3.331  1.7200 -2.7501  1.5079
  174SAPS  C31119854   1.673   2.678   3.489 -0.1067  0.4390 -0.3030
  174SAPS  H11X19855   1.568   2.648   3.512 -1.2765  3.2965 -1.4075
  174SAPS  H11Y19856   1.684   2.777   3.537  1.4174  0.8780 -1.4996
  174SAPS  C31219857   1.777   2.583   3.552 -0.2306  0.2650  0.0113
  174SAPS  H12X19858   1.876   2.635   3.556  0.1638 -0.5644  1.9462
  174SAPS  H12Y19859   1.791   2.488   3.496 -0.8083 -0.7099  1.4829
  174SAPS  C31319860   1.721   2.531   3.683  0.1151 -0.3462  0.0152
  174SAPS  H13X19861   1.704   2.613   3.756  1.5230  0.5155 -0.5860
  174SAPS  H13Y19862   1.808   2.471   3.716  2.3283  2.4766 -0.3131
  174SAPS  C31419863   1.599   2.441   3.670 -0.1199 -0.5876  0.0112
  174SAPS  H14X19864   1.593   2.381   3.576 -2.2021  0.5960 -0.6768
  174SAPS  H14Y19865   1.503   2.496   3.672 -1.0770 -2.0863 -1.4823
  174SAPS  C31519866   1.594   2.348   3.794 -0.1386  0.9971 -0.3068
  174SAPS  H15X19867   1.585   2.419   3.879  2.1258 -0.1007  0.9304
  174SAPS  H15Y19868   1.691   2.298   3.813 -0.6625 -1.0988 -2.6012
  174SAPS  C31619869   1.478   2.250   3.804  0.0033 -0.0710  0.4118
  174SAPS  H16X19870   1.489   2.190   3.711 -0.5842  2.1137 -1.1366
  174SAPS  H16Y19871   1.383   2.304   3.788 -0.2654 -0.6304  0.0727
  174SAPS  C31719872   1.486   2.171   3.935  0.5168 -0.3204  0.6462
  174SAPS  H17X19873   1.481   2.234   4.026 -1.9871  0.6692 -0.0890
  174SAPS  H17Y19874   1.581   2.114   3.929  0.0845 -0.8814 -2.3263
  174SAPS  C31819875   1.377   2.058   3.939  0.1889 -0.2191  0.5898
  174SAPS  H18X19876   1.274   2.100   3.940  0.1497 -0.2458 -0.7535
  174SAPS  H18Y19877   1.391   1.986   4.022 -2.0073 -0.0588  1.1537
  174SAPS  H18Z19878   1.389   2.003   3.843  0.6868  2.3787 -0.9425
  175SAPS     N19879   4.823   2.138   2.077 -0.1026 -0.6399 -0.1283
  175SAPS   HN119880   4.864   2.128   2.172 -1.9933  0.8113  0.9308
  175SAPS   HN219881   4.900   2.165   2.013  0.1108  1.7034  1.0040
  175SAPS   HN319882   4.767   2.226   2.074  0.6380  0.0637  3.1449
  175SAPS   C1219883   4.750   2.022   2.027  0.0424 -0.8028 -0.2639
  175SAPS  H12A19884   4.691   1.997   2.114 -0.7029 -1.7860 -1.0317
  175SAPS   C1319885   4.650   2.039   1.909 -0.4942  0.5165  0.2932
  175SAPS  O13A19886   4.657   2.147   1.850 -0.0170 -0.8585 -0.3321
  175SAPS  O13B19887   4.588   1.943   1.851 -0.3869 -0.3354 -0.6419
  175SAPS   C1119888   4.859   1.913   1.999 -0.2885  0.5342  0.0127
  175SAPS  H11A19889   4.921   1.959   1.920 -1.0742  2.3173  0.3750
  175SAPS  H11B19890   4.793   1.830   1.966 -1.1842  0.9905  0.6029
  175SAPS     P19891   5.057   1.812   2.133  0.1414  0.3298  0.0206
  175SAPS   O1319892   5.047   1.681   2.064 -0.2772 -0.0230 -0.3031
  175SAPS   O1419893   5.156   1.907   2.072 -0.2635  0.6120  0.2098
  175SAPS   O1219894   4.922   1.877   2.123 -0.0826  0.4664  0.0786
  175SAPS   O1119895   5.085   1.815   2.298  0.5972  0.4932 -0.4490
  175SAPS    C119896   5.004   1.727   2.377 -0.2119  0.0391 -0.1662
  175SAPS    HA19897   5.011   1.626   2.331  2.5953  0.8090 -1.6793
  175SAPS    HB19898   5.054   1.718   2.476 -0.8028 -0.9401  0.0583
  175SAPS    C219899   4.867   1.784   2.420  0.3186  0.4649  0.5410
  175SAPS    HS19900   4.816   1.811   2.325 -0.0454 -2.7169 -0.2926
  175SAPS   O2119901   4.905   1.901   2.499 -0.4252  0.1687 -0.1458
  175SAPS   C2119902   4.806   1.976   2.535  0.7267 -0.4694 -0.4349
  175SAPS   O2219903   4.689   1.966   2.498 -0.1824 -0.1628  0.0271
  175SAPS   C2219904   4.847   2.087   2.639  0.0224  0.2565  0.2451
  175SAPS   H2R19905   4.863   2.030   2.733 -0.2893  0.1808  0.2551
  175SAPS   H2S19906   4.943   2.125   2.597  0.8536 -1.9159  0.0660
  175SAPS    C319907   4.781   1.679   2.496  0.2887  0.6062 -0.0667
  175SAPS    HX19908   4.742   1.600   2.428  0.0718  0.5716  0.0932
  175SAPS    HY19909   4.691   1.732   2.534  1.3194  0.7079  2.3853
  175SAPS   O3119910   4.850   1.616   2.607  0.4247 -0.5598  0.3394
  175SAPS   C3119911   4.859   1.683   2.723 -0.0506  0.1546 -0.2721
  175SAPS   O3219912   4.816   1.795   2.755 -0.5067 -0.1096  0.7271
  175SAPS   C3219913   4.919   1.587   2.829 -0.3720  0.2448  0.2309
  175SAPS   H2X19914   4.936   1.493   2.773  0.3876 -0.5514  1.7359
  175SAPS   H2Y19915   4.849   1.567   2.914 -0.0776  0.1618  0.4533
  175SAPS   C2319916   4.744   2.195   2.676 -0.0287  0.3557 -0.6783
  175SAPS   H3R19917   4.660   2.154   2.736  1.2634  0.1491  1.0583
  175SAPS   H3S19918   4.711   2.249   2.585  1.0717 -0.8581 -1.8365
  175SAPS   C2419919   4.811   2.302   2.771 -0.0756  0.4655 -0.6235
  175SAPS   H4R19920   4.895   2.340   2.710 -1.0619  0.3481 -2.1092
  175SAPS   H4S19921   4.849   2.240   2.855 -1.7039 -1.1778 -1.0364
  175SAPS   C2519922   4.718   2.411   2.826 -0.3884  0.2978  0.2950
  175SAPS   H5R19923   4.690   2.486   2.750 -0.5051  0.6870  0.7230
  175SAPS   C2619924   4.676   2.425   2.948  0.8296  0.1534 -0.9047
  175SAPS   H6R19925   4.620   2.517   2.970  0.6080 -0.1705 -0.0611
  175SAPS   C2719926   4.699   2.333   3.066 -1.0010  0.5724  0.6589
  175SAPS   H7R19927   4.777   2.376   3.133  0.3983  1.0840 -1.2169
  175SAPS   H7S19928   4.748   2.242   3.027  1.9602  2.1181  0.4751
  175SAPS   C2819929   4.572   2.287   3.134 -0.2872 -0.6025 -0.4118
  175SAPS   H8R19930   4.484   2.319   3.075  0.6663  0.9032 -1.0910
  175SAPS   C2919931   4.575   2.207   3.239  0.8564  0.2152 -0.2628
  175SAPS   H9R19932   4.475   2.194   3.283 -0.9559  3.2628 -3.0281
  175SAPS  C21019933   4.694   2.156   3.314 -0.3152 -0.5331 -0.2944
  175SAPS  H10R19934   4.770   2.125   3.239 -0.5572  2.2991 -1.8758
  175SAPS  H10S19935   4.662   2.062   3.364  3.4914 -2.4217 -1.0186
  175SAPS  C21119936   4.744   2.258   3.407 -0.3324 -0.1847 -0.7412
  175SAPS  H11R19937   4.770   2.359   3.372 -1.2899  0.4476  0.3001
  175SAPS  C21219938   4.727   2.248   3.542  0.2695 -0.7754 -0.0901
  175SAPS  H12R19939   4.769   2.326   3.607 -2.3251  1.0178 -0.3987
  175SAPS  C21319940   4.648   2.147   3.619  0.0522  0.4954  0.0999
  175SAPS  H13R19941   4.655   2.180   3.725  0.5585  0.1619  0.1735
  175SAPS  H13S19942   4.712   2.057   3.612  2.2173  1.4397  4.2312
  175SAPS  C21419943   4.500   2.118   3.593  0.8245  0.3890 -0.6063
  175SAPS  H14R19944   4.472   2.134   3.487 -1.8356 -0.2932 -0.0652
  175SAPS  C21519945   4.400   2.096   3.683 -0.0135 -0.9061  0.7463
  175SAPS  H15R19946   4.303   2.074   3.636 -0.1433  2.8744 -1.1330
  175SAPS  C21619947   4.416   2.075   3.831 -0.3271  0.0530 -0.5192
  175SAPS  H16R19948   4.323   2.100   3.887 -0.3612 -0.8918 -0.1377
  175SAPS  H16S19949   4.497   2.138   3.872  0.5954 -1.9304  0.8421
  175SAPS  C21719950   4.467   1.928   3.861 -0.0517  0.0922 -0.3459
  175SAPS  H17R19951   4.543   1.902   3.784 -0.5259  1.2335 -1.2230
  175SAPS  H17S19952   4.386   1.854   3.846 -2.2358  2.2442  0.1650
  175SAPS  C21819953   4.546   1.908   3.993  0.0373  0.4839 -0.2908
  175SAPS  H18R19954   4.551   1.798   4.009 -0.0048  0.5634  0.2833
  175SAPS  H18S19955   4.474   1.945   4.068 -2.3893 -2.3197 -1.0531
  175SAPS  C21919956   4.688   1.957   4.013 -0.0239  0.0372  0.0858
  175SAPS  H19R19957   4.720   1.937   4.117 -3.1898  3.4103  1.9758
  175SAPS  H19S19958   4.681   2.067   3.996  0.3167 -0.0939 -0.9421
  175SAPS  C22019959   4.792   1.898   3.918 -0.2067  0.8384 -0.5564
  175SAPS  H20R19960   4.821   1.800   3.962  0.2502 -0.4520 -3.4912
  175SAPS  H20S19961   4.890   1.950   3.914  1.1547 -1.3420  1.4445
  175SAPS  H20T19962   4.754   1.892   3.814 -1.5384 -1.6596 -0.0179
  175SAPS   C3319963   5.047   1.649   2.893 -0.2774  0.9566 -0.0437
  175SAPS   H3X19964   5.020   1.737   2.955 -1.9928 -0.4631  1.3358
  175SAPS   H3Y19965   5.126   1.685   2.824 -1.3782  2.3129 -0.6544
  175SAPS   C3419966   5.123   1.550   2.981  0.1886  0.2733  0.7449
  175SAPS   H4X19967   5.158   1.469   2.913  2.1469  1.5328  0.1811
  175SAPS   H4Y19968   5.052   1.502   3.052  0.5576 -2.2391 -0.4853
  175SAPS   C3519969   5.241   1.613   3.040  0.6384 -0.1160  0.7842
  175SAPS   H5X19970   5.211   1.700   3.103  2.6451  0.9733  0.3244
  175SAPS   H5Y19971   5.302   1.647   2.953  0.3237 -0.6941  0.3343
  175SAPS   C3619972   5.316   1.526   3.136 -0.2118 -0.1055  0.2154
  175SAPS   H6X19973   5.337   1.426   3.093  1.8248  1.2922 -2.3357
  175SAPS   H6Y19974   5.248   1.503   3.221 -0.6870  1.0562  0.1637
  175SAPS   C3719975   5.445   1.571   3.194 -0.9395 -0.2341  0.4912
  175SAPS   H7X19976   5.442   1.663   3.256  2.2236  1.0453 -1.0409
  175SAPS   H7Y19977   5.525   1.586   3.119 -1.9774  0.0934 -0.5815
  175SAPS   C3819978   5.496   1.466   3.295 -0.0785  0.1911  0.0106
  175SAPS   H8X19979   5.520   1.364   3.257 -0.8383 -0.9112  2.3163
  175SAPS   H8Y19980   5.413   1.457   3.368 -1.8847 -2.7376 -2.2097
  175SAPS   C3919981   5.632   1.514   3.361  0.2914  0.2345  0.4457
  175SAPS   H9X19982   5.619   1.613   3.410  0.8196  0.2868  0.4912
  175SAPS   H9Y19983   5.688   1.545   3.270 -0.1342 -1.0919 -0.2949
  175SAPS  C31019984   5.698   1.406   3.450 -0.4870 -0.5003  0.2287
  175SAPS  H10X19985   5.702   1.312   3.391 -1.1440 -0.6960  0.4879
  175SAPS  H10Y19986   5.637   1.385   3.540  1.2004 -0.6163  1.3770
  175SAPS  C31119987   5.844   1.450   3.483 -0.7087 -0.2037  0.3249
  175SAPS  H11X19988   5.842   1.559   3.502  1.2440  0.0013 -0.3501
  175SAPS  H11Y19989   5.914   1.442   3.397 -1.6550 -0.6490 -0.4212
  175SAPS  C31219990   5.913   1.365   3.589  0.6201 -0.2106 -0.6204
  175SAPS  H12X19991   5.904   1.255   3.573  0.3708 -0.6128  1.8204
  175SAPS  H12Y19992   5.864   1.390   3.686  0.5453 -2.5427  0.0153
  175SAPS  C31319993   6.056   1.401   3.620 -0.3365  0.5326 -0.0715
  175SAPS  H13X19994   6.122   1.366   3.538  2.7858  0.1282  2.3946
  175SAPS  H13Y19995   6.079   1.339   3.709 -1.9980 -1.8661 -1.2099
  175SAPS  C31419996   6.094   1.543   3.659  0.0797 -0.1971  0.1988
  175SAPS  H14X19997   6.032   1.606   3.592 -0.6779 -0.6522  0.4486
  175SAPS  H14Y19998   6.202   1.558   3.640 -0.0674  0.4015 -0.1836
  175SAPS  C31519999   6.050   1.572   3.808  0.2232  0.4329 -0.1336
  175SAPS  H15X20000   5.950   1.526   3.816 -0.4966  1.1875 -3.2721
  175SAPS  H15Y20001   6.041   1.682   3.817  3.3910  0.8245 -0.3540
  175SAPS  C31620002   6.146   1.511   3.914  0.4815 -0.6041  0.0577
  175SAPS  H16X20003   6.249   1.549   3.892  0.0923  0.7479  0.4840
  175SAPS  H16Y20004   6.138   1.401   3.896  0.1254 -0.3346 -1.5396
  175SAPS  C31720005   6.112   1.543   4.057  0.1153 -0.2496 -0.2017
  175SAPS  H17X20006   6.003   1.533   4.077 -0.0085 -0.5436 -0.9931
  175SAPS  H17Y20007   6.133   1.649   4.082 -1.4044  0.4878 -1.8408
  175SAPS  C31820008   6.175   1.449   4.162 -0.6627 -0.7469  0.2912
  175SAPS  H18X20009   6.274   1.481   4.201  0.0564 -1.2665 -1.0440
  175SAPS  H18Y20010   6.186   1.356   4.103 -0.5959  0.9579 -2.5987
  175SAPS  H18Z20011   6.115   1.435   4.255  1.5692  1.4641  2.1990
  176SAPS     N20012   3.169   1.076   1.944 -0.2354 -0.3063  0.4571
  176SAPS   HN120013   3.088   1.037   1.890  1.7033 -1.2080 -1.9773
  176SAPS   HN220014   3.209   1.161   1.900 -0.2274 -1.8294 -2.7696
  176SAPS   HN320015   3.234   0.995   1.953 -0.5485 -0.6515 -0.2359
  176SAPS   C1220016   3.110   1.107   2.078 -0.2913  0.6255  0.0267
  176SAPS  H12A20017   3.199   1.106   2.140  0.5431 -0.3591 -1.1558
  176SAPS   C1320018   3.045   1.244   2.091 -0.8617  0.3087  0.0607
  176SAPS  O13A20019   3.060   1.330   1.999 -0.0925  0.3383  0.9202
  176SAPS  O13B20020   2.981   1.268   2.200 -0.1261 -0.6048  0.2035
  176SAPS   C1120021   3.027   0.987   2.136  1.1451  0.0435  0.0248
  176SAPS  H11A20022   2.979   1.015   2.232 -1.7302 -0.7269 -1.0640
  176SAPS  H11B20023   3.096   0.904   2.163  0.9732 -0.7857 -1.9106
  176SAPS     P20024   2.910   0.823   1.972 -0.2175 -0.3543  0.0612
  176SAPS   O1320025   2.774   0.825   1.911 -0.6048 -0.1778 -0.3835
  176SAPS   O1420026   3.029   0.839   1.879  0.0977  0.1972  0.1823
  176SAPS   O1220027   2.919   0.956   2.050  0.0309 -0.5067 -0.3482
  176SAPS   O1120028   2.926   0.717   2.093 -0.7214  0.3654 -0.7403
  176SAPS    C120029   2.863   0.728   2.218 -0.7224 -0.5671 -0.6368
  176SAPS    HA20030   2.874   0.830   2.262 -1.2750 -1.1367  0.9012
  176SAPS    HB20031   2.755   0.711   2.201 -0.7950 -1.3937  0.5141
  176SAPS    C220032   2.902   0.619   2.320 -0.1962  0.7940  0.2489
  176SAPS    HS20033   2.818   0.620   2.393 -1.1752 -3.1577 -0.6137
  176SAPS   O2120034   3.027   0.656   2.383 -0.3983  0.3211 -0.4386
  176SAPS   C2120035   3.050   0.599   2.496  0.4094 -0.7463 -0.2152
  176SAPS   O2220036   2.973   0.517   2.544  0.2367  0.1246 -0.2390
  176SAPS   C2220037   3.181   0.640   2.553  0.2724  0.0594 -0.6287
  176SAPS   H2R20038   3.228   0.549   2.596  0.4857  0.1825 -0.6013
  176SAPS   H2S20039   3.250   0.673   2.473 -3.3208  1.5743 -3.3681
  176SAPS    C320040   2.907   0.478   2.252 -0.6918  1.4773  0.6340
  176SAPS    HX20041   2.972   0.484   2.162 -2.1344  1.7029 -0.4344
  176SAPS    HY20042   2.803   0.460   2.217 -0.1866 -0.9209  0.2029
  176SAPS   O3120043   2.947   0.369   2.338  0.6742  0.0521 -0.4198
  176SAPS   C3120044   3.071   0.333   2.325 -1.1396  0.1313 -0.5726
  176SAPS   O3220045   3.155   0.387   2.256  0.0522 -0.7320  0.1331
  176SAPS   C3220046   3.090   0.205   2.414  0.1702  0.2411  0.0343
  176SAPS   H2X20047   3.017   0.122   2.400  2.0618 -1.5614  0.4193
  176SAPS   H2Y20048   3.078   0.237   2.520 -2.4654  0.3038 -0.2156
  176SAPS   C2320049   3.172   0.730   2.673  0.4349  0.0371 -0.5033
  176SAPS   H3R20050   3.081   0.794   2.660 -1.9145 -2.9843  0.0222
  176SAPS   H3S20051   3.256   0.803   2.670  0.3598  0.1009 -2.2264
  176SAPS   C2420052   3.174   0.655   2.809  0.2490 -0.9394 -0.0449
  176SAPS   H4R20053   3.279   0.636   2.840  0.8257  1.1328 -0.5999
  176SAPS   H4S20054   3.123   0.556   2.806 -0.2355 -0.7209  0.5576
  176SAPS   C2520055   3.117   0.740   2.926  0.9364 -0.1230  0.0344
  176SAPS   H5R20056   3.124   0.848   2.904  0.9162 -0.2580 -0.6796
  176SAPS   C2620057   3.071   0.687   3.044  0.4916  0.0898 -0.3877
  176SAPS   H6R20058   3.035   0.758   3.120  0.7144  1.7599 -1.7683
  176SAPS   C2720059   3.076   0.530   3.063 -0.2242 -0.1760  0.1735
  176SAPS   H7R20060   3.180   0.504   3.091  0.7234  2.1571 -0.8955
  176SAPS   H7S20061   3.042   0.473   2.974  1.6994 -0.5361 -0.3755
  176SAPS   C2820062   2.990   0.481   3.173  0.4601  0.2232 -0.4128
  176SAPS   H8R20063   2.899   0.428   3.140 -0.0111  1.3244 -0.9480
  176SAPS   C2920064   3.002   0.511   3.302 -0.2487 -0.7821  0.1796
  176SAPS   H9R20065   2.933   0.465   3.374 -0.9769  0.7141  0.4842
  176SAPS  C21020066   3.110   0.603   3.358 -0.4843  0.1636  0.4415
  176SAPS  H10R20067   3.088   0.648   3.458 -0.4484  0.6652  0.2236
  176SAPS  H10S20068   3.136   0.686   3.289 -3.0714  1.1529  0.5351
  176SAPS  C21120069   3.242   0.536   3.379 -0.5548  0.0461  0.5444
  176SAPS  H11R20070   3.260   0.468   3.294  1.4486  1.7141 -0.4822
  176SAPS  C21220071   3.342   0.562   3.466 -0.0839  0.4938  0.2430
  176SAPS  H12R20072   3.433   0.500   3.460  1.7058  2.3965  4.1914
  176SAPS  C21320073   3.333   0.656   3.589  0.5843 -0.1532 -0.4149
  176SAPS  H13R20074   3.289   0.756   3.567 -0.4053 -0.6680 -0.8547
  176SAPS  H13S20075   3.438   0.668   3.623 -0.2826  3.0780  1.5797
  176SAPS  C21420076   3.243   0.605   3.699  0.2322 -0.0622  0.0972
  176SAPS  H14R20077   3.163   0.538   3.664 -0.2261  0.9766 -0.9073
  176SAPS  C21520078   3.253   0.634   3.831 -0.7150 -0.2361  0.0631
  176SAPS  H15R20079   3.192   0.584   3.907  0.2053  1.7678  2.2391
  176SAPS  C21620080   3.366   0.713   3.894  0.0226 -0.6123 -0.2774
  176SAPS  H16R20081   3.439   0.757   3.822  3.1375 -1.5498  2.0830
  176SAPS  H16S20082   3.425   0.655   3.968 -0.0103  0.0448  0.2760
  176SAPS  C21720083   3.311   0.827   3.976  0.0606 -0.1322  0.2853
  176SAPS  H17R20084   3.245   0.795   4.059 -1.1072 -1.1396 -0.9900
  176SAPS  H17S20085   3.258   0.903   3.915  0.0213 -2.2993 -2.5935
  176SAPS  C21820086   3.419   0.907   4.045 -0.0073 -0.2569 -0.3479
  176SAPS  H18R20087   3.483   0.845   4.112  0.4012  0.3614 -0.1621
  176SAPS  H18S20088   3.366   0.987   4.100 -0.3414  0.1282 -1.2190
  176SAPS  C21920089   3.520   0.993   3.955  0.0746 -0.0040  0.1091
  176SAPS  H19R20090   3.585   0.923   3.898 -0.3153  0.5707 -1.0523
  176SAPS  H19S20091   3.599   1.043   4.016 -0.9582 -0.4194  1.8724
  176SAPS  C22020092   3.460   1.095   3.857 -0.3267 -0.5142 -0.2427
  176SAPS  H20R20093   3.385   1.162   3.904 -1.8968 -0.9194 -2.0291
  176SAPS  H20S20094   3.407   1.046   3.773 -0.5214 -0.2982 -0.2470
  176SAPS  H20T20095   3.544   1.162   3.828 -1.1054 -0.5143 -2.6936
  176SAPS   C3320096   3.222   0.141   2.384 -0.2155 -0.6785  0.6348
  176SAPS   H3X20097   3.306   0.213   2.391 -0.6753 -0.1090  0.3177
  176SAPS   H3Y20098   3.219   0.095   2.282 -0.0950 -0.1849  0.4076
  176SAPS   C3420099   3.273   0.048   2.490 -0.5984 -0.4743  0.3557
  176SAPS   H4X20100   3.374   0.010   2.463 -0.6039 -1.0663  1.1389
  176SAPS   H4Y20101   3.207  -0.041   2.476 -0.5487  0.0040 -5.2483
  176SAPS   C3520102   3.278   0.096   2.637  0.3633  0.1781  0.2519
  176SAPS   H5X20103   3.332   0.015   2.691  3.8414  2.8316  1.1211
  176SAPS   H5Y20104   3.176   0.103   2.682 -0.0091 -1.2401 -0.3011
  176SAPS   C3620105   3.362   0.218   2.677 -0.1472 -0.6547 -0.6352
  176SAPS   H6X20106   3.303   0.310   2.656  1.0110 -0.0259 -1.1892
  176SAPS   H6Y20107   3.451   0.229   2.612  0.2568  2.1566  0.2299
  176SAPS   C3720108   3.408   0.205   2.821  0.1169 -0.3709  0.3570
  176SAPS   H7X20109   3.489   0.278   2.842  0.8567 -0.3632 -2.2511
  176SAPS   H7Y20110   3.442   0.101   2.843 -1.6974 -1.3104 -1.0047
  176SAPS   C3820111   3.303   0.238   2.924  0.0228  0.3480 -0.5353
  176SAPS   H8X20112   3.223   0.165   2.897  1.6921 -1.7491 -0.1299
  176SAPS   H8Y20113   3.283   0.347   2.919 -3.4616 -0.1677 -0.2504
  176SAPS   C3920114   3.353   0.223   3.076 -0.2135  0.0312  0.9329
  176SAPS   H9X20115   3.301   0.303   3.133 -2.0848  1.2372 -2.2060
  176SAPS   H9Y20116   3.460   0.244   3.058 -0.2064 -1.0358 -0.4132
  176SAPS  C31020117   3.330   0.093   3.145  0.2473  0.0629  0.2340
  176SAPS  H10X20118   3.387   0.009   3.099  0.9106  0.5771  0.1145
  176SAPS  H10Y20119   3.221   0.071   3.142 -0.0511  1.3757  0.8839
  176SAPS  C31120120   3.356   0.107   3.298  0.8282  0.3169 -0.0323
  176SAPS  H11X20121   3.312   0.011   3.332  0.9490  0.1924 -0.2258
  176SAPS  H11Y20122   3.299   0.190   3.344 -1.3552 -0.9432 -0.3026
  176SAPS  C31220123   3.501   0.112   3.350 -0.8301  0.1696 -0.0644
  176SAPS  H12X20124   3.553   0.198   3.302  0.2379  1.2323  2.7557
  176SAPS  H12Y20125   3.554   0.021   3.315  2.4535  1.7272  0.4688
  176SAPS  C31320126   3.526   0.096   3.502 -0.6353  0.2641 -0.6169
  176SAPS  H13X20127   3.633   0.096   3.530 -1.1969 -1.0820  1.7773
  176SAPS  H13Y20128   3.503  -0.007   3.534  2.8928 -1.0114 -1.6871
  176SAPS  C31420129   3.447   0.200   3.588  0.5108 -0.5139  0.0539
  176SAPS  H14X20130   3.340   0.190   3.562  0.5958  0.5305 -0.7750
  176SAPS  H14Y20131   3.477   0.300   3.549  0.9329 -0.0847  1.4411
  176SAPS  C31520132   3.470   0.181   3.738 -0.0427  0.4995 -0.5744
  176SAPS  H15X20133   3.574   0.215   3.758  0.5938 -1.3255 -0.6505
  176SAPS  H15Y20134   3.469   0.071   3.753  2.0533  0.6228  1.0868
  176SAPS  C31620135   3.356   0.249   3.810 -0.5300  0.4723 -0.3603
  176SAPS  H16X20136   3.257   0.199   3.794  0.0163 -0.3602 -1.2382
  176SAPS  H16Y20137   3.358   0.356   3.782  1.4452  1.2854  2.4873
  176SAPS  C31720138   3.377   0.244   3.967  0.2826  0.5527  0.0530
  176SAPS  H17X20139   3.286   0.286   4.016  1.6937  1.5718  1.9170
  176SAPS  H17Y20140   3.466   0.298   4.004  1.6954 -2.3561  1.2137
  176SAPS  C31820141   3.393   0.099   4.027 -0.4366 -0.1803  0.3287
  176SAPS  H18X20142   3.386   0.103   4.138  1.5765 -1.1504  0.5193
  176SAPS  H18Y20143   3.493   0.060   4.001 -0.1537  0.9941 -0.4485
  176SAPS  H18Z20144   3.317   0.032   3.983 -1.3418  0.5014  0.7944
  177SAPS     N20145   6.998   2.038   1.532 -0.3550  0.0735  0.0070
  177SAPS   HN120146   6.932   2.035   1.451 -0.2689  0.6597 -0.0883
  177SAPS   HN220147   7.095   2.019   1.499 -0.2489 -1.7362  1.2192
  177SAPS   HN320148   6.967   1.967   1.601 -0.1678  0.9636  1.0227
  177SAPS   C1220149   6.971   2.172   1.586 -0.4155 -0.0267 -0.0283
  177SAPS  H12A20150   7.027   2.185   1.677  0.7988  0.6162 -0.8387
  177SAPS   C1320151   7.003   2.285   1.487 -0.4604  0.8083 -0.0668
  177SAPS  O13A20152   7.076   2.248   1.384  0.2654 -0.4961  0.0791
  177SAPS  O13B20153   6.996   2.408   1.513  0.3158 -0.2081 -0.3283
  177SAPS   C1120154   6.824   2.187   1.620 -0.2667  0.4085 -0.1866
  177SAPS  H11A20155   6.754   2.159   1.539  0.2535  0.2913 -0.6016
  177SAPS  H11B20156   6.804   2.295   1.636  3.0805  1.0791  0.3386
  177SAPS     P20157   6.647   2.131   1.794 -0.3637 -0.0858 -0.1366
  177SAPS   O1320158   6.611   2.274   1.809  0.2041  0.2873 -0.3697
  177SAPS   O1420159   6.556   2.048   1.719 -1.2115  0.4629 -0.0491
  177SAPS   O1220160   6.792   2.106   1.739 -0.5890 -1.1387  0.2814
  177SAPS   O1120161   6.662   2.062   1.938 -0.4339 -0.5259 -0.0835
  177SAPS    C120162   6.723   1.933   1.969  1.0757 -0.3978  0.0924
  177SAPS    HA20163   6.643   1.857   1.962  0.4716  0.3139 -1.3258
  177SAPS    HB20164   6.807   1.915   1.899  2.5344 -0.3711  1.7773
  177SAPS    C220165   6.794   1.912   2.104 -0.7396 -0.7314 -0.0354
  177SAPS    HS20166   6.849   1.818   2.085 -1.4517 -0.7733 -2.2079
  177SAPS   O2120167   6.698   1.904   2.212  0.5975  0.3237  0.0445
  177SAPS   C2120168   6.720   1.805   2.303 -0.2128 -0.9379  0.0682
  177SAPS   O2220169   6.810   1.725   2.287 -0.6553 -0.0413  0.1891
  177SAPS   C2220170   6.619   1.811   2.416 -0.1696  0.0336 -0.0261
  177SAPS   H2R20171   6.534   1.880   2.398  1.2129  2.0800  0.8930
  177SAPS   H2S20172   6.574   1.711   2.436 -0.7506 -0.0440 -1.6219
  177SAPS    C320173   6.891   2.033   2.129  0.5895 -0.5048  0.0245
  177SAPS    HX20174   6.835   2.118   2.172  0.5735 -1.0050  1.0284
  177SAPS    HY20175   6.940   2.058   2.032 -0.1265  2.2202  0.3030
  177SAPS   O3120176   6.989   1.997   2.224  0.4479 -0.0843 -0.8658
  177SAPS   C3120177   7.091   1.930   2.188  0.3354  0.4545  0.1725
  177SAPS   O3220178   7.111   1.887   2.072 -0.2608  0.0878 -0.1766
  177SAPS   C3220179   7.183   1.889   2.305  0.4215  0.1485 -0.0777
  177SAPS   H2X20180   7.283   1.916   2.266 -0.3454  3.1992 -0.1292
  177SAPS   H2Y20181   7.171   1.778   2.313  0.3173  0.1997  0.5445
  177SAPS   C2320182   6.686   1.866   2.547 -0.5998  0.5386  0.2681
  177SAPS   H3R20183   6.729   1.964   2.517 -1.5875  0.8449 -0.2017
  177SAPS   H3S20184   6.772   1.799   2.568  1.2245  2.5258 -0.4906
  177SAPS   C2420185   6.578   1.885   2.655  0.4172  0.5874  0.1440
  177SAPS   H4R20186   6.505   1.962   2.619  0.2681  0.5661  0.4016
  177SAPS   H4S20187   6.625   1.936   2.741 -0.2001 -0.5003  1.1450
  177SAPS   C2520188   6.501   1.765   2.709  0.4906 -0.2470  0.8768
  177SAPS   H5R20189   6.469   1.686   2.639 -1.7757 -0.1570  1.7383
  177SAPS   C2620190   6.458   1.746   2.836  0.2623 -0.4362  0.3374
  177SAPS   H6R20191   6.377   1.677   2.862 -1.1629  1.4680  1.1979
  177SAPS   C2720192   6.488   1.837   2.949 -0.2777  0.2182 -0.3896
  177SAPS   H7R20193   6.392   1.841   3.006 -1.0301 -0.3565 -1.5865
  177SAPS   H7S20194   6.512   1.936   2.904 -0.2320  0.3334 -0.1128
  177SAPS   C2820195   6.602   1.787   3.039  0.0958  0.1674  0.1780
  177SAPS   H8R20196   6.699   1.786   2.986  0.7315  3.3031  1.1072
  177SAPS   C2920197   6.595   1.797   3.172 -0.2370 -0.3746 -0.0598
  177SAPS   H9R20198   6.683   1.782   3.237 -0.5082  0.4057  0.5010
  177SAPS  C21020199   6.483   1.833   3.267  0.2972 -0.2540  0.5662
  177SAPS  H10R20200   6.479   1.764   3.355  0.3202 -0.3185  0.5170
  177SAPS  H10S20201   6.390   1.823   3.207 -0.3558  0.6714  1.3982
  177SAPS  C21120202   6.481   1.976   3.318  0.1505 -0.4305  0.0865
  177SAPS  H11R20203   6.483   2.055   3.241 -1.2861  0.6054  1.0676
  177SAPS  C21220204   6.488   2.022   3.444  0.5226 -0.5514  0.2470
  177SAPS  H12R20205   6.464   2.128   3.457 -0.4687 -0.5788 -1.1783
  177SAPS  C21320206   6.483   1.937   3.564 -0.5422 -0.3771  0.0236
  177SAPS  H13R20207   6.528   1.999   3.644 -0.9382  2.7225 -1.9789
  177SAPS  H13S20208   6.559   1.856   3.560  1.2947  1.2262  0.4734
  177SAPS  C21420209   6.347   1.886   3.592 -0.7035  0.0341 -0.2444
  177SAPS  H14R20210   6.281   1.873   3.505  0.8356 -2.0158 -1.2127
  177SAPS  C21520211   6.304   1.855   3.716  0.0966  0.2809  0.4848
  177SAPS  H15R20212   6.197   1.840   3.737  0.1179  1.1236  1.2532
  177SAPS  C21620213   6.396   1.851   3.835  0.1514  0.4320  0.3663
  177SAPS  H16R20214   6.504   1.851   3.807  0.4045 -1.3855  1.1707
  177SAPS  H16S20215   6.379   1.761   3.898  1.2283 -1.1077 -1.4266
  177SAPS  C21720216   6.389   1.977   3.931  0.2678  0.6235  0.7832
  177SAPS  H17R20217   6.392   2.062   3.860  0.5867  0.3268  0.4329
  177SAPS  H17S20218   6.488   1.982   3.983  0.6962  0.0543  0.0428
  177SAPS  C21820219   6.261   1.984   4.016  0.4085 -0.4533  0.6717
  177SAPS  H18R20220   6.241   1.881   4.052 -1.2072 -0.4366 -0.1227
  177SAPS  H18S20221   6.191   2.029   3.942  1.7589 -0.6819 -0.8169
  177SAPS  C21920222   6.268   2.083   4.138 -0.5431  0.0372 -0.0192
  177SAPS  H19R20223   6.175   2.052   4.192 -0.7372  0.0982 -0.3143
  177SAPS  H19S20224   6.268   2.189   4.105  0.9555 -0.1513 -0.6891
  177SAPS  C22020225   6.380   2.054   4.238 -0.2678 -0.0766 -0.8919
  177SAPS  H20R20226   6.482   2.032   4.200  0.3955 -0.2418  0.8924
  177SAPS  H20S20227   6.354   1.982   4.319 -1.0029 -0.7211 -1.6812
  177SAPS  H20T20228   6.389   2.147   4.298 -1.6280  0.2108 -1.0914
  177SAPS   C3320229   7.151   1.961   2.443  0.0047  0.2078  0.6955
  177SAPS   H3X20230   7.071   2.036   2.428 -1.6442 -1.8985 -1.6751
  177SAPS   H3Y20231   7.244   2.010   2.482  0.7907 -0.8207  0.1607
  177SAPS   C3420232   7.093   1.848   2.532  0.1687 -0.3955 -0.4860
  177SAPS   H4X20233   7.165   1.766   2.554 -0.3467 -0.6403  0.3061
  177SAPS   H4Y20234   7.003   1.814   2.476 -2.1296  2.5698  1.0846
  177SAPS   C3520235   7.051   1.905   2.663 -0.0923 -0.3018 -0.0961
  177SAPS   H5X20236   6.945   1.935   2.652 -0.2809 -1.6270 -2.5414
  177SAPS   H5Y20237   7.115   1.993   2.687 -0.4742 -0.0085 -0.1508
  177SAPS   C3620238   7.055   1.803   2.776 -0.3979 -0.5980  0.1677
  177SAPS   H6X20239   7.155   1.761   2.800  0.2033  0.8344  0.2571
  177SAPS   H6Y20240   6.994   1.720   2.735  1.1430 -0.0469 -3.6821
  177SAPS   C3720241   6.984   1.853   2.903  0.2181  0.5735  0.4061
  177SAPS   H7X20242   6.977   1.762   2.966  0.5687  0.0342 -0.3135
  177SAPS   H7Y20243   6.880   1.882   2.876 -0.8458 -2.6520  0.6447
  177SAPS   C3820244   7.073   1.951   2.974  0.6052  0.4799  0.4294
  177SAPS   H8X20245   7.076   2.049   2.922  0.2447  0.4705  0.3912
  177SAPS   H8Y20246   7.176   1.910   2.975  0.2889 -0.3310  1.2645
  177SAPS   C3920247   7.018   1.991   3.121  0.1809  0.0846  0.6326
  177SAPS   H9X20248   7.006   1.899   3.181  1.1545  1.5054  3.1538
  177SAPS   H9Y20249   6.920   2.039   3.101 -0.3763 -1.2314  0.0920
  177SAPS  C31020250   7.101   2.093   3.198 -0.3167 -0.4927  0.2635
  177SAPS  H10X20251   7.077   2.200   3.177 -0.6215 -0.1864  2.0346
  177SAPS  H10Y20252   7.209   2.088   3.170 -0.9206 -0.0280 -2.4193
  177SAPS  C31120253   7.091   2.079   3.350  0.8069  0.3800  0.0479
  177SAPS  H11X20254   7.166   2.144   3.401 -1.3970  2.5208  0.7703
  177SAPS  H11Y20255   7.125   1.978   3.382  2.1806  1.3709  1.9238
  177SAPS  C31220256   6.944   2.103   3.402 -0.6828 -1.2908  0.5160
  177SAPS  H12X20257   6.875   2.033   3.352 -0.5145 -0.0113 -1.6693
  177SAPS  H12Y20258   6.928   2.209   3.373 -0.1805 -1.6269 -1.0909
  177SAPS  C31320259   6.923   2.087   3.559  0.8973  0.3093  0.2679
  177SAPS  H13X20260   6.826   2.132   3.588  0.6085  0.4726 -0.8877
  177SAPS  H13Y20261   6.998   2.152   3.608  2.0544  1.5222 -2.8658
  177SAPS  C31420262   6.933   1.941   3.603  0.1268  0.3954  0.0609
  177SAPS  H14X20263   7.022   1.889   3.563 -0.0030  0.1875  0.0373
  177SAPS  H14Y20264   6.844   1.885   3.566 -0.0590 -0.2158  1.3595
  177SAPS  C31520265   6.919   1.930   3.753  0.4912 -0.1054 -0.8150
  177SAPS  H15X20266   6.948   2.024   3.804  1.2183 -0.5104 -0.4573
  177SAPS  H15Y20267   6.995   1.864   3.800  0.0317 -0.6097 -0.7674
  177SAPS  C31620268   6.779   1.867   3.788 -0.4283 -0.1601  0.2701
  177SAPS  H16X20269   6.751   1.777   3.729 -0.6996 -0.4252  0.7999
  177SAPS  H16Y20270   6.696   1.938   3.764  2.2510  2.9424 -0.5176
  177SAPS  C31720271   6.760   1.814   3.931  0.1911  0.0899 -0.5132
  177SAPS  H17X20272   6.809   1.719   3.962  0.0899  0.0339 -0.5213
  177SAPS  H17Y20273   6.655   1.786   3.955  0.4098 -0.4678 -0.1782
  177SAPS  C31820274   6.806   1.915   4.035  0.2988 -0.3082  0.1678
  177SAPS  H18X20275   6.776   1.891   4.140  1.1710  0.0824  0.5222
  177SAPS  H18Y20276   6.756   2.011   4.012 -0.0134 -0.5715 -0.2591
  177SAPS  H18Z20277   6.916   1.933   4.036  0.5241 -1.5874  0.8313
  178SAPS     N20278   4.260   6.689   1.720  0.0192 -0.3597  1.0947
  178SAPS   HN120279   4.306   6.639   1.642 -0.9021 -1.6295  1.3369
  178SAPS   HN220280   4.318   6.649   1.796 -0.4576 -0.6181  1.3293
  178SAPS   HN320281   4.159   6.664   1.722  0.4571 -2.5234 -0.6462
  178SAPS   C1220282   4.287   6.836   1.695 -0.4325  0.8149  0.2904
  178SAPS  H12A20283   4.393   6.848   1.680 -0.4628  0.6867 -0.0211
  178SAPS   C1320284   4.227   6.901   1.566  0.2575 -0.0342  0.6826
  178SAPS  O13A20285   4.141   6.837   1.496  0.0553 -0.0704 -0.6127
  178SAPS  O13B20286   4.253   7.020   1.545  0.7507 -0.9898  0.3594
  178SAPS   C1120287   4.236   6.921   1.817 -0.3252  0.5516  0.0296
  178SAPS  H11A20288   4.128   6.901   1.832 -0.2382 -2.8581 -2.6671
  178SAPS  H11B20289   4.235   7.031   1.799 -2.2677  0.3887 -1.0576
  178SAPS     P20290   4.439   6.978   1.983 -0.0208  0.0523 -0.2788
  178SAPS   O1320291   4.557   6.891   1.974 -0.0398  0.4442  0.2458
  178SAPS   O1420292   4.442   7.103   1.915  0.3346  0.2439  0.4569
  178SAPS   O1220293   4.317   6.887   1.930 -0.0303  0.3779 -0.4528
  178SAPS   O1120294   4.396   7.002   2.132  0.1293  0.4053 -0.5212
  178SAPS    C120295   4.477   6.970   2.247  0.2522 -0.7686  0.7315
  178SAPS    HA20296   4.411   6.978   2.336 -1.2195  2.2394 -0.5061
  178SAPS    HB20297   4.518   6.867   2.234  2.8121  0.4182 -1.6552
  178SAPS    C220298   4.586   7.084   2.267 -0.7696  0.6517 -1.0081
  178SAPS    HS20299   4.667   7.069   2.192  1.1365  0.1017  1.0634
  178SAPS   O2120300   4.650   7.064   2.396 -0.2720 -0.1052  0.4273
  178SAPS   C2120301   4.758   7.140   2.409  0.1801 -0.8184 -0.2705
  178SAPS   O2220302   4.811   7.222   2.332  0.4942  0.1818  0.0204
  178SAPS   C2220303   4.807   7.118   2.550  1.2345 -1.1664 -0.4881
  178SAPS   H2R20304   4.715   7.143   2.608  0.8571 -0.8313 -1.2294
  178SAPS   H2S20305   4.839   7.015   2.579  0.0322 -0.8624  2.2974
  178SAPS    C320306   4.530   7.224   2.251 -0.1333  0.7022  0.3351
  178SAPS    HX20307   4.486   7.228   2.149  2.5895  1.1137 -0.8901
  178SAPS    HY20308   4.611   7.300   2.248 -0.6391  1.2845  1.2091
  178SAPS   O3120309   4.419   7.265   2.338  0.0396  0.4793 -0.1580
  178SAPS   C3120310   4.459   7.334   2.456 -0.1519  0.5237  0.8981
  178SAPS   O3220311   4.571   7.375   2.481  0.8344 -0.4061  0.4600
  178SAPS   C3220312   4.341   7.345   2.549  0.2063  0.1691  0.5847
  178SAPS   H2X20313   4.256   7.290   2.502  3.2160 -2.1212 -2.7626
  178SAPS   H2Y20314   4.328   7.455   2.539  0.2676  0.1911  0.7462
  178SAPS   C2320315   4.924   7.224   2.579  0.0455  0.1360  0.0983
  178SAPS   H3R20316   4.889   7.330   2.572  1.0208  0.3861 -1.6594
  178SAPS   H3S20317   5.007   7.212   2.507 -0.7175 -1.9579 -0.4887
  178SAPS   C2420318   4.992   7.204   2.719  1.1001  0.5359 -0.1579
  178SAPS   H4R20319   5.068   7.122   2.722  1.2312  0.6828  0.7330
  178SAPS   H4S20320   4.906   7.177   2.783  0.3027  1.7181 -0.7123
  178SAPS   C2520321   5.052   7.332   2.777 -0.0257  0.6187 -0.8295
  178SAPS   H5R20322   5.140   7.363   2.719  0.6261 -1.1390 -0.8236
  178SAPS   C2620323   5.000   7.407   2.883  0.0735  0.0840  0.2802
  178SAPS   H6R20324   5.019   7.515   2.889  1.8277 -0.2921  3.4112
  178SAPS   C2720325   4.862   7.394   2.951 -0.1560 -0.3060  0.3028
  178SAPS   H7R20326   4.808   7.325   2.883 -0.7439  1.2840 -0.8983
  178SAPS   H7S20327   4.808   7.491   2.959 -0.4871 -0.3975 -0.7354
  178SAPS   C2820328   4.858   7.323   3.085  0.7477  0.8759 -0.3232
  178SAPS   H8R20329   4.939   7.249   3.098 -1.6597 -2.5449 -2.8631
  178SAPS   C2920330   4.762   7.317   3.175 -0.2505 -0.4300 -0.0480
  178SAPS   H9R20331   4.782   7.265   3.270 -1.3021  0.6089  0.7798
  178SAPS  C21020332   4.637   7.398   3.165  0.6778  0.3621 -0.2610
  178SAPS  H10R20333   4.561   7.319   3.146  0.4963  0.2374  0.8917
  178SAPS  H10S20334   4.633   7.464   3.076  1.1729  0.6280 -0.0936
  178SAPS  C21120335   4.607   7.472   3.288  0.0312 -0.6286  0.4077
  178SAPS  H11R20336   4.675   7.554   3.315 -2.2760  1.6041 -0.2081
  178SAPS  C21220337   4.493   7.461   3.359  0.1163 -0.2814 -0.3906
  178SAPS  H12R20338   4.486   7.515   3.454  1.7631 -0.9711  0.1469
  178SAPS  C21320339   4.381   7.363   3.339 -0.7894  0.0137 -0.1095
  178SAPS  H13R20340   4.307   7.384   3.419  0.7006 -0.8870  1.5627
  178SAPS  H13S20341   4.427   7.263   3.353  1.0578  0.9445  0.6945
  178SAPS  C21420342   4.294   7.370   3.214 -0.1624 -0.2688  0.2440
  178SAPS  H14R20343   4.328   7.452   3.149 -0.2772 -0.3982  0.0185
  178SAPS  C21520344   4.183   7.295   3.180 -0.9110  0.7562  0.5327
  178SAPS  H15R20345   4.142   7.308   3.079 -1.0566  0.4315  0.5475
  178SAPS  C21620346   4.133   7.177   3.265  0.9890  0.8176 -0.0225
  178SAPS  H16R20347   4.218   7.108   3.282  1.1560  1.0874  0.2295
  178SAPS  H16S20348   4.066   7.114   3.201  1.9506  0.7173 -0.9550
  178SAPS  C21720349   4.057   7.216   3.392  0.0297 -0.2012 -0.5087
  178SAPS  H17R20350   3.960   7.264   3.367  1.2966  1.8274 -1.8414
  178SAPS  H17S20351   4.109   7.296   3.448 -1.4173  0.9803 -0.8065
  178SAPS  C21820352   4.024   7.093   3.484 -0.5850 -0.0645  0.0518
  178SAPS  H18R20353   4.126   7.071   3.523  0.5403  3.7685 -0.2874
  178SAPS  H18S20354   3.987   7.001   3.434 -1.3907 -0.3435  1.1056
  178SAPS  C21920355   3.938   7.144   3.601  0.8521 -0.5665 -0.1748
  178SAPS  H19R20356   3.840   7.170   3.554  1.7622  0.6228 -1.4870
  178SAPS  H19S20357   3.974   7.238   3.647  0.0168 -0.9330  1.3110
  178SAPS  C22020358   3.917   7.050   3.719  0.3219 -0.4897 -0.3839
  178SAPS  H20R20359   3.834   7.090   3.781  0.9242 -1.3379  1.0368
  178SAPS  H20S20360   4.000   7.044   3.794 -1.4450 -0.3337  1.6924
  178SAPS  H20T20361   3.915   6.941   3.698  0.7920 -0.3043 -1.4496
  178SAPS   C3320362   4.377   7.296   2.692 -0.1326  0.1121 -0.5973
  178SAPS   H3X20363   4.304   7.331   2.768 -0.6134  1.0301 -1.4536
  178SAPS   H3Y20364   4.479   7.330   2.721  0.0206  1.9315 -2.9470
  178SAPS   C3420365   4.378   7.140   2.693  0.1276  0.0984  0.5230
  178SAPS   H4X20366   4.452   7.099   2.622 -2.0846 -0.7686 -1.4079
  178SAPS   H4Y20367   4.279   7.107   2.654  1.5899 -1.6289 -1.9435
  178SAPS   C3520368   4.406   7.096   2.835  0.1360  0.2106 -0.3443
  178SAPS   H5X20369   4.336   7.142   2.908 -1.2700 -0.1836 -1.4011
  178SAPS   H5Y20370   4.507   7.128   2.868  0.6825 -1.6746 -0.0926
  178SAPS   C3620371   4.388   6.948   2.858  0.1776  0.3236 -0.1630
  178SAPS   H6X20372   4.461   6.888   2.800 -0.3571  0.7527 -1.3158
  178SAPS   H6Y20373   4.286   6.927   2.818 -0.3344  2.2031  0.0436
  178SAPS   C3720374   4.399   6.911   3.008 -0.3019  0.0002 -0.5285
  178SAPS   H7X20375   4.361   6.809   3.031 -0.4103 -0.5394 -2.8484
  178SAPS   H7Y20376   4.344   6.983   3.072  3.0339  1.5455  0.8563
  178SAPS   C3820377   4.543   6.909   3.056  0.4547 -1.0022 -0.0382
  178SAPS   H8X20378   4.602   6.998   3.023 -1.4126  0.6869  0.9002
  178SAPS   H8Y20379   4.586   6.826   2.996  0.6183 -3.2055  2.9372
  178SAPS   C3920380   4.566   6.885   3.205  0.0788 -0.4418  0.0349
  178SAPS   H9X20381   4.675   6.865   3.212  0.0132 -0.3067  4.1118
  178SAPS   H9Y20382   4.517   6.788   3.229  0.9840 -1.0594 -0.5054
  178SAPS  C31020383   4.549   7.010   3.302  0.0774  0.3489  0.6535
  178SAPS  H10X20384   4.442   7.020   3.331  0.0519  0.7393  0.4272
  178SAPS  H10Y20385   4.580   7.100   3.244  3.5889 -0.8679  0.3701
  178SAPS  C31120386   4.644   7.005   3.424  0.4107 -0.2921  0.3513
  178SAPS  H11X20387   4.748   7.027   3.393  0.7871 -1.2973  0.8394
  178SAPS  H11Y20388   4.630   6.900   3.460 -1.1203 -0.2756 -0.1269
  178SAPS  C31220389   4.595   7.119   3.523 -0.1962  0.1446  0.7583
  178SAPS  H12X20390   4.488   7.096   3.535  0.1919 -0.5558  3.4714
  178SAPS  H12Y20391   4.588   7.223   3.484  1.1034 -0.6368 -1.8289
  178SAPS  C31320392   4.668   7.116   3.658 -0.4281  0.4225 -0.1115
  178SAPS  H13X20393   4.632   7.194   3.729  1.0391 -0.5906  1.8250
  178SAPS  H13Y20394   4.772   7.152   3.642  0.5988 -1.6601  1.3862
  178SAPS  C31420395   4.661   6.982   3.737  0.3441 -0.2004  0.5905
  178SAPS  H14X20396   4.706   6.902   3.674  0.5512 -1.9973  2.9258
  178SAPS  H14Y20397   4.554   6.959   3.759 -0.4443  2.1370 -0.3466
  178SAPS  C31520398   4.726   6.978   3.878  0.2915  0.2110 -0.3923
  178SAPS  H15X20399   4.730   6.871   3.910  1.2641  0.2425 -0.3870
  178SAPS  H15Y20400   4.658   7.030   3.950 -0.4732  1.4491 -1.9579
  178SAPS  C31620401   4.874   7.019   3.878 -0.1355 -0.9605  0.6170
  178SAPS  H16X20402   4.893   7.125   3.907 -0.9172 -1.0647  1.6015
  178SAPS  H16Y20403   4.913   7.003   3.776 -0.5458  0.1382  0.2755
  178SAPS  C31720404   4.959   6.949   3.985 -0.2260  0.2452 -0.0322
  178SAPS  H17X20405   4.953   6.841   3.958  0.8892 -0.5171  2.5148
  178SAPS  H17Y20406   4.916   6.970   4.085  2.3453  1.2580  0.9432
  178SAPS  C31820407   5.106   6.991   3.980 -0.2116 -0.8458  0.5272
  178SAPS  H18X20408   5.108   7.102   3.987 -2.7111 -0.7242  0.1521
  178SAPS  H18Y20409   5.146   6.952   3.883 -0.1864  1.8072 -0.6304
  178SAPS  H18Z20410   5.167   6.953   4.064  1.4988 -2.1233 -1.1829
  179SAPS     N20411   0.440   0.645   1.982 -0.1635 -0.1820  0.0814
  179SAPS   HN120412   0.508   0.576   2.020  0.1983 -0.8335 -1.6802
  179SAPS   HN220413   0.476   0.679   1.890 -1.5581 -0.0421 -0.4331
  179SAPS   HN320414   0.420   0.714   2.057 -2.4683  0.3247 -0.9349
  179SAPS   C1220415   0.315   0.569   1.952 -0.2260  0.0052  0.1824
  179SAPS  H12A20416   0.245   0.647   1.926  0.1152  0.0390 -0.6436
  179SAPS   C1320417   0.312   0.457   1.845 -0.1590 -0.4424  0.3473
  179SAPS  O13A20418   0.412   0.448   1.774  0.4225 -0.1065 -0.5008
  179SAPS  O13B20419   0.198   0.415   1.812 -0.0413  0.5817 -0.1785
  179SAPS   C1120420   0.261   0.512   2.091  0.1830  0.1101  0.8985
  179SAPS  H11A20421   0.321   0.427   2.130  1.2452  0.8303  0.8620
  179SAPS  H11B20422   0.161   0.465   2.083 -0.5831  1.8339 -0.2926
  179SAPS     P20423   0.140   0.620   2.302 -0.1134  0.4526  0.1278
  179SAPS   O1320424   0.142   0.749   2.371  0.3110 -0.0981  0.0342
  179SAPS   O1420425   0.014   0.578   2.237  0.1675  0.5449 -0.6576
  179SAPS   O1220426   0.244   0.627   2.185 -0.5744  0.7422 -0.3395
  179SAPS   O1120427   0.191   0.509   2.403  0.5805 -0.0183 -0.6592
  179SAPS    C120428   0.331   0.501   2.431  0.1947  0.4169  0.3684
  179SAPS    HA20429   0.347   0.391   2.435 -0.3837  0.0823 -3.3779
  179SAPS    HB20430   0.392   0.523   2.341 -2.1650  1.3715 -1.0665
  179SAPS    C220431   0.386   0.567   2.559 -0.0091  0.1680 -0.3584
  179SAPS    HS20432   0.488   0.534   2.588 -0.5878 -1.8697 -0.4964
  179SAPS   O2120433   0.292   0.551   2.669 -0.4561  0.3601 -0.0831
  179SAPS   C2120434   0.286   0.419   2.696  0.1647  0.0253  0.3363
  179SAPS   O2220435   0.371   0.335   2.664 -0.1560 -0.1332  0.0930
  179SAPS   C2220436   0.175   0.392   2.796 -0.0557 -0.2893 -0.7951
  179SAPS   H2R20437   0.085   0.455   2.779 -0.6196 -0.7770  0.2323
  179SAPS   H2S20438   0.146   0.286   2.779  0.7889 -0.9113  1.2928
  179SAPS    C320439   0.417   0.719   2.550 -0.1880  0.2980  0.1292
  179SAPS    HX20440   0.318   0.769   2.547 -1.0580 -1.2765  1.1886
  179SAPS    HY20441   0.469   0.738   2.454 -1.1926 -1.4285 -0.8071
  179SAPS   O3120442   0.491   0.766   2.667 -0.4914  0.5414 -0.0969
  179SAPS   C3120443   0.549   0.881   2.641 -0.3643 -0.8373  0.5247
  179SAPS   O3220444   0.543   0.938   2.532  0.1227 -0.0837  0.2628
  179SAPS   C3220445   0.639   0.923   2.763  0.0486  0.0173 -0.4828
  179SAPS   H2X20446   0.726   0.855   2.753  0.9943  1.0556  0.4272
  179SAPS   H2Y20447   0.572   0.907   2.851  0.0365  0.5569 -0.3916
  179SAPS   C2320448   0.227   0.422   2.935  0.6517 -0.2267 -0.4530
  179SAPS   H3R20449   0.265   0.526   2.948 -0.0671 -0.0699  0.4402
  179SAPS   H3S20450   0.314   0.353   2.947  2.2648  1.8117  0.2610
  179SAPS   C2420451   0.126   0.397   3.046 -0.6858 -0.7247  0.1137
  179SAPS   H4R20452   0.189   0.378   3.136 -0.7163 -1.7645 -0.0685
  179SAPS   H4S20453   0.063   0.309   3.021 -1.6281 -0.2017  0.6385
  179SAPS   C2520454   0.044   0.519   3.068  0.0351 -0.3103 -0.4864
  179SAPS   H5R20455   0.021   0.570   2.974  0.3071  1.5428  0.3896
  179SAPS   C2620456   0.047   0.598   3.179 -0.2105  0.2488  0.3764
  179SAPS   H6R20457  -0.036   0.669   3.176  0.3287  0.9530  1.5502
  179SAPS   C2720458   0.097   0.574   3.317  0.5292  0.1255  0.2287
  179SAPS   H7R20459   0.183   0.638   3.349  1.0477 -0.2062 -0.4673
  179SAPS   H7S20460   0.134   0.471   3.300 -0.5905  0.0768 -2.3565
  179SAPS   C2820461  -0.019   0.572   3.415 -0.0000 -0.2723  0.3507
  179SAPS   H8R20462  -0.111   0.519   3.385 -1.2732  1.4893  1.0078
  179SAPS   C2920463  -0.023   0.625   3.537 -0.1635  0.6026 -0.2046
  179SAPS   H9R20464  -0.116   0.607   3.593  1.1374 -0.7866  1.6569
  179SAPS  C21020465   0.086   0.704   3.603  0.3294 -0.0815  0.5356
  179SAPS  H10R20466   0.147   0.759   3.528 -0.5463  0.5811  0.2992
  179SAPS  H10S20467   0.151   0.628   3.652 -0.4308 -1.4849 -0.5242
  179SAPS  C21120468   0.035   0.786   3.718 -0.4835 -0.7008  0.3335
  179SAPS  H11R20469   0.023   0.743   3.818 -0.5603 -1.2956  0.0687
  179SAPS  C21220470  -0.032   0.903   3.697 -0.8734  0.1312 -0.3818
  179SAPS  H12R20471  -0.063   0.958   3.786  1.1853  0.9710 -0.1269
  179SAPS  C21320472  -0.062   0.976   3.567 -0.6491  0.2910 -0.1492
  179SAPS  H13R20473   0.018   0.951   3.493  0.0376 -0.0226  0.6902
  179SAPS  H13S20474  -0.057   1.085   3.582  0.9951  0.2812 -0.4009
  179SAPS  C21420475  -0.205   0.938   3.516 -0.3393  0.3972  0.0249
  179SAPS  H14R20476  -0.288   0.931   3.588 -1.1161  0.4936 -0.8453
  179SAPS  C21520477  -0.235   0.919   3.384 -0.0674 -0.6030 -0.2753
  179SAPS  H15R20478  -0.341   0.908   3.359 -0.4123 -1.5061  1.3910
  179SAPS  C21620479  -0.139   0.949   3.269  0.7308  0.2919  0.1586
  179SAPS  H16R20480  -0.093   0.850   3.246 -0.3849  0.0550 -1.1938
  179SAPS  H16S20481  -0.056   1.021   3.284 -0.3322  1.3941  0.9705
  179SAPS  C21720482  -0.209   1.005   3.136 -0.1851  0.0079 -0.1059
  179SAPS  H17R20483  -0.137   1.072   3.084 -1.1548  0.0026 -1.4891
  179SAPS  H17S20484  -0.292   1.073   3.162  0.9357  1.2025  0.5138
  179SAPS  C21820485  -0.277   0.895   3.051  0.2057 -0.8280 -0.0331
  179SAPS  H18R20486  -0.329   0.827   3.121 -1.6457  0.4114 -0.1155
  179SAPS  H18S20487  -0.203   0.832   2.997  0.4185 -0.8808  0.3177
  179SAPS  C21920488  -0.386   0.949   2.956 -0.4542  0.3930  0.0376
  179SAPS  H19R20489  -0.328   1.019   2.893 -0.2622 -0.1050 -0.3491
  179SAPS  H19S20490  -0.459   1.004   3.018  1.0928  1.7647  0.6890
  179SAPS  C22020491  -0.449   0.843   2.865 -0.2339  0.4619  0.7282
  179SAPS  H20R20492  -0.378   0.776   2.813 -0.2435  1.2668 -0.3685
  179SAPS  H20S20493  -0.521   0.879   2.788 -0.1974  2.7416  1.6701
  179SAPS  H20T20494  -0.500   0.767   2.928  0.0047 -0.2651  0.0614
  179SAPS   C3320495   0.699   1.062   2.766  0.6204  0.2435  0.8512
  179SAPS   H3X20496   0.616   1.136   2.770  0.4286  0.1640 -0.8689
  179SAPS   H3Y20497   0.755   1.069   2.670  1.7824 -2.4626  1.2625
  179SAPS   C3420498   0.805   1.084   2.870  0.4277 -0.3705  0.2948
  179SAPS   H4X20499   0.849   1.185   2.853 -2.7606  0.6299 -3.1073
  179SAPS   H4Y20500   0.892   1.014   2.861  0.9694  0.3286 -0.0316
  179SAPS   C3520501   0.753   1.064   3.010  0.2739 -0.0146 -0.5043
  179SAPS   H5X20502   0.729   0.957   3.026 -0.4778  0.4599  2.0951
  179SAPS   H5Y20503   0.662   1.123   3.034  0.6023  0.2115  0.2467
  179SAPS   C3620504   0.861   1.100   3.117  0.2595  0.2782  0.0888
  179SAPS   H6X20505   0.892   1.206   3.117 -1.8554  1.0468 -3.3430
  179SAPS   H6Y20506   0.957   1.044   3.105  1.2901  2.3775 -2.5418
  179SAPS   C3720507   0.806   1.082   3.258  0.1833  0.5841 -0.7618
  179SAPS   H7X20508   0.771   0.977   3.263  1.1783  0.2892  0.2710
  179SAPS   H7Y20509   0.717   1.147   3.273  1.1611  1.7451  0.1570
  179SAPS   C3820510   0.914   1.103   3.364  0.4589  0.2330 -0.5716
  179SAPS   H8X20511   0.948   1.209   3.370  0.4495  0.1824  0.6782
  179SAPS   H8Y20512   0.995   1.030   3.345  0.9180  0.2978  0.9402
  179SAPS   C3920513   0.854   1.067   3.507 -0.2905  0.1975  0.5065
  179SAPS   H9X20514   0.787   0.981   3.485 -2.1856  1.8014 -0.2354
  179SAPS   H9Y20515   0.800   1.154   3.550  1.6201  2.2960 -1.1455
  179SAPS  C31020516   0.965   1.018   3.597 -0.6099  0.3248 -0.1824
  179SAPS  H10X20517   1.040   1.100   3.607  1.6294 -1.6812  0.3539
  179SAPS  H10Y20518   1.024   0.938   3.550 -0.7154  1.1975 -1.8642
  179SAPS  C31120519   0.916   0.961   3.737  0.0805  0.0758 -0.1134
  179SAPS  H11X20520   0.844   0.883   3.704 -1.4218  2.3154 -2.6041
  179SAPS  H11Y20521   0.874   1.046   3.796 -2.6674 -2.3472  1.6746
  179SAPS  C31220522   1.032   0.891   3.809 -0.3278  0.8208 -0.2669
  179SAPS  H12X20523   1.119   0.960   3.816  1.8695 -1.9418  1.3098
  179SAPS  H12Y20524   1.063   0.802   3.750 -0.4832  1.3425 -1.1712
  179SAPS  C31320525   0.994   0.846   3.948 -0.1894  0.0834  0.4143
  179SAPS  H13X20526   0.947   0.930   4.003  0.5599 -0.3958  1.8567
  179SAPS  H13Y20527   1.085   0.809   4.001  2.3515  1.0247 -2.9403
  179SAPS  C31420528   0.907   0.723   3.958  0.8286  0.2083 -0.8841
  179SAPS  H14X20529   0.955   0.636   3.909 -1.1511 -1.9203  0.7229
  179SAPS  H14Y20530   0.809   0.746   3.913  0.0025 -0.7250  0.3487
  179SAPS  C31520531   0.867   0.681   4.094 -0.0034 -0.0543 -0.2658
  179SAPS  H15X20532   0.803   0.758   4.142 -0.9329  0.5712 -2.4016
  179SAPS  H15Y20533   0.958   0.681   4.159 -1.1712  0.0454  1.4371
  179SAPS  C31620534   0.791   0.544   4.095  0.0084 -0.0177  0.0104
  179SAPS  H16X20535   0.699   0.552   4.033  0.5623 -0.9405 -0.9627
  179SAPS  H16Y20536   0.759   0.524   4.199 -0.3874 -0.9492 -0.2796
  179SAPS  C31720537   0.872   0.429   4.039  0.1672 -0.4415  0.6200
  179SAPS  H17X20538   0.966   0.422   4.098 -0.1362  0.2788  1.2110
  179SAPS  H17Y20539   0.888   0.447   3.931 -0.3337  0.6522  0.7062
  179SAPS  C31820540   0.813   0.290   4.061 -0.2066 -0.2377  0.3650
  179SAPS  H18X20541   0.711   0.280   4.017  1.3084 -0.4279 -3.4032
  179SAPS  H18Y20542   0.816   0.285   4.172 -3.0126  3.7251  0.8813
  179SAPS  H18Z20543   0.881   0.216   4.015 -0.3406 -1.0881  1.4958
  180SAPS     N20544   6.271   6.488   2.206 -0.3487 -0.2191 -0.3515
  180SAPS   HN120545   6.188   6.550   2.210  0.0052  0.1903  3.3050
  180SAPS   HN220546   6.283   6.433   2.118  0.0141  0.3886 -0.6872
  180SAPS   HN320547   6.272   6.424   2.288 -0.7679  1.4009  0.9530
  180SAPS   C1220548   6.402   6.573   2.221  0.2388  0.0856 -0.4915
  180SAPS  H12A20549   6.380   6.621   2.315  2.0762 -2.3207  1.2963
  180SAPS   C1320550   6.546   6.505   2.229 -0.5360  0.1288  0.2503
  180SAPS  O13A20551   6.567   6.381   2.212  0.0612  0.0970  0.0349
  180SAPS  O13B20552   6.649   6.580   2.239  0.3505 -0.0022  0.5302
  180SAPS   C1120553   6.415   6.687   2.120 -1.0213 -0.3796  0.2949
  180SAPS  H11A20554   6.464   6.639   2.032  1.1477  0.1958  1.1278
  180SAPS  H11B20555   6.492   6.765   2.135 -1.2745  0.2457 -1.3825
  180SAPS     P20556   6.259   6.892   2.083 -0.2320  0.1904  0.0972
  180SAPS   O1320557   6.340   6.951   1.975  0.2365  0.5755  0.2925
  180SAPS   O1420558   6.109   6.901   2.077  0.3922 -0.0279 -0.0058
  180SAPS   O1220559   6.294   6.742   2.073 -0.0265 -0.2406  0.4320
  180SAPS   O1120560   6.315   6.941   2.223  0.2811 -0.3327  0.2775
  180SAPS    C120561   6.250   6.920   2.345 -0.2589  0.1212  0.4016
  180SAPS    HA20562   6.162   6.986   2.361 -0.9309 -0.7225  0.2697
  180SAPS    HB20563   6.204   6.819   2.340 -0.8696  0.4206 -0.2771
  180SAPS    C220564   6.357   6.925   2.462  0.7217 -0.0077 -0.6567
  180SAPS    HS20565   6.423   7.012   2.443  0.1726  0.0327 -2.5418
  180SAPS   O2120566   6.437   6.805   2.462 -0.2060 -0.1156  0.2948
  180SAPS   C2120567   6.563   6.824   2.511  0.3855 -0.2427  0.8942
  180SAPS   O2220568   6.603   6.932   2.555 -0.5903 -0.6419 -0.3554
  180SAPS   C2220569   6.627   6.693   2.541 -0.4124 -0.5698 -0.6264
  180SAPS   H2R20570   6.547   6.625   2.578  0.2682  0.3785  2.9626
  180SAPS   H2S20571   6.660   6.655   2.443 -2.8264 -1.4854 -1.1640
  180SAPS    C320572   6.285   6.949   2.594  0.2956 -0.0078 -0.4305
  180SAPS    HX20573   6.233   6.851   2.607  0.4792  0.0799  1.0605
  180SAPS    HY20574   6.217   7.036   2.582 -0.0182 -0.1789  0.0720
  180SAPS   O3120575   6.375   6.957   2.697  0.3540 -0.6935  0.4792
  180SAPS   C3120576   6.426   7.072   2.742  0.8496 -0.0476  0.2313
  180SAPS   O3220577   6.391   7.179   2.692 -0.1883 -0.2862  0.2902
  180SAPS   C3220578   6.517   7.043   2.861  0.1686 -0.1366 -0.5263
  180SAPS   H2X20579   6.622   7.064   2.832  0.2286  0.6680  0.2349
  180SAPS   H2Y20580   6.510   6.934   2.886 -1.1911  0.2843  1.0820
  180SAPS   C2320581   6.750   6.702   2.642 -0.2522  0.1725  0.2586
  180SAPS   H3R20582   6.716   6.775   2.719 -0.1527  0.2313  0.2468
  180SAPS   H3S20583   6.839   6.745   2.592  0.5589 -0.7352  0.8764
  180SAPS   C2420584   6.794   6.581   2.716 -0.7741 -0.2472  0.2574
  180SAPS   H4R20585   6.807   6.496   2.646  1.6531  0.1222  0.1916
  180SAPS   H4S20586   6.702   6.549   2.770 -0.5284 -2.1398 -0.3729
  180SAPS   C2520587   6.923   6.598   2.794  0.9915 -0.3799 -0.0956
  180SAPS   H5R20588   7.016   6.590   2.736  1.4062 -1.3277  0.6797
  180SAPS   C2620589   6.940   6.640   2.923 -0.2262 -0.1992  0.2228
  180SAPS   H6R20590   7.045   6.641   2.956 -0.1536 -1.4340  0.0901
  180SAPS   C2720591   6.829   6.668   3.019  0.2607 -0.6865 -0.3683
  180SAPS   H7R20592   6.745   6.599   2.997 -0.9837  0.3515  0.9685
  180SAPS   H7S20593   6.785   6.769   3.010  0.4136 -0.3008  2.3146
  180SAPS   C2820594   6.869   6.654   3.165 -0.0990  0.0472  0.0534
  180SAPS   H8R20595   6.952   6.587   3.194  0.7872  0.8738 -0.5127
  180SAPS   C2920596   6.804   6.708   3.263  0.2643  0.4386 -0.1600
  180SAPS   H9R20597   6.826   6.695   3.370  3.2344  0.6642 -0.6558
  180SAPS  C21020598   6.679   6.799   3.253  0.2357 -0.5058  0.0384
  180SAPS  H10R20599   6.608   6.758   3.327 -1.1481 -2.0102 -2.0106
  180SAPS  H10S20600   6.626   6.769   3.160  0.0534 -1.1887  0.3596
  180SAPS  C21120601   6.718   6.949   3.264  0.2229  0.5954  0.1201
  180SAPS  H11R20602   6.764   6.991   3.174 -1.7502 -0.9426 -1.6951
  180SAPS  C21220603   6.689   7.018   3.374 -0.3118  0.0471 -1.0754
  180SAPS  H12R20604   6.730   7.118   3.392 -0.5893  0.0027 -0.0963
  180SAPS  C21320605   6.623   6.986   3.510  0.2594  0.2651  0.7532
  180SAPS  H13R20606   6.551   6.902   3.497  0.3514  0.3672 -0.4944
  180SAPS  H13S20607   6.568   7.079   3.539 -1.5098 -0.4804 -0.0311
  180SAPS  C21420608   6.712   6.956   3.627 -0.5200  0.6188 -0.8295
  180SAPS  H14R20609   6.812   7.002   3.622 -0.8891  1.2867 -2.6940
  180SAPS  C21520610   6.701   6.858   3.721 -0.2803 -0.0041 -0.2377
  180SAPS  H15R20611   6.781   6.856   3.797 -1.2283 -1.3662  0.7591
  180SAPS  C21620612   6.579   6.770   3.727 -0.0706 -0.5165  0.3511
  180SAPS  H16R20613   6.599   6.681   3.663 -0.1151 -1.4553  1.5955
  180SAPS  H16S20614   6.489   6.818   3.682  1.8818  1.4760 -1.6928
  180SAPS  C21720615   6.545   6.717   3.874  0.0659 -0.0532 -0.1979
  180SAPS  H17R20616   6.516   6.809   3.929 -1.7046 -2.4315  3.2104
  180SAPS  H17S20617   6.636   6.694   3.933 -1.8722 -3.2601  1.8584
  180SAPS  C21820618   6.430   6.618   3.880  0.8388 -0.2667 -0.0791
  180SAPS  H18R20619   6.429   6.570   3.980 -1.4230  0.8597  0.5011
  180SAPS  H18S20620   6.438   6.550   3.792 -2.7173 -1.9229  0.7106
  180SAPS  C21920621   6.288   6.699   3.868 -0.1128  0.3115 -0.4256
  180SAPS  H19R20622   6.282   6.754   3.772 -1.3114 -0.4122 -0.7839
  180SAPS  H19S20623   6.287   6.776   3.948 -0.5664 -0.3897  0.2645
  180SAPS  C22020624   6.166   6.605   3.899  0.4328  0.3652 -0.4065
  180SAPS  H20R20625   6.187   6.542   3.988 -0.4584  0.9168  0.2139
  180SAPS  H20S20626   6.077   6.665   3.930  0.6777 -0.8419  3.0165
  180SAPS  H20T20627   6.161   6.543   3.807  2.1361  1.1317 -1.0655
  180SAPS   C3320628   6.478   7.140   2.978  0.6022 -0.0613  0.2640
  180SAPS   H3X20629   6.440   7.241   2.952 -0.5331 -0.9949 -1.9951
  180SAPS   H3Y20630   6.571   7.150   3.038  0.8236  1.9407 -0.3254
  180SAPS   C3420631   6.377   7.068   3.067 -0.3380 -0.1184 -0.8118
  180SAPS   H4X20632   6.412   6.966   3.094  1.0591  0.3151 -0.8787
  180SAPS   H4Y20633   6.287   7.055   3.003 -1.2218  1.1405  0.1203
  180SAPS   C3520634   6.344   7.155   3.194 -0.1176 -0.5161  0.6172
  180SAPS   H5X20635   6.288   7.248   3.170 -3.6329 -2.6983 -0.3072
  180SAPS   H5Y20636   6.443   7.187   3.235  0.2694 -1.1913  0.2291
  180SAPS   C3620637   6.272   7.074   3.301  0.1218  0.7189  0.3624
  180SAPS   H6X20638   6.344   6.993   3.323  0.1889  0.7855  0.3900
  180SAPS   H6Y20639   6.184   7.024   3.255 -0.8316  2.4061  0.2461
  180SAPS   C3720640   6.212   7.147   3.427 -0.3200 -1.2299 -0.7504
  180SAPS   H7X20641   6.127   7.209   3.390  0.1986  0.0768  0.1622
  180SAPS   H7Y20642   6.296   7.206   3.469  0.2276 -4.2325  2.8543
  180SAPS   C3820643   6.163   7.056   3.540 -0.6472  0.5837 -0.0159
  180SAPS   H8X20644   6.238   6.974   3.536 -0.4654  0.7874 -3.2064
  180SAPS   H8Y20645   6.061   7.014   3.523 -0.2213 -0.5504  0.2058
  180SAPS   C3920646   6.154   7.125   3.676 -0.1354 -0.1964 -0.2624
  180SAPS   H9X20647   6.072   7.199   3.668  0.9476  1.0748 -0.1089
  180SAPS   H9Y20648   6.243   7.188   3.697 -1.8105  2.9383 -1.8597
  180SAPS  C31020649   6.132   7.042   3.801  0.6057  0.4663 -0.5050
  180SAPS  H10X20650   6.204   6.957   3.792  0.3766  0.3396 -1.2637
  180SAPS  H10Y20651   6.030   6.998   3.804  0.2878  1.1022 -1.4931
  180SAPS  C31120652   6.145   7.133   3.929  0.0354 -0.5339  0.3126
  180SAPS  H11X20653   6.099   7.070   4.008  0.1413 -1.2266 -0.1710
  180SAPS  H11Y20654   6.082   7.223   3.914  1.8660  0.6908 -0.4374
  180SAPS  C31220655   6.291   7.152   3.966 -0.4004  0.1551 -0.8339
  180SAPS  H12X20656   6.329   7.228   3.895 -0.0392 -0.1620 -0.9820
  180SAPS  H12Y20657   6.344   7.056   3.950  0.0147  0.6597 -2.6508
  180SAPS  C31320658   6.306   7.203   4.112 -0.0192 -0.1948  0.2541
  180SAPS  H13X20659   6.249   7.129   4.171  0.2499 -0.2120  0.4990
  180SAPS  H13Y20660   6.248   7.295   4.135 -0.3952  0.1993 -2.0784
  180SAPS  C31420661   6.455   7.234   4.153  0.8925 -0.8804  0.1793
  180SAPS  H14X20662   6.495   7.296   4.070  0.3095  2.2601  2.0752
  180SAPS  H14Y20663   6.511   7.138   4.162 -1.2850 -2.0406  2.7961
  180SAPS  C31520664   6.472   7.322   4.275 -0.0046 -0.3576 -0.2370
  180SAPS  H15X20665   6.414   7.416   4.261 -0.8087 -0.6351  1.0626
  180SAPS  H15Y20666   6.577   7.351   4.297 -0.3509  1.1681 -0.5019
  180SAPS  C31620667   6.418   7.250   4.407 -0.4836 -0.5389  0.0640
  180SAPS  H16X20668   6.502   7.181   4.432  1.1200  1.5515  0.8260
  180SAPS  H16Y20669   6.317   7.210   4.384 -0.1478 -0.6699 -1.2292
  180SAPS  C31720670   6.402   7.347   4.528 -0.1992 -0.3555 -0.4187
  180SAPS  H17X20671   6.317   7.416   4.512 -0.0145  0.6158  2.2420
  180SAPS  H17Y20672   6.493   7.410   4.534  0.1061 -0.9029  1.6684
  180SAPS  C31820673   6.368   7.282   4.661  0.3720  0.6677 -0.6478
  180SAPS  H18X20674   6.359   7.368   4.730  1.2731  1.1074 -1.0606
  180SAPS  H18Y20675   6.444   7.212   4.703  0.7926  1.3312 -0.2755
  180SAPS  H18Z20676   6.272   7.227   4.657  0.9867 -0.7073  1.4818
  181POPC     N20677   5.387   2.592   6.372 -0.3707  0.0045 -0.1730
  181POPC   C1220678   5.466   2.539   6.249 -0.3187 -0.3371  0.2707
  181POPC  H12A20679   5.553   2.478   6.272 -0.0279 -1.1027 -2.4884
  181POPC  H12B20680   5.508   2.620   6.191  0.2322  0.1936  1.3707
  181POPC   C1320681   5.275   2.673   6.312 -0.5413 -0.8740 -0.3884
  181POPC  H13A20682   5.217   2.617   6.240 -0.2121 -2.1561  0.3220
  181POPC  H13B20683   5.206   2.704   6.389 -0.2040 -0.6986 -0.1561
  181POPC  H13C20684   5.314   2.762   6.264  2.2446 -2.3489 -1.0418
  181POPC   C1420685   5.339   2.476   6.446 -0.1155  0.2374 -1.2620
  181POPC  H14A20686   5.238   2.492   6.480 -0.1489 -0.2507 -1.1201
  181POPC  H14B20687   5.323   2.397   6.373 -3.7059  1.6792 -2.2611
  181POPC  H14C20688   5.391   2.440   6.534 -0.6429  3.6791  0.6147
  181POPC   C1520689   5.469   2.680   6.459  0.1957  0.2014  0.0213
  181POPC  H15A20690   5.409   2.715   6.541  1.3314 -2.2072  1.9944
  181POPC  H15B20691   5.513   2.760   6.402  1.0362 -0.5255 -0.3721
  181POPC  H15C20692   5.552   2.624   6.498 -1.4892 -1.1490  1.8840
  181POPC   C1120693   5.388   2.463   6.137 -0.0668 -0.0793 -0.2518
  181POPC  H11A20694   5.462   2.470   6.054  1.7939  4.2155  1.4330
  181POPC  H11B20695   5.296   2.511   6.097 -0.8997 -0.5433  1.0196
  181POPC     P20696   5.239   2.243   6.155  0.8188 -0.5731 -0.1365
  181POPC   O1320697   5.149   2.249   6.273  0.1446 -0.2246  0.0932
  181POPC   O1420698   5.280   2.107   6.112  0.5354 -0.3116  0.0020
  181POPC   O1220699   5.369   2.328   6.183 -0.1272  0.0463  0.3820
  181POPC   O1120700   5.161   2.311   6.030 -0.4908  0.0365  0.3313
  181POPC    C120701   5.208   2.293   5.894  0.2529 -0.2861 -0.1369
  181POPC    HA20702   5.319   2.289   5.897  0.2580 -0.2013 -0.1953
  181POPC    HB20703   5.189   2.380   5.827  1.3746  0.5823  0.6160
  181POPC    C220704   5.142   2.167   5.822  0.1614 -0.0166 -0.5420
  181POPC    HS20705   5.183   2.079   5.876 -0.3645  1.4666  2.5073
  181POPC   O2120706   5.173   2.180   5.684 -0.4846  0.0600  0.5433
  181POPC   C2120707   5.256   2.089   5.636  0.0411 -0.4525  0.1628
  181POPC   O2220708   5.341   2.027   5.701 -0.0780 -0.1549 -0.2430
  181POPC   C2220709   5.248   2.102   5.486  0.2938  0.7139 -0.3728
  181POPC   H2R20710   5.233   2.210   5.464  0.5569  0.7791 -0.2427
  181POPC   H2S20711   5.161   2.042   5.451 -0.8999  1.7290  0.7677
  181POPC    C320712   4.992   2.175   5.823  0.1273  0.4546 -0.1949
  181POPC    HX20713   4.959   2.277   5.796 -2.9310 -0.1101  0.9774
  181POPC    HY20714   4.953   2.162   5.927  2.1825 -2.2665  0.3516
  181POPC   O3120715   4.925   2.084   5.731  0.6983 -0.0827  1.1014
  181POPC   C3120716   4.792   2.100   5.724 -0.5287  0.4482  0.6571
  181POPC   O3220717   4.726   2.175   5.792 -0.8197 -0.4024 -0.6219
  181POPC   C3220718   4.741   1.992   5.623  0.2950 -0.4450  0.2744
  181POPC   H2X20719   4.736   1.901   5.686  0.5199 -1.0963 -0.6250
  181POPC   H2Y20720   4.817   1.971   5.544  1.3574 -0.0440  1.1654
  181POPC   C2320721   5.373   2.064   5.408 -0.2664  0.5508  0.0060
  181POPC   H3R20722   5.363   1.953   5.403  2.0624  0.3397 -1.0415
  181POPC   H3S20723   5.456   2.090   5.477 -1.0790 -0.5792  1.4853
  181POPC   C2420724   5.383   2.122   5.266 -0.1606 -0.3019  0.1118
  181POPC   H4R20725   5.471   2.085   5.210  0.8283  2.0358  0.0155
  181POPC   H4S20726   5.400   2.229   5.291  0.5607 -0.3471 -0.1619
  181POPC   C2520727   5.246   2.120   5.188 -0.0623 -0.1857 -0.3884
  181POPC   H5R20728   5.191   2.203   5.236 -0.1822 -1.8324  2.4901
  181POPC   H5S20729   5.202   2.019   5.196 -0.3183 -0.1020 -0.7099
  181POPC   C2620730   5.260   2.147   5.034 -1.0649  0.2692  0.6880
  181POPC   H6R20731   5.307   2.059   4.986 -0.5930  1.1731 -0.5627
  181POPC   H6S20732   5.325   2.235   5.015 -1.8607  0.4187 -1.6218
  181POPC   C2720733   5.121   2.150   4.968 -0.6092 -0.5779  0.6700
  181POPC   H7R20734   5.063   2.210   5.041 -2.2901  0.4142 -1.3406
  181POPC   H7S20735   5.087   2.046   4.947  1.7908 -1.1338 -0.9321
  181POPC   C2820736   5.121   2.226   4.833 -0.1576 -0.5389  0.3911
  181POPC   H8R20737   5.144   2.333   4.848 -0.8444  0.3389 -3.6421
  181POPC   H8S20738   5.015   2.229   4.801  0.2064  2.0419 -0.8229
  181POPC   C2920739   5.218   2.170   4.732 -0.0869  0.2516 -0.8230
  181POPC   H9120740   5.315   2.140   4.774  1.0258  1.2070 -2.5973
  181POPC  C21020741   5.201   2.162   4.599 -0.6098 -0.5969 -0.6907
  181POPC  H10120742   5.291   2.148   4.538 -0.9342  2.4111 -2.0515
  181POPC  C21120743   5.082   2.216   4.524  0.1131 -0.4601 -0.0903
  181POPC  H11R20744   4.988   2.213   4.584 -1.3609  2.4748 -2.0277
  181POPC  H11S20745   5.058   2.156   4.435 -1.8062 -0.7296  0.5699
  181POPC  C21220746   5.096   2.365   4.489  0.1696  0.4825  0.3000
  181POPC  H12R20747   5.201   2.387   4.461  0.1352 -0.8122 -0.9557
  181POPC  H12S20748   5.102   2.424   4.583  1.2315 -1.6452  1.6461
  181POPC  C21320749   5.008   2.427   4.376 -0.2186  0.4389 -0.1195
  181POPC  H13R20750   5.012   2.536   4.392 -3.4603  1.1098 -2.7612
  181POPC  H13S20751   4.904   2.392   4.394 -0.5892  0.9748 -1.1045
  181POPC  C21420752   5.039   2.380   4.232 -0.2744 -0.6192  0.8865
  181POPC  H14R20753   5.028   2.270   4.222 -1.0256 -0.4101 -1.0952
  181POPC  H14S20754   5.147   2.394   4.208 -0.1758 -2.7520 -0.1960
  181POPC  C21520755   4.958   2.447   4.116  0.0638  0.8627 -0.8104
  181POPC  H15R20756   4.949   2.557   4.130 -0.8726  0.7980 -0.8327
  181POPC  H15S20757   4.849   2.426   4.118  0.3825 -1.3115 -2.4830
  181POPC  C21620758   5.007   2.409   3.981 -0.0866  0.2458 -0.6160
  181POPC  H16R20759   5.117   2.394   3.980 -0.2451 -1.2313  0.1669
  181POPC  H16S20760   4.974   2.486   3.909 -1.2110  0.4789  0.1284
  181POPC  C21720761   4.957   2.270   3.937 -0.3703  0.3521  0.2055
  181POPC  H17R20762   4.847   2.274   3.920 -0.2381  3.2324 -0.5529
  181POPC  H17S20763   4.976   2.203   4.023  1.4775  2.5976  1.6662
  181POPC  C21820764   5.036   2.211   3.819  0.2334 -0.0507 -0.8813
  181POPC  H18R20765   4.991   2.111   3.801 -2.0213  0.5616  0.9638
  181POPC  H18S20766   5.137   2.174   3.844 -0.9400 -2.5151  0.5526
  181POPC  H18T20767   5.046   2.275   3.728  0.8841  0.4711 -0.4473
  181POPC   C3320768   4.602   2.016   5.561 -0.0890 -0.0543  0.3394
  181POPC   H3X20769   4.524   2.054   5.631 -0.6647  0.5962 -0.6212
  181POPC   H3Y20770   4.561   1.927   5.508  0.1543 -0.6313  1.1078
  181POPC   C3420771   4.627   2.126   5.458  0.2052  0.3152 -0.0265
  181POPC   H4X20772   4.702   2.202   5.489 -0.3041  1.2625 -1.0302
  181POPC   H4Y20773   4.525   2.170   5.449 -0.0974 -0.1002  1.2392
  181POPC   C3520774   4.660   2.084   5.318 -0.1698  0.7455  0.2742
  181POPC   H5X20775   4.591   2.000   5.299 -1.0160  1.9346 -2.4136
  181POPC   H5Y20776   4.763   2.042   5.321 -0.9168 -1.1321  0.4973
  181POPC   C3620777   4.645   2.193   5.209  0.0547 -0.3058  0.1791
  181POPC   H6X20778   4.713   2.279   5.228 -0.2954 -0.2667  1.3807
  181POPC   H6Y20779   4.544   2.239   5.217  0.1717 -0.3035  2.0594
  181POPC   C3720780   4.674   2.130   5.066  0.1769 -1.1200 -0.4652
  181POPC   H7X20781   4.650   2.021   5.072 -2.2272 -0.6247 -0.0735
  181POPC   H7Y20782   4.784   2.132   5.057  0.4418 -1.3731  2.0561
  181POPC   C3820783   4.619   2.220   4.964 -0.3834 -0.2553 -0.6212
  181POPC   H8X20784   4.637   2.325   4.995 -1.1629 -0.5123  0.7818
  181POPC   H8Y20785   4.509   2.206   4.963 -0.2491 -1.9965  1.6092
  181POPC   C3920786   4.688   2.193   4.827 -0.8075 -0.8724  0.3532
  181POPC   H9X20787   4.697   2.083   4.816 -1.9336 -0.9791  0.4019
  181POPC   H9Y20788   4.792   2.233   4.828 -1.7153  1.7595  2.6917
  181POPC  C31020789   4.605   2.259   4.716  0.2116  0.1963  0.3637
  181POPC  H10X20790   4.600   2.369   4.732  0.1413  0.1135  0.9074
  181POPC  H10Y20791   4.499   2.229   4.722 -0.1782  1.6538  1.2042
  181POPC  C31120792   4.669   2.227   4.577  0.7521  0.7292  0.0841
  181POPC  H11X20793   4.689   2.118   4.571 -0.6863  0.5001 -1.6077
  181POPC  H11Y20794   4.769   2.274   4.566  2.4188 -2.3721  0.7797
  181POPC  C31220795   4.573   2.267   4.455  0.0160  0.5811 -0.4922
  181POPC  H12X20796   4.547   2.374   4.453  1.3484  0.9388 -0.0082
  181POPC  H12Y20797   4.478   2.210   4.455  0.2549  0.1441  0.6701
  181POPC  C31320798   4.637   2.247   4.316 -1.3099  0.1767 -0.5815
  181POPC  H13X20799   4.677   2.148   4.287 -0.8400  0.6522 -1.6363
  181POPC  H13Y20800   4.727   2.312   4.307 -0.5564 -0.1089  3.3091
  181POPC  C31420801   4.536   2.286   4.199 -0.1796  0.7530 -0.7429
  181POPC  H14X20802   4.444   2.227   4.217  0.5219 -0.4704 -1.0927
  181POPC  H14Y20803   4.574   2.240   4.105 -1.4403  0.2127 -1.0187
  181POPC  C31520804   4.517   2.438   4.196  0.1373  0.0840 -0.0310
  181POPC  H15X20805   4.622   2.472   4.187  0.3340 -0.9347 -2.4044
  181POPC  H15Y20806   4.474   2.479   4.290  1.0975 -1.2681  1.0447
  181POPC  C31620807   4.421   2.465   4.074 -0.5910 -0.7829 -0.1002
  181POPC  H16X20808   4.325   2.423   4.111 -1.4440  2.4736  1.7823
  181POPC  H16Y20809   4.457   2.409   3.985 -1.3935  0.8268 -1.5058
  181POPC  H16Z20810   4.405   2.572   4.048  0.4224 -0.3824  0.8246
  182POPC     N20811   2.710   1.891   6.550 -0.1219 -0.5641 -0.2584
  182POPC   C1220812   2.650   1.777   6.470 -0.2295  0.0322 -0.1623
  182POPC  H12A20813   2.545   1.763   6.489 -0.5294 -0.6355 -2.0720
  182POPC  H12B20814   2.692   1.685   6.508 -0.3376 -0.5628 -1.4327
  182POPC   C1320815   2.638   1.907   6.683  0.0228  0.0908 -0.3779
  182POPC  H13A20816   2.641   1.823   6.752 -2.9152  1.3079  1.3986
  182POPC  H13B20817   2.675   1.994   6.734  1.0563 -0.5677  0.0334
  182POPC  H13C20818   2.534   1.934   6.673 -0.2751 -0.3843  1.2248
  182POPC   C1420819   2.846   1.861   6.587 -0.5856  0.4091 -0.1102
  182POPC  H14A20820   2.906   1.860   6.497  0.2302 -2.8228  0.3190
  182POPC  H14B20821   2.881   1.932   6.660 -0.5362  0.8399 -0.5514
  182POPC  H14C20822   2.852   1.763   6.634 -2.1832 -0.0229 -0.7539
  182POPC   C1520823   2.700   2.020   6.485  0.4020  0.6263 -0.4441
  182POPC  H15A20824   2.772   2.020   6.404  0.9943 -1.0603  0.0596
  182POPC  H15B20825   2.734   2.094   6.556  0.8429  0.2906 -0.3018
  182POPC  H15C20826   2.606   2.037   6.435 -2.0795  1.5955  4.0557
  182POPC   C1120827   2.688   1.757   6.327  0.0864  0.0512  0.0305
  182POPC  H11A20828   2.666   1.845   6.262  0.8197 -0.4820 -0.9663
  182POPC  H11B20829   2.620   1.687   6.274 -0.6467 -0.0297  1.0495
  182POPC     P20830   2.874   1.587   6.340  0.1851 -0.2312 -0.1248
  182POPC   O1320831   2.855   1.556   6.483 -0.1272  0.4155 -0.3606
  182POPC   O1420832   3.007   1.565   6.287 -0.0879 -0.0958 -0.8510
  182POPC   O1220833   2.827   1.740   6.308 -0.4510 -0.1467  0.1151
  182POPC   O1120834   2.772   1.503   6.258  0.0686 -0.2555 -0.2096
  182POPC    C120835   2.750   1.524   6.123 -0.7111 -0.3059  0.5770
  182POPC    HA20836   2.756   1.631   6.096  0.1200  0.0896  2.2144
  182POPC    HB20837   2.649   1.490   6.090 -0.8222  1.8693 -1.5482
  182POPC    C220838   2.855   1.441   6.042 -0.0163 -0.2412  0.3884
  182POPC    HS20839   2.954   1.452   6.091  0.2153  0.8931 -0.2877
  182POPC   O2120840   2.844   1.491   5.906  0.3826  0.2278 -0.1906
  182POPC   C2120841   2.948   1.457   5.842 -0.4866 -0.3125 -0.5893
  182POPC   O2220842   3.062   1.446   5.889 -0.5529  0.3599  0.5493
  182POPC   C2220843   2.910   1.451   5.690  0.3319 -0.0773  0.6128
  182POPC   H2R20844   2.825   1.516   5.659  2.0802  1.5385 -1.0388
  182POPC   H2S20845   2.870   1.349   5.672 -0.9384  0.7486 -1.5868
  182POPC    C320846   2.823   1.288   6.060  0.2242 -0.0950 -0.3276
  182POPC    HX20847   2.714   1.268   6.068  0.3762 -1.3308 -1.0874
  182POPC    HY20848   2.864   1.257   6.158 -0.0591  1.7127  0.4126
  182POPC   O3120849   2.885   1.202   5.965 -0.4127  0.5803 -0.7192
  182POPC   C3120850   2.830   1.083   5.949  0.0748  0.7441  0.0789
  182POPC   O3220851   2.722   1.045   5.995 -0.0639 -0.5011  0.1367
  182POPC   C3220852   2.913   0.996   5.848  0.3058  0.1228  0.9413
  182POPC   H2X20853   2.841   0.913   5.831  0.2275 -0.0298  1.9360
  182POPC   H2Y20854   3.007   0.961   5.896  2.4416  1.1513 -2.1798
  182POPC   C2320855   3.025   1.489   5.595  0.0343 -0.2415  0.4276
  182POPC   H3R20856   3.097   1.405   5.580 -1.2380 -1.1177 -1.1066
  182POPC   H3S20857   3.086   1.570   5.640 -2.1044  2.1644 -0.8123
  182POPC   C2420858   2.975   1.532   5.458  0.8183 -0.0333  0.8720
  182POPC   H4R20859   3.056   1.597   5.419 -0.2471  0.9709  0.2710
  182POPC   H4S20860   2.883   1.593   5.468  1.5413  1.3238 -0.3888
  182POPC   C2520861   2.956   1.408   5.367  0.6825 -0.3801 -0.6666
  182POPC   H5R20862   2.921   1.319   5.424  2.5476 -0.8097 -0.1128
  182POPC   H5S20863   3.063   1.392   5.346  0.3531 -2.3618 -0.9835
  182POPC   C2620864   2.886   1.426   5.229 -0.3008 -0.6389  0.6424
  182POPC   H6R20865   2.792   1.477   5.259 -0.1623 -0.9524  1.6516
  182POPC   H6S20866   2.860   1.327   5.186  1.1645 -0.4905 -0.6901
  182POPC   C2720867   2.969   1.511   5.128 -0.0534  0.1401 -0.4248
  182POPC   H7R20868   3.044   1.444   5.081  1.5904  3.7025 -3.3486
  182POPC   H7S20869   3.013   1.591   5.190 -1.3334  0.1124  0.5660
  182POPC   C2820870   2.889   1.572   5.014  0.7762 -0.3139 -0.9018
  182POPC   H8R20871   2.846   1.665   5.057  1.2901 -1.2950  2.0107
  182POPC   H8S20872   2.802   1.513   4.977  1.0509  0.8378 -3.5875
  182POPC   C2920873   2.987   1.618   4.912  0.4603 -0.7844 -0.3209
  182POPC   H9120874   3.019   1.721   4.932  1.7249 -0.4403 -3.4887
  182POPC  C21020875   3.016   1.561   4.795  0.8410 -0.4288  0.7304
  182POPC  H10120876   3.112   1.595   4.755  0.1268 -0.2472 -0.9101
  182POPC  C21120877   2.972   1.423   4.756 -0.3572  0.0363 -0.0811
  182POPC  H11R20878   2.915   1.370   4.835 -0.1919  0.4571  0.3191
  182POPC  H11S20879   3.058   1.355   4.734  0.0751  0.5114  0.1292
  182POPC  C21220880   2.885   1.419   4.627  0.0577 -0.2983 -0.4352
  182POPC  H12R20881   2.812   1.501   4.615 -0.1598  0.0019  2.4062
  182POPC  H12S20882   2.841   1.317   4.616  2.1262 -1.1492 -1.5007
  182POPC  C21320883   2.971   1.427   4.494  0.2483  0.0596 -0.7654
  182POPC  H13R20884   3.031   1.334   4.488  1.3384  0.6248  0.6393
  182POPC  H13S20885   3.044   1.510   4.504 -1.0575  1.1357  0.2049
  182POPC  C21420886   2.882   1.436   4.370 -0.0651  0.0438 -0.7452
  182POPC  H14R20887   2.784   1.384   4.378 -0.1210 -0.3765 -3.3146
  182POPC  H14S20888   2.929   1.384   4.283 -1.0813 -2.1412 -0.0467
  182POPC  C21520889   2.841   1.585   4.340 -1.0653 -0.4290 -0.1355
  182POPC  H15R20890   2.920   1.658   4.368 -0.8485 -0.7921  0.2061
  182POPC  H15S20891   2.763   1.613   4.413  2.3241  4.0518  2.2290
  182POPC  C21620892   2.792   1.624   4.202  0.4874  0.5241 -0.2123
  182POPC  H16R20893   2.887   1.603   4.147  1.2667 -0.5480  1.4420
  182POPC  H16S20894   2.747   1.725   4.205 -2.7380 -0.8030  0.4461
  182POPC  C21720895   2.684   1.520   4.158 -0.7035 -0.4572 -0.1860
  182POPC  H17R20896   2.622   1.510   4.249  0.9242  1.0085  1.1482
  182POPC  H17S20897   2.746   1.431   4.136  0.7986  0.6917 -0.7771
  182POPC  C21820898   2.604   1.558   4.031 -1.0357  0.2509 -0.2957
  182POPC  H18R20899   2.681   1.574   3.953 -0.6066  1.3210  0.3237
  182POPC  H18S20900   2.546   1.652   4.044 -1.6879 -0.1444 -0.2540
  182POPC  H18T20901   2.541   1.471   4.002  0.6439 -1.3407  0.6006
  182POPC   C3320902   2.942   1.058   5.714 -0.1779  0.0258 -0.2463
  182POPC   H3X20903   2.869   1.138   5.691 -1.3679 -0.5530  1.3252
  182POPC   H3Y20904   2.916   0.978   5.641 -0.4740 -0.4276  0.3489
  182POPC   C3420905   3.085   1.103   5.687  0.0135  0.5297  0.7049
  182POPC   H4X20906   3.109   1.161   5.780  0.3990  0.9159  0.3707
  182POPC   H4Y20907   3.092   1.177   5.604 -0.6503  2.1845  2.0625
  182POPC   C3520908   3.178   0.984   5.664  0.1930  0.1894  0.1828
  182POPC   H5X20909   3.157   0.910   5.744 -1.4401  0.7003  0.2742
  182POPC   H5Y20910   3.282   1.017   5.646  0.4549 -1.9435 -3.1181
  182POPC   C3620911   3.149   0.907   5.532 -0.1962 -0.3361 -0.0630
  182POPC   H6X20912   3.073   0.830   5.558  0.1181 -0.1855  1.3928
  182POPC   H6Y20913   3.246   0.858   5.506  1.0929  0.7073  2.4285
  182POPC   C3720914   3.103   0.996   5.418 -0.0919 -0.3034  0.5657
  182POPC   H7X20915   3.191   1.063   5.407 -1.1064  1.4739  2.4395
  182POPC   H7Y20916   3.001   1.035   5.435  0.1174  0.7824 -0.5705
  182POPC   C3820917   3.092   0.920   5.293 -0.0175  0.1842 -0.1707
  182POPC   H8X20918   3.010   0.849   5.315 -0.9260  0.9428 -1.0172
  182POPC   H8Y20919   3.182   0.858   5.275  1.8313  2.2381  1.3671
  182POPC   C3920920   3.063   1.009   5.176  0.4806 -0.0309  0.2580
  182POPC   H9X20921   3.142   1.086   5.159  0.1730  0.1172 -0.5524
  182POPC   H9Y20922   2.967   1.061   5.199  0.3173  0.2277 -0.9816
  182POPC  C31020923   3.053   0.944   5.033 -0.2673  0.2338 -0.3691
  182POPC  H10X20924   2.955   0.892   5.023  0.1506 -0.4539 -1.0372
  182POPC  H10Y20925   3.139   0.875   5.027  0.7699  1.1038  2.7844
  182POPC  C31120926   3.060   1.051   4.918  0.4159  0.3770 -0.1549
  182POPC  H11X20927   3.150   1.116   4.930 -0.1254  1.1069 -0.0191
  182POPC  H11Y20928   2.972   1.117   4.933 -0.3855 -0.5258 -0.7340
  182POPC  C31220929   3.048   0.992   4.773  0.5602  0.4530 -0.0880
  182POPC  H12X20930   3.052   1.081   4.706 -0.0098  1.9145  1.7326
  182POPC  H12Y20931   2.946   0.949   4.762 -0.4873  2.8040 -0.1585
  182POPC  C31320932   3.152   0.881   4.725  0.2728 -0.7742  0.0498
  182POPC  H13X20933   3.098   0.827   4.645 -0.6003  1.9471 -1.2967
  182POPC  H13Y20934   3.192   0.817   4.806  1.0896 -0.4651 -0.0940
  182POPC  C31420935   3.274   0.953   4.669  0.0197  0.2319 -0.0464
  182POPC  H14X20936   3.339   0.970   4.757 -0.5199 -1.6025  0.7454
  182POPC  H14Y20937   3.243   1.045   4.614  1.2159 -0.4082 -1.9026
  182POPC  C31520938   3.344   0.861   4.561  0.8732  0.0358 -0.0306
  182POPC  H15X20939   3.265   0.828   4.490 -0.6024  1.6149  0.8236
  182POPC  H15Y20940   3.387   0.773   4.613 -2.4493 -1.9028 -0.3012
  182POPC  C31620941   3.453   0.934   4.484 -0.1638 -0.6055  0.5712
  182POPC  H16X20942   3.422   1.024   4.427  0.2029  0.4297  1.9647
  182POPC  H16Y20943   3.520   0.877   4.416 -0.9192  0.9137 -1.5384
  182POPC  H16Z20944   3.526   0.971   4.560 -1.2126 -2.2655  2.4798
  183POPC     N20945   3.321   0.006   6.645  0.1205 -0.3454 -0.6158
  183POPC   C1220946   3.316  -0.052   6.508  0.3473  0.8327 -0.0355
  183POPC  H12A20947   3.241  -0.130   6.518  0.2681  1.0067  0.8459
  183POPC  H12B20948   3.406  -0.109   6.492 -0.4168 -0.1171 -1.1664
  183POPC   C1320949   3.364  -0.101   6.739  0.7089  0.2519  0.2158
  183POPC  H13A20950   3.445  -0.160   6.699  1.4014 -0.2579  2.2647
  183POPC  H13B20951   3.388  -0.052   6.832  1.3830  1.0723 -0.3728
  183POPC  H13C20952   3.279  -0.164   6.761 -0.1074  1.1820 -0.1858
  183POPC   C1420953   3.411   0.119   6.647 -0.2350  0.3109  0.0041
  183POPC  H14A20954   3.438   0.161   6.743  1.3290  0.2537 -0.3797
  183POPC  H14B20955   3.508   0.100   6.605 -1.3515  1.8395 -3.6335
  183POPC  H14C20956   3.371   0.202   6.591 -1.0811 -0.3004 -0.3186
  183POPC   C1520957   3.184   0.057   6.693  0.3018 -0.2127  0.1381
  183POPC  H15A20958   3.172   0.161   6.667 -0.9841 -0.6035 -0.9872
  183POPC  H15B20959   3.165   0.046   6.798 -0.4163  0.6191  0.0995
  183POPC  H15C20960   3.098   0.007   6.652  0.0754 -0.7043  1.1883
  183POPC   C1120961   3.294   0.043   6.390  0.2402  1.4018 -0.0987
  183POPC  H11A20962   3.280  -0.024   6.303  3.5527  1.0875 -0.5079
  183POPC  H11B20963   3.387   0.096   6.361 -1.4121  3.2890 -2.2687
  183POPC     P20964   3.046   0.119   6.341  0.1675  0.2979 -0.3387
  183POPC   O1320965   2.942   0.204   6.410 -0.2114  0.5078  0.2325
  183POPC   O1420966   3.014  -0.023   6.331 -0.0665  0.0459 -0.1911
  183POPC   O1220967   3.194   0.143   6.397  0.3217 -0.0234 -0.2869
  183POPC   O1120968   3.066   0.175   6.191 -0.2094  0.0266 -0.4056
  183POPC    C120969   2.990   0.112   6.092 -0.7570 -0.7191 -0.0304
  183POPC    HA20970   2.966   0.190   6.017  1.3502  0.3863  0.3661
  183POPC    HB20971   2.888   0.086   6.126 -0.7677 -0.6044  0.0255
  183POPC    C220972   3.057  -0.007   6.022 -0.3773 -0.4217  0.4492
  183POPC    HS20973   3.099  -0.080   6.096 -0.3197 -0.1434  0.6950
  183POPC   O2120974   3.161   0.053   5.938  0.4503 -0.7489 -0.3335
  183POPC   C2120975   3.268  -0.016   5.928  0.1012 -0.9218  1.0098
  183POPC   O2220976   3.275  -0.133   5.967  0.0560  0.2495 -0.3704
  183POPC   C2220977   3.384   0.051   5.865 -0.3885 -0.7239  0.9558
  183POPC   H2R20978   3.453  -0.033   5.844 -1.9681 -1.8681  0.1394
  183POPC   H2S20979   3.431   0.122   5.937 -1.3018  0.6533  0.2344
  183POPC    C320980   2.952  -0.076   5.928 -0.4706 -0.5858  0.5391
  183POPC    HX20981   2.915   0.006   5.863  1.6279  0.3507  0.4606
  183POPC    HY20982   2.863  -0.110   5.987 -1.5123  1.2017  0.0632
  183POPC   O3120983   3.007  -0.170   5.834  0.1513  0.1690  0.0457
  183POPC   C3120984   3.018  -0.296   5.878 -0.5454 -0.4705  0.3893
  183POPC   O3220985   2.960  -0.338   5.979 -0.4014 -0.5010  0.1469
  183POPC   C3220986   3.105  -0.382   5.785 -0.2375  0.4537  0.0645
  183POPC   H2X20987   3.035  -0.467   5.766 -1.0888  1.1460  0.0577
  183POPC   H2Y20988   3.173  -0.432   5.857 -2.1186  1.7593  2.9724
  183POPC   C2320989   3.344   0.121   5.731 -0.0762 -0.1031  0.5746
  183POPC   H3R20990   3.421   0.194   5.696 -1.6607  0.5610 -1.7402
  183POPC   H3S20991   3.255   0.186   5.744  0.1180  0.1689  0.5712
  183POPC   C2420992   3.321   0.021   5.615  0.1823 -0.2094  1.0776
  183POPC   H4R20993   3.225  -0.034   5.619  1.1427 -2.4845 -2.7557
  183POPC   H4S20994   3.396  -0.060   5.624  2.4012  1.6160  0.0367
  183POPC   C2520995   3.324   0.076   5.470  0.7218 -1.1663  0.0562
  183POPC   H5R20996   3.421   0.119   5.438 -0.2802  1.2861  0.0653
  183POPC   H5S20997   3.268   0.172   5.471  2.3658 -0.1762  0.2965
  183POPC   C2620998   3.277  -0.016   5.360  0.0622 -0.1240 -0.7113
  183POPC   H6R20999   3.181  -0.064   5.385  0.8249 -0.5405  1.5810
  183POPC   H6S21000   3.351  -0.099   5.358  0.9579  0.5878  1.1525
  183POPC   C2721001   3.271   0.051   5.224  0.8805  0.4080 -0.2611
  183POPC   H7R21002   3.355   0.124   5.213  1.3226 -0.3107 -2.2101
  183POPC   H7S21003   3.174   0.106   5.221  0.3250 -0.5027  0.5831
  183POPC   C2821004   3.279  -0.044   5.101  1.1211  0.1508 -0.8233
  183POPC   H8R21005   3.376  -0.097   5.098 -0.0312 -2.3609  1.6978
  183POPC   H8S21006   3.263   0.024   5.014  0.5837  0.0623 -0.7995
  183POPC   C2921007   3.162  -0.144   5.107 -0.0107 -0.6545 -0.3401
  183POPC   H9121008   3.147  -0.193   5.204  0.5675 -0.4402 -0.1390
  183POPC  C21021009   3.078  -0.173   5.005  0.6105 -0.2340  0.1897
  183POPC  H10121010   2.999  -0.248   5.021  0.5461 -0.3046 -0.4349
  183POPC  C21121011   3.089  -0.119   4.867 -0.4590 -0.3687  0.9561
  183POPC  H11R21012   3.186  -0.070   4.844 -0.6546 -0.2568  0.3573
  183POPC  H11S21013   3.017  -0.034   4.859  1.2533  1.0967  0.4188
  183POPC  C21221014   3.061  -0.226   4.754 -0.0472 -0.1603  0.3293
  183POPC  H12R21015   2.961  -0.270   4.778 -0.9800  1.8516  0.3382
  183POPC  H12S21016   3.136  -0.308   4.761 -0.1694 -0.1889  1.7584
  183POPC  C21321017   3.042  -0.161   4.617  0.1695 -0.5912  0.1373
  183POPC  H13R21018   3.140  -0.164   4.566 -0.4790  0.0870 -1.1879
  183POPC  H13S21019   3.015  -0.053   4.622 -2.6308 -1.0622 -1.9700
  183POPC  C21421020   2.937  -0.238   4.530 -0.2645  0.0479 -0.6641
  183POPC  H14R21021   2.905  -0.169   4.449  0.1514  0.7090 -0.2694
  183POPC  H14S21022   2.848  -0.256   4.594 -0.3544 -0.4399 -0.9177
  183POPC  C21521023   2.994  -0.365   4.462  0.6270 -0.6244  0.2212
  183POPC  H15R21024   3.044  -0.431   4.535  1.7102  0.1552  0.2014
  183POPC  H15S21025   3.071  -0.331   4.389  0.4392 -1.9886 -0.6595
  183POPC  C21621026   2.890  -0.446   4.379  0.3140 -0.1484 -0.3133
  183POPC  H16R21027   2.858  -0.388   4.290 -0.4612  0.7611  0.5386
  183POPC  H16S21028   2.794  -0.455   4.434  0.1057 -1.2733 -0.8214
  183POPC  C21721029   2.945  -0.579   4.330 -0.4848  0.0208  0.3876
  183POPC  H17R21030   2.873  -0.628   4.260 -1.7504  0.3412  1.4149
  183POPC  H17S21031   2.957  -0.637   4.424  0.7504  0.1380  0.3162
  183POPC  C21821032   3.079  -0.574   4.260 -0.5306 -0.0847 -0.1342
  183POPC  H18R21033   3.098  -0.665   4.199 -0.0909 -0.7004  0.9080
  183POPC  H18S21034   3.159  -0.560   4.335 -0.5643 -0.9009  0.0625
  183POPC  H18T21035   3.072  -0.491   4.186  1.8036  1.0780  0.8519
  183POPC   C3321036   3.151  -0.329   5.648  0.4837  0.3062 -0.7489
  183POPC   H3X21037   3.231  -0.254   5.668  1.0964 -0.7038  0.8196
  183POPC   H3Y21038   3.071  -0.284   5.586 -0.7035 -0.4812  0.1688
  183POPC   C3421039   3.218  -0.436   5.561 -0.0634  0.1267 -0.6393
  183POPC   H4X21040   3.146  -0.520   5.554 -0.5863  0.4122  0.9225
  183POPC   H4Y21041   3.306  -0.472   5.619 -0.1126  1.8788  0.6218
  183POPC   C3521042   3.274  -0.386   5.430  0.8240  0.2205  0.6263
  183POPC   H5X21043   3.312  -0.283   5.446  0.0814  0.2003  2.8267
  183POPC   H5Y21044   3.190  -0.377   5.358  1.2567  0.0263  0.0889
  183POPC   C3621045   3.387  -0.469   5.366 -0.2920  0.6215 -0.3568
  183POPC   H6X21046   3.353  -0.575   5.369  2.3160 -0.2669  0.8684
  183POPC   H6Y21047   3.477  -0.474   5.431 -0.7915 -2.6037  0.2426
  183POPC   C3721048   3.421  -0.430   5.223  0.3334  0.2131 -0.5781
  183POPC   H7X21049   3.439  -0.321   5.218 -0.7956  0.5723  1.5774
  183POPC   H7Y21050   3.331  -0.446   5.159 -1.1681 -1.1865  1.6874
  183POPC   C3821051   3.533  -0.507   5.157 -0.5281 -0.9917  0.9400
  183POPC   H8X21052   3.519  -0.617   5.165 -0.2615 -1.1823 -0.8373
  183POPC   H8Y21053   3.624  -0.488   5.219 -0.3339 -0.1512  0.4192
  183POPC   C3921054   3.545  -0.450   5.008 -0.0179 -0.6543  0.0294
  183POPC   H9X21055   3.549  -0.339   5.005 -3.1305 -0.4696 -2.0916
  183POPC   H9Y21056   3.459  -0.488   4.948 -0.2260 -0.6535  0.3224
  183POPC  C31021057   3.670  -0.517   4.947 -0.7797 -0.4220  0.0481
  183POPC  H10X21058   3.661  -0.628   4.942  1.1173 -0.6229  0.3847
  183POPC  H10Y21059   3.760  -0.495   5.008 -0.6182 -1.0819  0.0550
  183POPC  C31121060   3.716  -0.459   4.805  1.1362 -0.2791  0.6147
  183POPC  H11X21061   3.808  -0.509   4.767  1.9379  1.8586 -0.4218
  183POPC  H11Y21062   3.748  -0.353   4.817  1.2615 -0.0797 -1.1282
  183POPC  C31221063   3.609  -0.457   4.691 -0.4146  0.6760  0.0611
  183POPC  H12X21064   3.515  -0.401   4.712 -0.8832 -0.4293  1.0257
  183POPC  H12Y21065   3.575  -0.563   4.687  2.0375 -0.1489 -0.4578
  183POPC  C31321066   3.673  -0.415   4.553  0.5683  0.2643 -0.1406
  183POPC  H13X21067   3.748  -0.495   4.535 -0.4046 -0.9714  1.0039
  183POPC  H13Y21068   3.721  -0.316   4.559  0.0909  0.5260 -0.5051
  183POPC  C31421069   3.574  -0.414   4.434 -0.1883 -0.6917  0.5500
  183POPC  H14X21070   3.537  -0.518   4.424  1.9787 -1.6352  1.5966
  183POPC  H14Y21071   3.644  -0.401   4.348 -1.3616  1.6004 -0.1261
  183POPC  C31521072   3.481  -0.301   4.438  0.3964  0.0883 -0.0275
  183POPC  H15X21073   3.528  -0.212   4.487  2.1151 -0.8223  0.0344
  183POPC  H15Y21074   3.385  -0.330   4.486 -0.1270 -1.4853 -1.9177
  183POPC  C31621075   3.442  -0.249   4.300 -0.3996 -0.1346  0.3051
  183POPC  H16X21076   3.371  -0.165   4.317  2.1900  2.6240 -1.5519
  183POPC  H16Y21077   3.394  -0.333   4.244  1.3369 -0.3010 -1.0222
  183POPC  H16Z21078   3.534  -0.217   4.248 -1.0421  1.4504  0.0737
  184POPC     N21079   4.721   6.949   6.648 -0.3803  0.2613  0.8445
  184POPC   C1221080   4.773   6.891   6.515 -0.5739  0.3138  0.3966
  184POPC  H12A21081   4.735   6.791   6.508 -0.2191  0.1889  0.1957
  184POPC  H12B21082   4.879   6.873   6.526 -0.5201  1.0583  1.2389
  184POPC   C1321083   4.784   7.083   6.683 -0.0846 -0.0670  0.4925
  184POPC  H13A21084   4.745   7.165   6.624  1.2939  0.3899  0.1869
  184POPC  H13B21085   4.755   7.113   6.783 -0.6585  2.9265 -0.4412
  184POPC  H13C21086   4.891   7.083   6.675 -0.0845 -0.9569  0.4337
  184POPC   C1421087   4.577   6.956   6.638  0.0501  0.2014 -0.9861
  184POPC  H14A21088   4.528   7.001   6.723  0.3460 -1.3143  0.0213
  184POPC  H14B21089   4.540   7.010   6.552 -0.7013  1.6063  0.1693
  184POPC  H14C21090   4.531   6.859   6.634  1.3908 -0.5445  0.4412
  184POPC   C1521091   4.773   6.856   6.757  0.3961  0.2369  0.3178
  184POPC  H15A21092   4.722   6.761   6.752  0.4774  0.2215 -0.4218
  184POPC  H15B21093   4.759   6.903   6.853 -0.3032  1.4068 -0.3305
  184POPC  H15C21094   4.878   6.840   6.738  0.5446 -1.7991  2.4620
  184POPC   C1121095   4.745   6.971   6.385  0.1660  0.0336  0.1546
  184POPC  H11A21096   4.812   6.943   6.301  1.2942  0.4867  0.8838
  184POPC  H11B21097   4.763   7.077   6.412  0.2689  0.0694 -0.0540
  184POPC     P21098   4.538   6.850   6.295 -0.0718  0.2028  0.0109
  184POPC   O1321099   4.394   6.880   6.280 -0.0801 -0.0328 -0.0461
  184POPC   O1421100   4.562   6.732   6.380  0.1847 -0.1068 -0.3091
  184POPC   O1221101   4.609   6.975   6.349 -0.7945  0.2690  0.0587
  184POPC   O1121102   4.593   6.817   6.154  0.0009 -0.3403 -0.3803
  184POPC    C121103   4.651   6.925   6.075 -0.5018 -0.2624 -0.1243
  184POPC    HA21104   4.725   6.873   6.009 -2.9487 -1.3085 -2.2359
  184POPC    HB21105   4.694   7.012   6.129 -0.4034  1.0728 -2.2221
  184POPC    C221106   4.551   7.000   5.974 -0.3872 -0.0534 -0.0790
  184POPC    HS21107   4.470   7.054   6.028 -1.3642  0.6280 -2.1516
  184POPC   O2121108   4.485   6.905   5.891  0.5539  0.0564  0.3725
  184POPC   C2121109   4.385   6.924   5.811 -0.1598 -0.1490  0.0827
  184POPC   O2221110   4.305   7.016   5.818 -0.0299 -0.3584 -0.3838
  184POPC   C2221111   4.400   6.831   5.690  0.1841 -0.2260 -0.1303
  184POPC   H2R21112   4.408   6.727   5.727 -1.1170  0.3642  2.0059
  184POPC   H2S21113   4.484   6.856   5.622  0.6211 -1.0873  0.0852
  184POPC    C321114   4.624   7.110   5.884  0.0132  0.3143 -0.4180
  184POPC    HX21115   4.658   7.202   5.935  1.8797  1.8142 -3.9865
  184POPC    HY21116   4.546   7.144   5.812  0.6661 -1.8408 -2.2805
  184POPC   O3121117   4.727   7.038   5.803 -0.0579 -0.3749  0.2075
  184POPC   C3121118   4.853   7.073   5.848  0.4386 -1.0775 -0.1320
  184POPC   O3221119   4.878   7.139   5.950 -0.0536 -0.5158  0.2716
  184POPC   C3221120   4.965   7.036   5.750  0.5358  0.2337 -0.5084
  184POPC   H2X21121   5.020   7.131   5.735 -0.0513  0.6126 -0.2794
  184POPC   H2Y21122   4.918   6.992   5.659  3.2587 -0.6941 -1.5818
  184POPC   C2321123   4.264   6.835   5.608 -0.1702 -0.0267  0.0640
  184POPC   H3R21124   4.179   6.820   5.679  0.3849 -0.7186  0.6053
  184POPC   H3S21125   4.271   6.752   5.535  2.2768  0.4338 -0.3131
  184POPC   C2421126   4.249   6.969   5.535  0.5008 -0.2275  0.6255
  184POPC   H4R21127   4.319   7.049   5.566  0.2993 -0.5676  2.0127
  184POPC   H4S21128   4.150   7.016   5.555  0.2987 -0.0303 -0.7616
  184POPC   C2521129   4.259   6.946   5.386 -0.2918 -0.1999  0.1938
  184POPC   H5R21130   4.211   6.848   5.366 -0.4183 -0.6618  2.4362
  184POPC   H5S21131   4.368   6.930   5.372 -0.0749 -0.1275  1.6430
  184POPC   C2621132   4.207   7.068   5.301  0.0254 -0.4873  0.0635
  184POPC   H6R21133   4.269   7.158   5.323  1.2113 -1.4941  1.0188
  184POPC   H6S21134   4.101   7.085   5.328 -0.4339 -1.7189 -0.9005
  184POPC   C2721135   4.237   7.033   5.154  0.1494  0.3694 -0.8109
  184POPC   H7R21136   4.179   6.939   5.140 -0.9973  0.6517  1.5487
  184POPC   H7S21137   4.347   7.020   5.146  0.3995 -0.7951  2.7954
  184POPC   C2821138   4.184   7.127   5.046  0.6419 -0.4047  0.7053
  184POPC   H8R21139   4.213   7.233   5.062  1.2068 -0.2282 -1.2253
  184POPC   H8S21140   4.074   7.128   5.036  0.6033 -1.3441  0.9738
  184POPC   C2921141   4.230   7.105   4.900  0.0645  0.2873 -0.3734
  184POPC   H9121142   4.200   7.003   4.872 -2.2575  1.2967 -1.9206
  184POPC  C21021143   4.293   7.193   4.818  0.4117 -0.0702 -0.7062
  184POPC  H10121144   4.306   7.150   4.717 -0.4014 -2.2294  0.0512
  184POPC  C21121145   4.343   7.333   4.827  0.2160 -0.0793  0.8366
  184POPC  H11R21146   4.421   7.353   4.750 -0.5480  0.8026  0.2694
  184POPC  H11S21147   4.381   7.344   4.931 -0.5406  1.1850  0.9947
  184POPC  C21221148   4.237   7.439   4.795 -0.5578 -0.4681  0.4004
  184POPC  H12R21149   4.283   7.539   4.810  0.4810 -1.2719  3.4426
  184POPC  H12S21150   4.160   7.427   4.874 -1.8612  1.4925 -0.4846
  184POPC  C21321151   4.179   7.425   4.653  0.1262  0.3055  0.0590
  184POPC  H13R21152   4.116   7.333   4.652  0.0631  0.3297  0.9320
  184POPC  H13S21153   4.266   7.413   4.585  0.7783  0.4677  0.8498
  184POPC  C21421154   4.082   7.536   4.613  0.1802 -0.4607  0.5463
  184POPC  H14R21155   4.135   7.630   4.585 -3.4863  1.3908 -0.8750
  184POPC  H14S21156   4.019   7.548   4.704 -0.6959 -0.1758 -0.0813
  184POPC  C21521157   3.990   7.512   4.498 -0.1861 -0.0785 -0.0123
  184POPC  H15R21158   3.945   7.610   4.469  0.7721  0.4931  0.3878
  184POPC  H15S21159   3.908   7.454   4.544 -1.2915  1.3919 -0.0490
  184POPC  C21621160   4.055   7.449   4.381  0.3872 -0.1193 -0.5016
  184POPC  H16R21161   3.977   7.437   4.302 -0.9018  1.3936  0.4950
  184POPC  H16S21162   4.075   7.342   4.405  1.5820 -0.1182 -1.4222
  184POPC  C21721163   4.183   7.516   4.326  0.0409  0.2962  0.0455
  184POPC  H17R21164   4.239   7.447   4.259 -0.0338  0.4072 -0.1316
  184POPC  H17S21165   4.249   7.526   4.415 -1.2172  1.8111  0.8398
  184POPC  C21821166   4.164   7.662   4.269  0.6387  0.4827 -0.4260
  184POPC  H18R21167   4.263   7.711   4.273  1.2512 -0.8267  1.5037
  184POPC  H18S21168   4.087   7.712   4.332 -0.1481 -1.8787  0.6027
  184POPC  H18T21169   4.131   7.671   4.163  1.3234 -2.1220 -0.9236
  184POPC   C3321170   5.055   6.920   5.810  0.6507 -0.3594 -0.2587
  184POPC   H3X21171   4.979   6.848   5.847  2.0385 -1.9995 -0.4965
  184POPC   H3Y21172   5.121   6.954   5.893  1.0834 -1.7520 -0.0162
  184POPC   C3421173   5.139   6.846   5.708 -0.2128  0.6626  0.1334
  184POPC   H4X21174   5.221   6.918   5.687  1.2243 -0.9009  0.2248
  184POPC   H4Y21175   5.072   6.821   5.623 -2.4891  0.6183  1.8334
  184POPC   C3521176   5.220   6.733   5.769  0.7142 -0.0917  0.2603
  184POPC   H5X21177   5.153   6.653   5.807  2.1108 -0.6825  1.5565
  184POPC   H5Y21178   5.263   6.784   5.858 -0.3069  1.6537 -0.1820
  184POPC   C3621179   5.334   6.679   5.683 -0.0778 -0.0178  0.1393
  184POPC   H6X21180   5.346   6.575   5.720 -2.4742  0.8196  3.8646
  184POPC   H6Y21181   5.417   6.752   5.694  0.9928 -1.0207 -0.9397
  184POPC   C3721182   5.312   6.676   5.526  0.3160 -0.0343  0.2767
  184POPC   H7X21183   5.406   6.644   5.478  2.2916  2.7004  2.0143
  184POPC   H7Y21184   5.307   6.782   5.494  0.0575 -0.5398 -1.4669
  184POPC   C3821185   5.196   6.586   5.480 -0.2408  0.4037  0.4648
  184POPC   H8X21186   5.102   6.645   5.474 -1.6533 -1.7685 -0.1434
  184POPC   H8Y21187   5.195   6.504   5.555  2.6500 -0.1951 -0.0526
  184POPC   C3921188   5.220   6.519   5.339  0.4515  0.9701  0.1930
  184POPC   H9X21189   5.137   6.447   5.327 -1.0577  2.6528  0.1511
  184POPC   H9Y21190   5.310   6.455   5.351 -0.3751 -0.1644  0.5700
  184POPC  C31021191   5.228   6.629   5.236  0.3035  0.8121  0.2779
  184POPC  H10X21192   5.306   6.704   5.260  0.5530  0.7085 -0.1780
  184POPC  H10Y21193   5.126   6.671   5.239  0.7169  2.0809 -1.4662
  184POPC  C31121194   5.248   6.577   5.089  0.7412 -0.2615  0.5215
  184POPC  H11X21195   5.173   6.498   5.067 -0.3041  0.7486  0.3501
  184POPC  H11Y21196   5.346   6.525   5.083  2.4905  2.1703  4.0799
  184POPC  C31221197   5.225   6.687   4.987  0.2945  0.2066  0.1222
  184POPC  H12X21198   5.284   6.781   4.994 -0.1355  0.4568  0.5322
  184POPC  H12Y21199   5.116   6.705   4.976  0.1038 -0.9539 -0.0067
  184POPC  C31321200   5.257   6.635   4.842 -0.0416  0.1060 -0.5669
  184POPC  H13X21201   5.184   6.559   4.809  0.4309 -0.4370 -0.3844
  184POPC  H13Y21202   5.359   6.591   4.843 -0.2399 -0.4431  1.6194
  184POPC  C31421203   5.276   6.753   4.741 -0.0666  0.2040  0.5319
  184POPC  H14X21204   5.362   6.814   4.778  0.3482  0.9341 -1.5026
  184POPC  H14Y21205   5.176   6.802   4.733 -0.3291 -0.1638  1.4109
  184POPC  C31521206   5.320   6.695   4.602 -0.1305 -0.3690  0.7484
  184POPC  H15X21207   5.248   6.615   4.573 -0.7596  0.2729  0.4838
  184POPC  H15Y21208   5.422   6.654   4.610  0.8375  1.7899  0.2068
  184POPC  C31621209   5.317   6.797   4.496  0.5469 -0.7846  1.0692
  184POPC  H16X21210   5.353   6.762   4.397 -0.1210  0.8421  0.2034
  184POPC  H16Y21211   5.361   6.892   4.533 -0.1294 -0.4224  0.9629
  184POPC  H16Z21212   5.209   6.823   4.490  0.7857  0.5055  1.9758
  185POPC     N21213   4.886   3.924   1.899 -0.5731  0.0557 -1.1916
  185POPC   C1221214   4.805   3.927   2.032 -0.1219  0.6198 -0.8932
  185POPC  H12A21215   4.709   3.971   2.008  0.2349  1.6112 -0.5652
  185POPC  H12B21216   4.854   4.004   2.090  1.1542 -1.3902  0.8648
  185POPC   C1321217   4.902   4.068   1.860 -0.5261 -0.3130 -0.3355
  185POPC  H13A21218   4.938   4.071   1.758 -0.3453  0.2352 -0.2583
  185POPC  H13B21219   4.814   4.125   1.884 -0.9392  0.0643 -2.5696
  185POPC  H13C21220   4.987   4.111   1.912 -0.5086  1.7385 -1.9471
  185POPC   C1421221   5.016   3.866   1.921 -0.4422 -0.0587  0.2807
  185POPC  H14A21222   5.069   3.908   2.006 -0.3449  3.4661 -1.3646
  185POPC  H14B21223   5.011   3.760   1.939  1.4823 -0.2918 -0.3281
  185POPC  H14C21224   5.085   3.873   1.839 -2.8265 -1.6128 -1.9999
  185POPC   C1521225   4.819   3.863   1.781  0.3136  0.6121 -1.0557
  185POPC  H15A21226   4.806   3.758   1.801  1.3227  0.5521 -0.6255
  185POPC  H15B21227   4.888   3.862   1.698  1.9082  0.1211  0.2215
  185POPC  H15C21228   4.719   3.896   1.761 -0.6168 -1.4472 -0.0817
  185POPC   C1121229   4.776   3.795   2.115  0.0420  0.6549  0.1344
  185POPC  H11A21230   4.712   3.808   2.205 -1.6796  1.0048 -1.0793
  185POPC  H11B21231   4.872   3.757   2.157 -0.1790 -0.0826 -0.0194
  185POPC     P21232   4.558   3.721   2.008 -0.0967 -0.1908  0.0229
  185POPC   O1321233   4.502   3.624   1.913  0.2642 -0.0182  0.0294
  185POPC   O1421234   4.539   3.866   1.979 -0.0062  0.6616 -0.2631
  185POPC   O1221235   4.714   3.697   2.026  0.6789  0.3373  0.2633
  185POPC   O1121236   4.492   3.690   2.147 -0.0639  0.7717  0.8408
  185POPC    C121237   4.530   3.571   2.216  0.1663  0.0466  0.0134
  185POPC    HA21238   4.548   3.589   2.324  2.9502  0.0262 -0.3795
  185POPC    HB21239   4.624   3.526   2.180  0.2979 -1.4935  2.1426
  185POPC    C221240   4.418   3.469   2.202 -0.9183  0.3822 -0.0095
  185POPC    HS21241   4.387   3.476   2.095  0.7802  1.5146 -0.4554
  185POPC   O2121242   4.310   3.505   2.293  0.0105  0.2607  0.5076
  185POPC   C2121243   4.196   3.437   2.282  0.2181 -0.4589  0.2388
  185POPC   O2221244   4.169   3.356   2.198 -0.3564  0.3538 -0.2046
  185POPC   C2221245   4.095   3.486   2.393 -0.5922  0.5399  0.3148
  185POPC   H2R21246   4.013   3.545   2.346 -0.0543  1.4715  0.5276
  185POPC   H2S21247   4.145   3.559   2.460  1.7615  0.7530 -1.5587
  185POPC    C321248   4.484   3.333   2.236  0.2538  0.1352 -0.1618
  185POPC    HX21249   4.546   3.306   2.147  1.7978  1.8541  0.3181
  185POPC    HY21250   4.405   3.256   2.241 -2.0466  2.3821  0.0393
  185POPC   O3121251   4.567   3.347   2.354 -0.4084 -0.1079 -0.1239
  185POPC   C3121252   4.599   3.223   2.399 -0.0383 -0.6035 -0.1262
  185POPC   O3221253   4.563   3.119   2.351 -0.1695  0.5243 -0.0859
  185POPC   C3221254   4.703   3.228   2.510 -0.5077  0.6611  0.0540
  185POPC   H2X21255   4.742   3.332   2.518  0.5673  0.2434  0.5687
  185POPC   H2Y21256   4.783   3.155   2.487  1.6956  2.6300  0.9986
  185POPC   C2321257   4.031   3.366   2.461 -0.4529  0.3507  0.1843
  185POPC   H3R21258   3.987   3.287   2.397  0.7141 -0.5969  0.5107
  185POPC   H3S21259   3.950   3.406   2.525 -0.7962 -0.7897  0.4727
  185POPC   C2421260   4.131   3.298   2.560 -0.2075  0.4795 -0.3124
  185POPC   H4R21261   4.090   3.302   2.663  0.4968  0.4907 -0.0316
  185POPC   H4S21262   4.221   3.363   2.561  2.9558 -3.5193  1.1112
  185POPC   C2521263   4.181   3.149   2.529  0.2635  0.2068 -0.6244
  185POPC   H5R21264   4.253   3.160   2.445 -1.0381 -1.2394 -1.9945
  185POPC   H5S21265   4.100   3.081   2.494  0.1259 -0.9398  1.7342
  185POPC   C2621266   4.263   3.098   2.648 -0.4560 -0.3447 -0.0355
  185POPC   H6R21267   4.330   3.176   2.691 -2.0261 -0.4046  2.7455
  185POPC   H6S21268   4.333   3.021   2.608 -1.1597 -0.3849 -1.2305
  185POPC   C2721269   4.174   3.033   2.756 -0.0105  0.9590 -0.3254
  185POPC   H7R21270   4.095   2.967   2.714 -0.9595 -0.6219  3.4812
  185POPC   H7S21271   4.118   3.113   2.808 -1.6188 -1.1968  1.4787
  185POPC   C2821272   4.257   2.954   2.859 -0.2380  0.1707  0.1514
  185POPC   H8R21273   4.306   3.018   2.935  0.8046 -0.4983  0.0495
  185POPC   H8S21274   4.329   2.888   2.807 -0.7581 -2.0958  2.1540
  185POPC   C2921275   4.164   2.864   2.937  0.2142 -0.0725 -0.1659
  185POPC   H9121276   4.057   2.883   2.924 -0.0603 -1.4276 -0.0132
  185POPC  C21021277   4.207   2.778   3.032 -0.0540 -0.4920 -0.3454
  185POPC  H10121278   4.132   2.729   3.095 -1.2016  0.1433 -1.1735
  185POPC  C21121279   4.352   2.769   3.070 -0.4462 -0.1681  0.0864
  185POPC  H11R21280   4.401   2.869   3.072 -2.6105  0.9711 -0.2155
  185POPC  H11S21281   4.413   2.711   2.998  1.5724  1.1494  0.6541
  185POPC  C21221282   4.385   2.722   3.211  0.3918  0.6695  0.4918
  185POPC  H12R21283   4.350   2.797   3.285  0.9447 -0.3105  1.7820
  185POPC  H12S21284   4.496   2.716   3.218  0.2258 -2.0742  2.4394
  185POPC  C21321285   4.342   2.590   3.257  0.3134  0.1167 -0.2406
  185POPC  H13R21286   4.341   2.523   3.168 -0.3113 -0.7676  0.4198
  185POPC  H13S21287   4.239   2.592   3.297  0.8456  0.0384  1.2173
  185POPC  C21421288   4.439   2.544   3.366 -0.0852  0.0658  0.5258
  185POPC  H14R21289   4.536   2.547   3.311 -0.6693  3.2118 -0.5331
  185POPC  H14S21290   4.418   2.440   3.401  0.4232  0.3942  1.8756
  185POPC  C21521291   4.441   2.641   3.495  0.0013  1.1479  0.8884
  185POPC  H15R21292   4.335   2.674   3.500 -0.6094 -0.2630 -1.3381
  185POPC  H15S21293   4.505   2.730   3.478 -0.5892  1.9010  2.3872
  185POPC  C21621294   4.485   2.581   3.626  0.4156  0.1880 -0.0796
  185POPC  H16R21295   4.490   2.656   3.708 -2.4639 -0.7091  1.0336
  185POPC  H16S21296   4.585   2.535   3.616 -0.5774 -2.3802  1.0667
  185POPC  C21721297   4.377   2.482   3.677  0.4935  0.3261 -0.5792
  185POPC  H17R21298   4.434   2.431   3.758  0.1063  1.1736  0.2491
  185POPC  H17S21299   4.355   2.419   3.589  0.8155 -2.0749  0.9730
  185POPC  C21821300   4.244   2.538   3.734 -0.8172  0.4559  0.5825
  185POPC  H18R21301   4.192   2.584   3.647 -0.4800 -1.3109 -0.5982
  185POPC  H18S21302   4.269   2.612   3.813  0.4695  0.4208  0.2276
  185POPC  H18T21303   4.182   2.456   3.776 -0.0653 -0.2581  0.3013
  185POPC   C3321304   4.637   3.188   2.643  0.4839  0.1369 -0.1034
  185POPC   H3X21305   4.628   3.078   2.656 -0.5079  0.0791 -1.1207
  185POPC   H3Y21306   4.533   3.227   2.641  0.7605  0.9160 -2.1655
  185POPC   C3421307   4.713   3.252   2.761  0.3179  0.3837 -0.1073
  185POPC   H4X21308   4.689   3.359   2.742 -1.4276  0.0426 -0.0734
  185POPC   H4Y21309   4.821   3.229   2.760  0.2304 -0.4251 -3.4756
  185POPC   C3521310   4.651   3.225   2.904 -0.4792  0.4843  0.5473
  185POPC   H5X21311   4.701   3.292   2.977 -2.1076  0.1932  1.9955
  185POPC   H5Y21312   4.655   3.118   2.936 -1.4376  1.2951  3.6388
  185POPC   C3621313   4.508   3.276   2.906  0.0606  0.8307  0.1709
  185POPC   H6X21314   4.451   3.194   2.857 -0.0155 -0.5970  2.5343
  185POPC   H6Y21315   4.485   3.369   2.849 -2.1305  0.5370  0.4943
  185POPC   C3721316   4.448   3.284   3.052  0.6603 -0.5392 -0.2038
  185POPC   H7X21317   4.502   3.366   3.105 -1.9577 -0.2989  2.3504
  185POPC   H7Y21318   4.472   3.191   3.108  1.0863  0.4945  1.4026
  185POPC   C3821319   4.298   3.324   3.073 -0.4833 -0.3565  0.4326
  185POPC   H8X21320   4.234   3.271   2.999  0.2503  0.0932 -0.5442
  185POPC   H8Y21321   4.293   3.430   3.041  0.1001 -0.4554  0.0002
  185POPC   C3921322   4.254   3.307   3.216 -0.0711 -0.7231  0.0633
  185POPC   H9X21323   4.158   3.359   3.234 -1.1050 -2.1644 -1.0228
  185POPC   H9Y21324   4.334   3.334   3.288  0.2551 -1.7466  0.1011
  185POPC  C31021325   4.228   3.154   3.247 -0.4268 -0.0441 -0.3569
  185POPC  H10X21326   4.319   3.091   3.246  0.2441  0.7870  2.2080
  185POPC  H10Y21327   4.158   3.110   3.172 -0.3246 -1.5375  0.3914
  185POPC  C31121328   4.160   3.149   3.383  0.2038 -0.2044 -1.4445
  185POPC  H11X21329   4.063   3.202   3.383 -0.0992 -0.7257 -0.3611
  185POPC  H11Y21330   4.222   3.197   3.462 -0.6334  0.2763 -1.0728
  185POPC  C31221331   4.123   3.006   3.429  0.2328  0.2137  0.4392
  185POPC  H12X21332   4.210   2.940   3.409 -1.1580 -1.5669 -0.0908
  185POPC  H12Y21333   4.048   2.967   3.357  1.4894 -0.2412 -0.6665
  185POPC  C31321334   4.092   2.984   3.581  0.3149  0.3104  0.2069
  185POPC  H13X21335   4.180   3.015   3.642  0.6960 -1.5395  0.6549
  185POPC  H13Y21336   4.082   2.874   3.583 -3.7561  0.5424 -0.4981
  185POPC  C31421337   3.977   3.067   3.635 -0.2314  0.7786 -0.9287
  185POPC  H14X21338   3.889   3.075   3.568 -0.9098  2.0532  0.0493
  185POPC  H14Y21339   4.021   3.169   3.642 -0.7031  0.9235  0.4464
  185POPC  C31521340   3.936   3.030   3.779  0.0894  0.0408 -0.2592
  185POPC  H15X21341   3.941   3.122   3.841  2.2566  1.0221 -1.7873
  185POPC  H15Y21342   4.009   2.959   3.824 -0.2162  0.6701  1.3059
  185POPC  C31621343   3.804   2.961   3.772  0.1023 -0.7633  0.1018
  185POPC  H16X21344   3.724   3.008   3.711  1.2915  0.3739 -0.6412
  185POPC  H16Y21345   3.757   2.944   3.871  0.0721  1.0460  0.4378
  185POPC  H16Z21346   3.812   2.858   3.732 -2.7732 -1.8095  1.9137
  186POPC     N21347   4.692   4.672   1.450 -0.5550  0.3143  0.4648
  186POPC   C1221348   4.581   4.572   1.447  0.4747 -1.3054 -1.2407
  186POPC  H12A21349   4.547   4.565   1.345  1.0395  1.4694 -1.7115
  186POPC  H12B21350   4.499   4.616   1.502  0.7405 -1.4960 -0.6835
  186POPC   C1321351   4.648   4.786   1.360 -0.4741  0.4861  0.1989
  186POPC  H13A21352   4.723   4.864   1.352  0.8702 -0.6963  0.8513
  186POPC  H13B21353   4.618   4.747   1.263  1.0484  1.2501 -0.6198
  186POPC  H13C21354   4.557   4.826   1.402  0.0464  2.4384 -0.4455
  186POPC   C1421355   4.720   4.726   1.583  0.5260 -0.1369  0.2010
  186POPC  H14A21356   4.633   4.735   1.645  1.5433  2.1885  1.4279
  186POPC  H14B21357   4.775   4.648   1.635 -0.5735 -0.2216  1.2722
  186POPC  H14C21358   4.781   4.815   1.580 -1.4808  1.2887 -0.4490
  186POPC   C1521359   4.820   4.609   1.397  0.7013  0.0273  0.5702
  186POPC  H15A21360   4.898   4.682   1.415  0.3927  0.4813  0.0965
  186POPC  H15B21361   4.814   4.604   1.290 -1.3905  1.0294  0.5924
  186POPC  H15C21362   4.841   4.523   1.459 -1.7205  0.1551  1.6663
  186POPC   C1121363   4.605   4.434   1.509  0.1413 -0.4002 -0.2326
  186POPC  H11A21364   4.664   4.370   1.440 -1.1757 -1.5552 -0.3418
  186POPC  H11B21365   4.504   4.388   1.518  0.2482 -0.4544  0.8673
  186POPC     P21366   4.688   4.302   1.709  0.5027  0.0243  0.0615
  186POPC   O1321367   4.780   4.218   1.629 -0.2598 -0.3588 -0.1536
  186POPC   O1421368   4.554   4.242   1.748 -0.0389  0.3489 -0.4404
  186POPC   O1221369   4.666   4.438   1.638 -0.0328  0.4556  0.6903
  186POPC   O1121370   4.762   4.346   1.844  0.4766  0.1708  0.9242
  186POPC    C121371   4.731   4.476   1.894  0.3638  0.1415 -0.3196
  186POPC    HA21372   4.641   4.526   1.853  0.5628  0.4934 -0.3275
  186POPC    HB21373   4.814   4.547   1.877 -1.2155  2.1497 -0.0559
  186POPC    C221374   4.708   4.478   2.053 -0.6444 -0.4219  0.8943
  186POPC    HS21375   4.805   4.445   2.095 -0.6237 -2.2164 -0.3930
  186POPC   O2121376   4.603   4.389   2.095  0.4295  0.2743 -0.6112
  186POPC   C2121377   4.621   4.258   2.113 -0.2159  0.4661 -0.1138
  186POPC   O2221378   4.728   4.201   2.102 -0.3568 -0.2830  0.2780
  186POPC   C2221379   4.498   4.190   2.152  0.6982 -0.2037 -0.8879
  186POPC   H2R21380   4.476   4.106   2.082 -2.4978 -1.6090  1.5485
  186POPC   H2S21381   4.416   4.265   2.141  1.8115  0.8750 -2.3820
  186POPC    C321382   4.668   4.619   2.112 -0.0271 -0.0462 -0.9126
  186POPC    HX21383   4.561   4.636   2.088 -0.0457 -0.4005 -1.0968
  186POPC    HY21384   4.734   4.693   2.062  0.1768 -0.0037 -0.5818
  186POPC   O3121385   4.694   4.634   2.252  0.1081 -0.3443 -0.2908
  186POPC   C3121386   4.595   4.683   2.325 -0.2340 -0.4692 -0.0409
  186POPC   O3221387   4.482   4.713   2.292  0.3271 -0.2639  0.1049
  186POPC   C3221388   4.634   4.683   2.474 -0.7068  1.1243 -0.3309
  186POPC   H2X21389   4.698   4.770   2.497  2.8894 -1.2801 -0.4183
  186POPC   H2Y21390   4.694   4.592   2.494 -0.1613  1.6452  0.4367
  186POPC   C2321391   4.512   4.134   2.293 -0.1907 -0.2503  0.4387
  186POPC   H3R21392   4.605   4.076   2.311 -1.3737 -1.9851  1.3038
  186POPC   H3S21393   4.418   4.076   2.308 -0.1645 -0.6196 -0.7217
  186POPC   C2421394   4.516   4.246   2.402  0.5216  0.5664 -0.4117
  186POPC   H4R21395   4.484   4.342   2.356  0.1025 -0.1358 -1.6313
  186POPC   H4S21396   4.616   4.260   2.448 -0.4588 -1.6508  2.8083
  186POPC   C2521397   4.439   4.215   2.530  0.2920 -0.0864 -0.3524
  186POPC   H5R21398   4.443   4.106   2.554 -2.2847  0.1891  1.7479
  186POPC   H5S21399   4.330   4.236   2.515  0.5961  0.8789 -1.3877
  186POPC   C2621400   4.486   4.281   2.661 -0.3174 -0.2052  0.3893
  186POPC   H6R21401   4.425   4.236   2.742 -0.0117 -0.7167  0.3468
  186POPC   H6S21402   4.479   4.391   2.670  3.5237  0.2832 -0.5343
  186POPC   C2721403   4.630   4.236   2.718 -0.4043  0.1275  0.4588
  186POPC   H7R21404   4.696   4.280   2.641 -1.2868 -1.1501 -1.0922
  186POPC   H7S21405   4.637   4.129   2.690 -1.1666  0.0780  0.4188
  186POPC   C2821406   4.667   4.287   2.859 -0.1393 -0.0498  0.1986
  186POPC   H8R21407   4.641   4.395   2.867 -0.1669 -0.1695  2.2034
  186POPC   H8S21408   4.778   4.286   2.870 -0.1949 -0.0318  0.7935
  186POPC   C2921409   4.599   4.217   2.969  0.6988 -0.0389 -0.4126
  186POPC   H9121410   4.508   4.264   3.010 -0.2015 -0.7985 -1.4704
  186POPC  C21021411   4.642   4.103   3.023  0.3641 -0.1772  0.1767
  186POPC  H10121412   4.607   4.061   3.118  3.5838  0.0533  1.6210
  186POPC  C21121413   4.767   4.033   2.984  0.1050  0.0040 -0.2293
  186POPC  H11R21414   4.853   4.082   3.034  0.0582 -0.0416 -0.1036
  186POPC  H11S21415   4.784   4.053   2.876  0.2143 -1.2549 -0.4639
  186POPC  C21221416   4.772   3.878   3.007  0.2808  0.3940 -0.7228
  186POPC  H12R21417   4.783   3.841   3.112 -1.5333 -0.7412 -0.8928
  186POPC  H12S21418   4.869   3.853   2.959  1.3565  1.8915  0.5385
  186POPC  C21321419   4.681   3.798   2.923  1.4418  0.3687  0.9249
  186POPC  H13R21420   4.733   3.711   2.877 -1.7679 -0.9728 -0.5180
  186POPC  H13S21421   4.643   3.866   2.843 -2.8383 -2.8001 -0.1180
  186POPC  C21421422   4.557   3.760   3.000  0.6750 -0.4751 -0.5530
  186POPC  H14R21423   4.494   3.848   3.027 -0.7328 -1.7741  0.6172
  186POPC  H14S21424   4.589   3.721   3.099 -4.2014  0.3766  1.6385
  186POPC  C21521425   4.453   3.670   2.924 -0.0519 -0.9537 -0.0091
  186POPC  H15R21426   4.381   3.620   2.992  1.1936 -0.7830  1.5099
  186POPC  H15S21427   4.516   3.584   2.892  0.0242 -0.6592 -0.6693
  186POPC  C21621428   4.381   3.735   2.806 -0.2114  0.7613  0.2303
  186POPC  H16R21429   4.434   3.821   2.759 -1.6043  0.7885 -1.3868
  186POPC  H16S21430   4.283   3.780   2.835 -0.2294 -0.1850  1.7350
  186POPC  C21721431   4.375   3.624   2.689  0.0891 -0.2376 -0.7715
  186POPC  H17R21432   4.313   3.661   2.605 -1.7463 -2.4159 -0.4601
  186POPC  H17S21433   4.319   3.539   2.732  0.3616  0.2888  0.6937
  186POPC  C21821434   4.506   3.574   2.627 -0.0679 -0.0198  0.1378
  186POPC  H18R21435   4.552   3.655   2.566 -0.3603 -0.0324 -0.1026
  186POPC  H18S21436   4.575   3.535   2.704  0.7497  1.6319  0.2818
  186POPC  H18T21437   4.480   3.487   2.562 -0.6818 -1.8662  2.6869
  186POPC   C3321438   4.513   4.672   2.569  0.7291  0.4022 -0.0577
  186POPC   H3X21439   4.461   4.579   2.537  1.0124  0.8963 -2.0941
  186POPC   H3Y21440   4.452   4.765   2.561  1.4878  0.8357 -0.9647
  186POPC   C3421441   4.554   4.660   2.715 -0.2986 -0.2654 -0.6345
  186POPC   H4X21442   4.644   4.723   2.732 -0.4789 -0.3012  0.5402
  186POPC   H4Y21443   4.583   4.555   2.739  0.0013  0.1002  0.6842
  186POPC   C3521444   4.443   4.693   2.810 -0.5771  0.4805  0.0986
  186POPC   H5X21445   4.395   4.786   2.773 -0.3995  0.4875 -0.1138
  186POPC   H5Y21446   4.488   4.717   2.909 -0.0179  0.3954 -0.1289
  186POPC   C3621447   4.336   4.580   2.832 -0.2477 -0.1947  0.1479
  186POPC   H6X21448   4.377   4.488   2.878  0.6214  0.8976  1.6469
  186POPC   H6Y21449   4.294   4.548   2.734  0.1007 -1.3348  0.3583
  186POPC   C3721450   4.209   4.622   2.916 -0.5754 -0.2738 -0.1732
  186POPC   H7X21451   4.150   4.528   2.930  0.5038 -0.6644  2.0276
  186POPC   H7Y21452   4.145   4.695   2.861 -0.8478  1.4653  2.3331
  186POPC   C3821453   4.242   4.676   3.054  0.0012 -0.1792  0.0704
  186POPC   H8X21454   4.166   4.740   3.104  2.1480  2.7732 -0.2132
  186POPC   H8Y21455   4.334   4.737   3.044  0.1299  0.1099  2.5139
  186POPC   C3921456   4.296   4.565   3.155  0.1435 -0.1951  0.5490
  186POPC   H9X21457   4.369   4.495   3.108 -1.3753 -1.3798 -0.1574
  186POPC   H9Y21458   4.210   4.500   3.183  0.2539 -0.4723  0.2504
  186POPC  C31021459   4.350   4.620   3.285  0.2723  0.2367  0.5322
  186POPC  H10X21460   4.267   4.681   3.326 -1.7763 -1.7377 -0.4871
  186POPC  H10Y21461   4.425   4.698   3.261 -1.0754  1.4890  0.2518
  186POPC  C31121462   4.419   4.536   3.388  0.4517  0.4531 -0.2068
  186POPC  H11X21463   4.342   4.468   3.432 -1.0587  1.3602 -1.3374
  186POPC  H11Y21464   4.453   4.604   3.469 -1.0568  1.8139 -0.6507
  186POPC  C31221465   4.539   4.448   3.344 -0.2453  0.2159  0.0718
  186POPC  H12X21466   4.623   4.513   3.311  1.2265 -0.9885  1.3382
  186POPC  H12Y21467   4.501   4.383   3.262 -0.2142 -1.5334  1.4068
  186POPC  C31321468   4.597   4.349   3.445  0.2430  0.1216 -0.2342
  186POPC  H13X21469   4.526   4.326   3.527  1.3031  2.1701  1.3424
  186POPC  H13Y21470   4.695   4.386   3.483 -0.1595  0.2578  0.7084
  186POPC  C31421471   4.625   4.213   3.380  0.3546  0.1515 -0.1141
  186POPC  H14X21472   4.692   4.250   3.300  2.0785  0.4725  1.4119
  186POPC  H14Y21473   4.533   4.165   3.341  0.3202  0.5364 -0.5217
  186POPC  C31521474   4.716   4.129   3.475  0.2389 -0.2361  0.4746
  186POPC  H15X21475   4.658   4.108   3.568 -1.3212 -1.6204 -0.7748
  186POPC  H15Y21476   4.805   4.190   3.502  0.8831 -0.3226 -1.3310
  186POPC  C31621477   4.750   4.005   3.405  0.9005 -0.1951 -0.6129
  186POPC  H16X21478   4.656   3.946   3.403  0.3075  0.6970 -0.0620
  186POPC  H16Y21479   4.829   3.946   3.455 -0.0053 -1.0871 -0.2000
  186POPC  H16Z21480   4.789   4.032   3.304  2.3281  1.4400  0.3119
  187POPC     N21481   4.058   1.455   1.640 -0.3467 -0.2202 -0.0784
  187POPC   C1221482   3.997   1.435   1.775  0.5149 -0.2333 -0.0291
  187POPC  H12A21483   4.009   1.521   1.840 -1.2508 -1.9560  2.8389
  187POPC  H12B21484   4.039   1.359   1.840 -0.5735  2.1642  3.8287
  187POPC   C1321485   4.038   1.331   1.553  0.5194  0.2708  0.1251
  187POPC  H13A21486   4.055   1.239   1.608 -1.6369 -1.1281 -1.3926
  187POPC  H13B21487   3.938   1.329   1.512  1.0285 -2.4910 -1.2064
  187POPC  H13C21488   4.103   1.347   1.467 -0.6802  2.2564 -0.4685
  187POPC   C1421489   4.003   1.581   1.579 -0.4131 -1.1842  0.2692
  187POPC  H14A21490   3.997   1.656   1.656  0.3454 -0.5676 -0.2597
  187POPC  H14B21491   4.057   1.614   1.491 -0.8860  1.1822  0.8139
  187POPC  H14C21492   3.899   1.566   1.552 -0.3314 -0.6784 -0.3460
  187POPC   C1521493   4.208   1.484   1.669 -0.8499 -0.2402  0.4508
  187POPC  H15A21494   4.221   1.581   1.715  0.3621  0.9572 -2.2343
  187POPC  H15B21495   4.274   1.477   1.584 -0.5029 -1.2412  0.7865
  187POPC  H15C21496   4.251   1.409   1.734 -0.3522 -1.7290 -1.5186
  187POPC   C1121497   3.844   1.406   1.782 -0.1760  0.3530 -0.5460
  187POPC  H11A21498   3.821   1.380   1.887 -1.6920  0.4876 -0.8259
  187POPC  H11B21499   3.822   1.314   1.724  0.8046  1.2195 -2.3726
  187POPC     P21500   3.738   1.639   1.817 -0.3451 -0.2934 -0.2506
  187POPC   O1321501   3.656   1.614   1.938  0.3521 -0.4699  0.6409
  187POPC   O1421502   3.687   1.749   1.727  0.1773 -0.0376 -0.0303
  187POPC   O1221503   3.763   1.506   1.732  0.0802 -0.4862 -0.0457
  187POPC   O1121504   3.886   1.681   1.867  0.0011 -0.1314  0.3018
  187POPC    C121505   3.945   1.817   1.871 -0.0365  0.7486  0.0502
  187POPC    HA21506   3.900   1.883   1.793 -1.6261  0.9027  1.0366
  187POPC    HB21507   4.054   1.813   1.850  0.4105  1.6975  1.9976
  187POPC    C221508   3.943   1.887   2.014  0.4362  1.0674  0.1294
  187POPC    HS21509   4.032   1.952   2.020  1.6632 -0.5682  0.1519
  187POPC   O2121510   3.947   1.799   2.129  0.0570  0.2919  0.0407
  187POPC   C2121511   4.032   1.699   2.123 -0.7656 -0.5472 -0.6623
  187POPC   O2221512   4.136   1.698   2.061  0.8173  0.0906  0.1444
  187POPC   C2221513   3.981   1.589   2.221 -0.0316 -0.3481  0.3975
  187POPC   H2R21514   3.934   1.510   2.158  0.0306  1.5990 -2.3086
  187POPC   H2S21515   3.908   1.638   2.288 -0.7081 -0.8205  0.0249
  187POPC    C321516   3.833   1.999   2.029 -0.2805 -1.0045 -0.2102
  187POPC    HX21517   3.740   1.940   2.046 -0.5943 -0.8590 -1.3259
  187POPC    HY21518   3.809   2.062   1.940 -1.2192  0.9826  1.3877
  187POPC   O3121519   3.866   2.077   2.145  0.6218  0.2979  0.0428
  187POPC   C3121520   3.792   2.186   2.163 -0.6031  0.4688  0.1693
  187POPC   O3221521   3.722   2.240   2.077 -0.4431  0.1225 -0.2674
  187POPC   C3221522   3.840   2.252   2.284  0.3515  0.1495 -0.1723
  187POPC   H2X21523   3.898   2.342   2.252 -1.4073  1.6445  0.6491
  187POPC   H2Y21524   3.892   2.179   2.350  1.0633  0.4801 -0.3572
  187POPC   C2321525   4.091   1.524   2.304  0.5045 -0.2972 -0.0303
  187POPC   H3R21526   4.185   1.512   2.246  0.7885 -1.3805  0.6248
  187POPC   H3S21527   4.052   1.423   2.330  0.9362 -0.5380 -0.3138
  187POPC   C2421528   4.129   1.608   2.433  0.6879  0.8674  0.3496
  187POPC   H4R21529   4.039   1.604   2.499 -0.3497 -0.2317 -1.0529
  187POPC   H4S21530   4.134   1.715   2.406  2.0381  1.0869  1.3536
  187POPC   C2521531   4.254   1.555   2.493 -0.6913  0.0930 -0.3608
  187POPC   H5R21532   4.343   1.608   2.455 -0.0462 -1.0640 -0.5033
  187POPC   H5S21533   4.268   1.445   2.485 -3.5145 -0.6190  2.3670
  187POPC   C2621534   4.254   1.568   2.649 -0.7034  0.1008 -0.0558
  187POPC   H6R21535   4.197   1.481   2.690  1.1399 -0.5720  1.2240
  187POPC   H6S21536   4.205   1.664   2.674  2.1180  1.3433  1.1456
  187POPC   C2721537   4.396   1.565   2.713  0.2000 -0.0391  0.8452
  187POPC   H7R21538   4.394   1.583   2.822 -0.9524  0.9558  0.6721
  187POPC   H7S21539   4.455   1.653   2.678 -1.3941  0.1209 -1.6818
  187POPC   C2821540   4.474   1.443   2.673  0.1420 -0.0173  0.3492
  187POPC   H8R21541   4.479   1.430   2.563  3.4053  0.6479  0.3157
  187POPC   H8S21542   4.411   1.358   2.709  1.6572 -2.2637 -1.9602
  187POPC   C2921543   4.616   1.425   2.722 -0.4083 -0.5799  0.1862
  187POPC   H9121544   4.679   1.501   2.675  1.3907 -1.2636  1.3896
  187POPC  C21021545   4.670   1.325   2.803  0.5750 -0.6514  0.3910
  187POPC  H10121546   4.773   1.338   2.840  0.8047 -0.0273 -0.4238
  187POPC  C21121547   4.591   1.211   2.856  0.5685  0.4816  0.0644
  187POPC  H11R21548   4.657   1.127   2.823  2.1733  0.0951  3.7430
  187POPC  H11S21549   4.491   1.201   2.811  0.6962 -2.1632  0.2042
  187POPC  C21221550   4.580   1.204   3.011  0.5633 -0.4434 -0.3658
  187POPC  H12R21551   4.520   1.113   3.033 -0.2985  0.4417  1.1036
  187POPC  H12S21552   4.532   1.294   3.055 -1.8172 -1.8886  0.1606
  187POPC  C21321553   4.708   1.183   3.075  0.2739  0.0100  0.1643
  187POPC  H13R21554   4.767   1.277   3.070  0.2649  0.1907  2.3727
  187POPC  H13S21555   4.773   1.111   3.021 -1.6668  0.1154 -2.5093
  187POPC  C21421556   4.700   1.174   3.227  0.2558  0.2818  0.4229
  187POPC  H14R21557   4.801   1.172   3.275  0.1535 -0.4255  0.6248
  187POPC  H14S21558   4.654   1.078   3.257 -1.0733 -0.2173 -2.8118
  187POPC  C21521559   4.621   1.278   3.302 -0.1177  0.6135  0.2790
  187POPC  H15R21560   4.513   1.273   3.277 -0.0696  0.6554  0.0660
  187POPC  H15S21561   4.649   1.382   3.275 -1.0982  1.2999  1.7578
  187POPC  C21621562   4.642   1.279   3.450 -0.0858  0.0990 -0.0831
  187POPC  H16R21563   4.566   1.347   3.495 -1.0430 -0.6196 -0.5600
  187POPC  H16S21564   4.744   1.320   3.465 -0.1278  1.4570 -2.7894
  187POPC  C21721565   4.623   1.137   3.516  1.0144  0.2155 -0.0297
  187POPC  H17R21566   4.689   1.074   3.454 -0.5085  0.6483 -2.2073
  187POPC  H17S21567   4.516   1.111   3.501  1.2153  0.3815 -2.0294
  187POPC  C21821568   4.662   1.144   3.667  0.0757  0.9630 -0.8354
  187POPC  H18R21569   4.772   1.160   3.675  0.8098 -3.0601 -0.5547
  187POPC  H18S21570   4.653   1.039   3.704 -0.3707 -0.1384 -3.7535
  187POPC  H18T21571   4.599   1.212   3.728 -0.5205 -0.4889  0.2417
  187POPC   C3321572   3.717   2.307   2.363 -0.6362  0.6180  0.0098
  187POPC   H3X21573   3.626   2.244   2.356  0.1337 -0.6731  1.2100
  187POPC   H3Y21574   3.700   2.410   2.325 -0.2346  0.1010 -1.6273
  187POPC   C3421575   3.758   2.333   2.515 -0.5458  0.5408 -0.5681
  187POPC   H4X21576   3.846   2.399   2.527  1.1051 -1.6699  0.2291
  187POPC   H4Y21577   3.786   2.239   2.569 -1.4967  0.6576  0.1391
  187POPC   C3521578   3.652   2.416   2.594 -0.0326  1.1329 -0.0239
  187POPC   H5X21579   3.556   2.361   2.591 -0.0059  1.1220 -0.8832
  187POPC   H5Y21580   3.659   2.514   2.542  0.2336  1.2859  0.2972
  187POPC   C3621581   3.685   2.435   2.742 -0.0772  0.1883 -0.4165
  187POPC   H6X21582   3.602   2.501   2.775  0.9360  0.7468  1.1103
  187POPC   H6Y21583   3.783   2.487   2.754  0.2611 -0.9001  2.0530
  187POPC   C3721584   3.698   2.321   2.848  0.6117  0.4484  0.7749
  187POPC   H7X21585   3.741   2.369   2.938 -1.0400 -1.9980  3.0227
  187POPC   H7Y21586   3.770   2.240   2.822 -0.0376 -0.6611  2.2487
  187POPC   C3821587   3.566   2.268   2.888 -0.1947 -0.0590  0.3350
  187POPC   H8X21588   3.506   2.247   2.797  0.8343 -1.6567 -0.0249
  187POPC   H8Y21589   3.502   2.345   2.937  0.6228  0.8301  0.0343
  187POPC   C3921590   3.575   2.142   2.978  0.4400 -0.4254 -0.8223
  187POPC   H9X21591   3.645   2.067   2.937  0.4380  0.1751 -1.9751
  187POPC   H9Y21592   3.472   2.099   2.974  1.1232 -2.2102 -0.1183
  187POPC  C31021593   3.608   2.167   3.128  1.1042 -0.5766  0.7709
  187POPC  H10X21594   3.524   2.226   3.171  0.2045 -0.8092 -0.6000
  187POPC  H10Y21595   3.694   2.237   3.135  0.4670  0.1806  1.2951
  187POPC  C31121596   3.623   2.037   3.197 -0.0612  0.5279 -0.0032
  187POPC  H11X21597   3.699   1.969   3.150 -0.5435  0.1468 -0.2448
  187POPC  H11Y21598   3.527   1.980   3.198  0.3709 -0.2167  0.8908
  187POPC  C31221599   3.668   2.068   3.337 -0.4128 -0.2782  0.2723
  187POPC  H12X21600   3.578   2.105   3.390 -1.3793 -1.9359 -0.1434
  187POPC  H12Y21601   3.749   2.145   3.336 -1.5698  0.9788 -1.2048
  187POPC  C31321602   3.713   1.944   3.417  0.0558  0.1643  0.4783
  187POPC  H13X21603   3.816   1.914   3.389  0.0947  0.6157  0.1318
  187POPC  H13Y21604   3.649   1.860   3.379  0.3058  0.0004  0.4190
  187POPC  C31421605   3.711   1.983   3.562  0.1746 -0.4930 -0.4854
  187POPC  H14X21606   3.616   2.031   3.594  0.9528  1.3042 -0.7319
  187POPC  H14Y21607   3.789   2.061   3.575  0.4525 -0.6189 -1.3587
  187POPC  C31521608   3.747   1.873   3.660  0.6505 -0.1035 -0.0696
  187POPC  H15X21609   3.760   1.925   3.758  0.6048 -0.3995  0.0926
  187POPC  H15Y21610   3.845   1.829   3.631  1.1647  1.0776 -0.2045
  187POPC  C31621611   3.641   1.760   3.675 -0.5745  0.2665 -0.1998
  187POPC  H16X21612   3.535   1.794   3.672 -0.2782  1.1343 -1.7404
  187POPC  H16Y21613   3.666   1.700   3.765  0.1979  1.7724  0.6268
  187POPC  H16Z21614   3.646   1.691   3.589 -1.2230  0.7025 -0.5915
  188POPC     N21615   6.627   2.855   1.711  0.3446 -0.3286 -0.0996
  188POPC   C1221616   6.604   2.982   1.784 -0.8128 -0.0121 -0.3515
  188POPC  H12A21617   6.693   3.005   1.840 -1.2041  0.2451  0.1781
  188POPC  H12B21618   6.536   2.961   1.866 -1.2882 -0.4092 -0.8423
  188POPC   C1321619   6.515   2.825   1.615 -0.1922 -0.1462  0.4866
  188POPC  H13A21620   6.556   2.765   1.535  0.4850  1.8754 -0.7511
  188POPC  H13B21621   6.434   2.778   1.670  2.2461  0.0679  4.7132
  188POPC  H13C21622   6.491   2.920   1.572  1.6147  1.3167  2.5048
  188POPC   C1421623   6.755   2.868   1.637 -0.3427  0.3030  0.9270
  188POPC  H14A21624   6.801   2.775   1.607 -0.6570  0.0626  1.1824
  188POPC  H14B21625   6.753   2.929   1.549  0.2423  3.0632  2.7097
  188POPC  H14C21626   6.822   2.923   1.702  0.4778  0.9029 -0.3960
  188POPC   C1521627   6.648   2.737   1.798  0.4602  0.2247  0.3454
  188POPC  H15A21628   6.682   2.653   1.740 -0.8148 -0.5588  0.6779
  188POPC  H15B21629   6.556   2.713   1.850 -0.6402  0.2384 -1.5009
  188POPC  H15C21630   6.732   2.762   1.862  0.5285 -0.3767  0.4970
  188POPC   C1121631   6.556   3.105   1.708 -1.0004  0.3374  0.6717
  188POPC  H11A21632   6.614   3.113   1.613 -4.7375 -1.3341 -1.9886
  188POPC  H11B21633   6.572   3.196   1.769 -0.1290  1.3547 -0.9895
  188POPC     P21634   6.314   3.157   1.771  0.1849 -0.0766 -0.0009
  188POPC   O1321635   6.203   3.064   1.755 -0.0081  0.2592  0.7057
  188POPC   O1421636   6.288   3.298   1.738  0.4510  0.0169  0.0155
  188POPC   O1221637   6.426   3.104   1.669  0.1672 -0.3689 -0.6762
  188POPC   O1121638   6.376   3.147   1.920 -0.2680  0.1790  0.3135
  188POPC    C121639   6.344   3.027   1.996 -0.3120 -1.0354 -0.1267
  188POPC    HA21640   6.430   3.002   2.061  0.0741  1.5314  0.4601
  188POPC    HB21641   6.311   2.939   1.938  0.3852 -0.4996 -1.3742
  188POPC    C221642   6.234   3.072   2.095  0.4485  0.3719  0.0326
  188POPC    HS21643   6.151   3.121   2.039 -0.3864 -1.0840 -0.0528
  188POPC   O2121644   6.289   3.166   2.190 -0.3292 -0.4655  0.3148
  188POPC   C2121645   6.211   3.220   2.273 -0.8619  0.1371  0.2171
  188POPC   O2221646   6.088   3.230   2.259 -0.0541  0.0661  0.2574
  188POPC   C2221647   6.292   3.282   2.388  0.3501 -0.6333 -0.3851
  188POPC   H2R21648   6.223   3.343   2.450  0.4330 -0.8539 -0.0727
  188POPC   H2S21649   6.370   3.350   2.347  0.9579 -0.7886  0.4762
  188POPC    C321650   6.158   2.956   2.171 -0.3574 -0.2297  0.2834
  188POPC    HX21651   6.136   2.881   2.092 -2.5593  0.3468  0.2783
  188POPC    HY21652   6.062   2.996   2.211 -1.6068  0.0849 -2.7450
  188POPC   O3121653   6.242   2.909   2.278  0.0879  0.3183 -0.3532
  188POPC   C3121654   6.221   2.778   2.312  0.0847  0.1040  0.5796
  188POPC   O3221655   6.121   2.717   2.267 -0.2164 -0.1822  0.5373
  188POPC   C3221656   6.328   2.721   2.403  0.4055 -0.4025  0.6392
  188POPC   H2X21657   6.423   2.762   2.364  0.3530 -0.5235  0.3810
  188POPC   H2Y21658   6.331   2.610   2.405  0.7722 -0.3834  1.8667
  188POPC   C2321659   6.367   3.173   2.463 -0.3049  0.5082  0.2482
  188POPC   H3R21660   6.429   3.117   2.390  2.7384  1.7847  1.6729
  188POPC   H3S21661   6.300   3.100   2.514  0.8528 -0.5787  0.2838
  188POPC   C2421662   6.469   3.231   2.560  0.7231  0.9577  0.3206
  188POPC   H4R21663   6.531   3.307   2.507 -0.1262  1.2539 -0.2934
  188POPC   H4S21664   6.539   3.152   2.592 -0.6209 -0.7031 -0.6843
  188POPC   C2521665   6.409   3.281   2.684  0.4794 -0.6986 -0.2445
  188POPC   H5R21666   6.318   3.222   2.710 -0.6413  1.7030  1.6038
  188POPC   H5S21667   6.380   3.387   2.669 -0.9730 -1.2764 -1.9487
  188POPC   C2621668   6.503   3.272   2.802 -0.1178 -0.3126 -0.1605
  188POPC   H6R21669   6.596   3.328   2.777 -0.1060  0.5681  1.6852
  188POPC   H6S21670   6.521   3.163   2.811  1.1907 -0.0085  1.1753
  188POPC   C2721671   6.465   3.321   2.943 -0.4323  0.0508  0.1757
  188POPC   H7R21672   6.534   3.272   3.015 -1.5199 -1.6755  0.0972
  188POPC   H7S21673   6.360   3.290   2.963 -0.2106 -0.9724 -0.1797
  188POPC   C2821674   6.462   3.473   2.954 -0.0147 -1.1911  0.3581
  188POPC   H8R21675   6.405   3.530   2.878  3.1065  1.8086  0.0541
  188POPC   H8S21676   6.555   3.534   2.947 -0.9592  0.2203 -0.2896
  188POPC   C2921677   6.401   3.504   3.096  0.2628 -0.1028 -0.3095
  188POPC   H9121678   6.470   3.504   3.182  0.8058  1.8209 -0.6884
  188POPC  C21021679   6.266   3.527   3.112  0.1511 -0.0488 -0.4178
  188POPC  H10121680   6.227   3.569   3.206  0.1304 -1.1257  0.0703
  188POPC  C21121681   6.156   3.526   3.002  0.4512 -0.4445 -0.3770
  188POPC  H11R21682   6.102   3.434   3.032 -1.1043  0.8008  0.8047
  188POPC  H11S21683   6.188   3.513   2.896 -1.2862  2.4206 -1.3407
  188POPC  C21221684   6.059   3.652   3.017 -0.8837  0.8119  0.6393
  188POPC  H12R21685   6.009   3.657   2.918 -0.4503  0.5409  0.4006
  188POPC  H12S21686   6.116   3.747   3.029  0.7715 -0.1515  0.7048
  188POPC  C21321687   5.970   3.640   3.137 -0.1361  0.0664  0.0885
  188POPC  H13R21688   6.026   3.627   3.232 -0.1636  0.1768  0.1196
  188POPC  H13S21689   5.895   3.558   3.131  1.1056 -0.9971 -1.9074
  188POPC  C21421690   5.905   3.774   3.154 -0.2702 -0.6915  0.0157
  188POPC  H14R21691   5.845   3.787   3.062 -0.2178 -0.0395  0.0728
  188POPC  H14S21692   5.984   3.852   3.163 -1.8237  0.7691  1.8348
  188POPC  C21521693   5.816   3.793   3.270  0.4757  0.7666 -0.1401
  188POPC  H15R21694   5.876   3.776   3.361 -1.8237 -0.9313  1.1793
  188POPC  H15S21695   5.741   3.711   3.266  0.4174  0.6909  1.7236
  188POPC  C21621696   5.749   3.928   3.265 -0.0075 -0.4363  0.2001
  188POPC  H16R21697   5.652   3.925   3.318 -0.9062 -3.0949 -1.3801
  188POPC  H16S21698   5.728   3.952   3.159 -1.1149  2.1949  0.9326
  188POPC  C21721699   5.841   4.039   3.316 -0.3431 -0.1258 -0.1017
  188POPC  H17R21700   5.832   4.131   3.256 -0.0455 -0.3977 -0.5684
  188POPC  H17S21701   5.948   4.011   3.319  0.2616  2.0872  0.4283
  188POPC  C21821702   5.800   4.076   3.462 -0.0660  0.1958 -0.3648
  188POPC  H18R21703   5.711   4.141   3.472  0.1248  0.6341 -1.4428
  188POPC  H18S21704   5.884   4.128   3.512 -0.8826  0.2689  0.9951
  188POPC  H18T21705   5.794   3.983   3.523  0.9394  1.3852  1.6695
  188POPC   C3321706   6.314   2.762   2.547 -0.6322  0.5057 -0.6135
  188POPC   H3X21707   6.245   2.707   2.615 -0.6290  1.2457 -0.0024
  188POPC   H3Y21708   6.278   2.867   2.555  2.9606  1.7394  2.7334
  188POPC   C3421709   6.450   2.759   2.619 -0.1573  0.0222 -0.6130
  188POPC   H4X21710   6.516   2.832   2.566  1.4475  0.1104  1.3847
  188POPC   H4Y21711   6.500   2.661   2.603  1.8002  0.8403  0.0875
  188POPC   C3521712   6.457   2.777   2.773  0.6290  0.5456 -0.3998
  188POPC   H5X21713   6.413   2.683   2.812 -1.1088  0.8300 -1.5547
  188POPC   H5Y21714   6.387   2.858   2.803 -0.2123  0.0880 -1.0788
  188POPC   C3621715   6.601   2.801   2.823 -0.0994  0.4092  0.4961
  188POPC   H6X21716   6.628   2.907   2.805 -1.7879  1.5210  3.7324
  188POPC   H6Y21717   6.675   2.737   2.769 -0.3934 -1.3748  2.0773
  188POPC   C3721718   6.628   2.774   2.971  0.1895  0.1791  0.6016
  188POPC   H7X21719   6.725   2.819   2.999  1.0078 -0.7195 -0.6668
  188POPC   H7Y21720   6.642   2.664   2.972 -0.0204  0.0990 -1.1260
  188POPC   C3821721   6.521   2.814   3.074 -0.0364  0.2648 -0.0263
  188POPC   H8X21722   6.542   2.766   3.172 -1.8633  1.6125  1.0882
  188POPC   H8Y21723   6.421   2.777   3.044  0.2165  0.6069 -1.3985
  188POPC   C3921724   6.518   2.970   3.100  0.1273 -0.2565  0.3208
  188POPC   H9X21725   6.473   3.017   3.010  1.3916  0.7209  0.1786
  188POPC   H9Y21726   6.621   3.008   3.113  0.4449 -0.9628 -0.0983
  188POPC  C31021727   6.421   3.006   3.209 -0.1185 -0.0088  0.2783
  188POPC  H10X21728   6.345   2.925   3.213  0.9781 -1.0284  2.0437
  188POPC  H10Y21729   6.363   3.095   3.178 -2.0630 -0.7295  1.6365
  188POPC  C31121730   6.479   3.023   3.343 -0.5761  0.3031  0.6116
  188POPC  H11X21731   6.543   3.113   3.346 -0.8123  0.4788  0.4576
  188POPC  H11Y21732   6.543   2.937   3.371  1.5205  1.8469  0.7703
  188POPC  C31221733   6.366   3.044   3.447  0.5748 -0.5906  0.2266
  188POPC  H12X21734   6.283   2.976   3.418 -2.0830  1.0277  3.3400
  188POPC  H12Y21735   6.339   3.151   3.437  0.7626 -0.4250  1.2818
  188POPC  C31321736   6.407   3.031   3.593  0.1495 -0.3625 -0.5149
  188POPC  H13X21737   6.508   3.077   3.593 -0.2005  0.7782  3.5327
  188POPC  H13Y21738   6.400   2.925   3.626 -0.3155 -0.3769 -0.6562
  188POPC  C31421739   6.319   3.101   3.698  0.9158 -0.0451  0.7543
  188POPC  H14X21740   6.279   3.192   3.650 -0.0686  0.8309  3.1077
  188POPC  H14Y21741   6.376   3.125   3.790 -1.3386  2.2692  1.6425
  188POPC  C31521742   6.195   3.016   3.725 -0.6034 -0.4395 -0.6739
  188POPC  H15X21743   6.240   2.928   3.776  1.5452 -1.0260 -3.3486
  188POPC  H15Y21744   6.142   3.003   3.629  0.0076  2.8781 -1.5668
  188POPC  C31621745   6.100   3.072   3.826 -0.2919 -0.2409 -0.0142
  188POPC  H16X21746   6.008   3.009   3.829 -0.7739  0.4500 -0.2077
  188POPC  H16Y21747   6.067   3.172   3.789 -1.6082 -0.5202  0.3278
  188POPC  H16Z21748   6.136   3.078   3.931 -2.3946  0.8224  0.7050
  189SAPI   C1221749   3.935   1.375   6.512  0.4967 -0.2086  0.0659
  189SAPI    H221750   3.884   1.283   6.478  0.7803 -0.5629  0.5654
  189SAPI    O221751   3.852   1.436   6.616  0.1046 -0.0248 -0.0220
  189SAPI   HO221752   3.817   1.366   6.671  0.9075 -0.0206  0.5194
  189SAPI   C1321753   4.074   1.328   6.566 -0.5250 -0.0154  0.3175
  189SAPI    H321754   4.119   1.272   6.482  0.1024  2.2045 -0.9191
  189SAPI    O321755   4.053   1.232   6.667  0.0642 -0.2101  0.5033
  189SAPI   HO321756   4.025   1.275   6.748 -1.3702 -0.2464  0.0692
  189SAPI   C1421757   4.173   1.438   6.613  0.1418  0.0828  0.1290
  189SAPI    H421758   4.137   1.487   6.706  3.1677  1.5608  0.6173
  189SAPI    O421759   4.302   1.387   6.650 -0.1749  0.4985  0.0651
  189SAPI   HO421760   4.290   1.339   6.732 -1.8252  0.8237  0.0672
  189SAPI   C1521761   4.167   1.557   6.510  0.1506 -0.2423 -0.5441
  189SAPI    H521762   4.223   1.522   6.421 -1.2292 -2.1737 -0.7150
  189SAPI    O521763   4.230   1.673   6.574 -0.1351 -0.1816  0.1637
  189SAPI   HO521764   4.223   1.753   6.522  1.8195 -1.2705 -1.9529
  189SAPI   C1621765   4.026   1.594   6.448 -0.5604  0.4342 -0.0084
  189SAPI    H621766   3.957   1.642   6.521  0.5740  1.2124  0.5822
  189SAPI    O621767   4.049   1.687   6.339  0.2957 -0.1869 -0.1308
  189SAPI   HO621768   3.982   1.756   6.336 -3.0191 -2.8367  2.9363
  189SAPI   C1121769   3.963   1.465   6.396  0.8923  0.0003  0.9744
  189SAPI    H121770   4.031   1.414   6.325 -1.2712 -2.5534  0.5201
  189SAPI     P21771   3.770   1.393   6.208  0.2146  0.0924  0.1469
  189SAPI   O1321772   3.647   1.456   6.170  0.5178 -0.0233  0.1923
  189SAPI   O1421773   3.756   1.252   6.252 -0.4500  0.2732  0.0479
  189SAPI   O1221774   3.840   1.486   6.324  0.3268  0.9530  0.2361
  189SAPI   O1121775   3.868   1.411   6.081 -0.2125  0.4180  0.3923
  189SAPI    C121776   3.952   1.299   6.044  0.3462  0.1705  0.1430
  189SAPI    HA21777   3.983   1.243   6.134  2.0218  1.9745  0.7437
  189SAPI    HB21778   3.891   1.233   5.978 -0.6535  0.6958  0.5129
  189SAPI    C221779   4.072   1.354   5.968 -0.2638  0.4608  0.2514
  189SAPI    HS21780   4.101   1.448   6.021  1.3675 -0.1806  0.5500
  189SAPI   O2121781   4.030   1.373   5.830 -1.2151 -0.4478  0.6380
  189SAPI   C2121782   4.083   1.485   5.763 -0.3517 -0.8744 -0.3645
  189SAPI   O2221783   4.167   1.559   5.812 -0.1836 -0.7465  0.6643
  189SAPI   C2221784   4.017   1.505   5.624 -0.0704  0.5707 -0.3578
  189SAPI   H2R21785   4.091   1.483   5.544 -1.7633 -2.6984 -1.1919
  189SAPI   H2S21786   3.939   1.427   5.614 -0.7372  1.0075  1.1694
  189SAPI    C321787   4.192   1.262   5.974 -0.1214  0.1086 -0.2543
  189SAPI    HX21788   4.192   1.236   6.082 -1.9449 -1.4854 -0.5828
  189SAPI    HY21789   4.289   1.313   5.962  1.2316 -2.4183 -0.7822
  189SAPI   O3121790   4.183   1.136   5.892 -0.5151 -0.2702 -0.1160
  189SAPI   C3121791   4.214   1.156   5.768 -0.1270  0.0068 -0.1571
  189SAPI   O3221792   4.260   1.253   5.717  0.0250 -0.1092 -0.0972
  189SAPI   C3221793   4.180   1.028   5.688 -0.2294  0.3780  0.3012
  189SAPI   H2X21794   4.077   0.994   5.716  0.0216  0.1909  1.0095
  189SAPI   H2Y21795   4.251   0.947   5.715 -1.1611 -0.4512  0.3245
  189SAPI   C2321796   3.970   1.652   5.598  0.5675  0.0514 -0.0139
  189SAPI   H3R21797   4.052   1.714   5.640 -0.3444  0.4101  1.3187
  189SAPI   H3S21798   3.875   1.658   5.656 -0.6759  0.3319 -1.9707
  189SAPI   C2421799   3.942   1.688   5.454 -0.6847 -0.7035 -0.3909
  189SAPI   H4R21800   4.040   1.689   5.400 -0.2290  1.1476  0.4042
  189SAPI   H4S21801   3.896   1.788   5.441 -0.7527 -0.7032 -0.1480
  189SAPI   C2521802   3.848   1.603   5.379 -0.1797 -0.0834 -0.1001
  189SAPI   H5R21803   3.753   1.595   5.433 -1.0994 -1.2050 -1.7950
  189SAPI   C2621804   3.843   1.554   5.254 -0.3978 -0.5298  0.1117
  189SAPI   H6R21805   3.763   1.482   5.229 -0.3334 -1.1961  1.7038
  189SAPI   C2721806   3.948   1.565   5.146  0.5571  1.1133  0.3953
  189SAPI   H7R21807   3.946   1.478   5.078 -0.5510  1.1928  0.3202
  189SAPI   H7S21808   4.057   1.566   5.171  0.6145 -1.1848  0.4442
  189SAPI   C2821809   3.922   1.679   5.065  0.0933  0.0663  0.3822
  189SAPI   H8R21810   3.912   1.772   5.122  3.1125  0.3122  0.6505
  189SAPI   C2921811   3.910   1.689   4.929 -0.5219  0.6662 -0.1114
  189SAPI   H9R21812   3.877   1.786   4.888 -1.1175  1.3916  1.9726
  189SAPI  C21021813   3.934   1.587   4.825 -0.5643  0.2161  0.2693
  189SAPI  H10R21814   3.871   1.498   4.850 -2.3570  1.0264 -1.1115
  189SAPI  H10S21815   4.037   1.547   4.830 -0.0360  1.4975  0.0934
  189SAPI  C21121816   3.905   1.619   4.682 -0.5098  0.4521 -0.2170
  189SAPI  H11R21817   3.798   1.610   4.660 -0.6458 -0.1800  0.6653
  189SAPI  C21221818   3.999   1.639   4.587 -0.4302  0.1892 -0.6606
  189SAPI  H12R21819   3.963   1.667   4.486  0.8863  1.2240 -0.8769
  189SAPI  C21321820   4.145   1.625   4.610  0.6689  0.3346 -0.6135
  189SAPI  H13R21821   4.186   1.671   4.702  0.4885  0.9782 -0.8510
  189SAPI  H13S21822   4.200   1.680   4.530  1.0559  0.8791  0.0220
  189SAPI  C21421823   4.205   1.479   4.602  1.1424 -0.5334 -0.2537
  189SAPI  H14R21824   4.213   1.419   4.694  2.0207  1.3718  0.9739
  189SAPI  C21521825   4.264   1.420   4.498 -0.3367 -0.1209  0.0138
  189SAPI  H15R21826   4.308   1.320   4.503  0.9722  0.4571  0.4015
  189SAPI  C21621827   4.260   1.465   4.357  0.2219 -0.2937 -0.4452
  189SAPI  H16R21828   4.218   1.567   4.351  1.3511  0.1746 -0.7486
  189SAPI  H16S21829   4.209   1.392   4.292  1.3128  0.3666 -2.1235
  189SAPI  C21721830   4.404   1.469   4.301  0.1932 -0.1563  0.1969
  189SAPI  H17R21831   4.459   1.373   4.311  0.9019  0.5080  4.0462
  189SAPI  H17S21832   4.461   1.552   4.347  1.0263  0.9200 -2.5756
  189SAPI  C21821833   4.408   1.507   4.145 -0.3193  0.2710 -0.7170
  189SAPI  H18R21834   4.381   1.615   4.146 -0.2353  0.2976  1.1809
  189SAPI  H18S21835   4.337   1.448   4.083  0.8200 -1.5153 -0.3944
  189SAPI  C21921836   4.545   1.500   4.088  0.4096 -0.3793  0.6394
  189SAPI  H19R21837   4.612   1.546   4.164 -0.9276  1.1105  0.9565
  189SAPI  H19S21838   4.542   1.565   3.997 -0.4299 -1.5743 -0.2185
  189SAPI  C22021839   4.583   1.360   4.054 -0.3867  0.6597 -0.4525
  189SAPI  H20R21840   4.499   1.313   3.999 -1.3987  0.7400  0.9824
  189SAPI  H20S21841   4.616   1.306   4.145  1.1045 -1.3257 -2.0379
  189SAPI  H20T21842   4.672   1.359   3.986 -0.2004 -0.1684 -0.2182
  189SAPI   C3321843   4.190   1.058   5.536  0.4073  0.3396 -0.1333
  189SAPI   H3X21844   4.291   1.104   5.526 -0.7433  2.9300 -0.9172
  189SAPI   H3Y21845   4.123   1.143   5.510 -1.3008 -1.1304 -0.6503
  189SAPI   C3421846   4.173   0.935   5.448  0.3366 -0.0469 -0.0131
  189SAPI   H4X21847   4.074   0.887   5.466 -0.6907  2.1686  0.5810
  189SAPI   H4Y21848   4.251   0.864   5.484  0.5271  0.2518  0.1645
  189SAPI   C3521849   4.200   0.971   5.302  0.3887 -0.1676 -0.1361
  189SAPI   H5X21850   4.309   0.991   5.298  0.3230  0.8417  1.8160
  189SAPI   H5Y21851   4.146   1.064   5.273  0.6640 -0.0305 -0.2122
  189SAPI   C3621852   4.179   0.858   5.204 -0.5133  0.8943  0.2997
  189SAPI   H6X21853   4.075   0.822   5.225 -0.2229  0.5293  1.1767
  189SAPI   H6Y21854   4.237   0.769   5.237 -1.5906  0.1867  0.3526
  189SAPI   C3721855   4.183   0.891   5.056  0.3991 -0.0506 -0.8736
  189SAPI   H7X21856   4.085   0.930   5.022  0.3192  0.9055  0.3331
  189SAPI   H7Y21857   4.189   0.791   5.009 -0.7442 -0.9834  0.8716
  189SAPI   C3821858   4.298   0.983   5.008  0.4554  0.0516  0.0903
  189SAPI   H8X21859   4.400   0.946   5.032  0.2838  0.6110  1.8598
  189SAPI   H8Y21860   4.288   1.084   5.053  0.4165 -0.1232  0.4789
  189SAPI   C3921861   4.284   0.983   4.859 -0.1329  0.0250 -0.4773
  189SAPI   H9X21862   4.191   1.040   4.839  0.0670  0.2847 -0.6588
  189SAPI   H9Y21863   4.274   0.878   4.823  0.5731 -0.3509  0.4010
  189SAPI  C31021864   4.404   1.043   4.775 -0.2777  1.0202  0.1911
  189SAPI  H10X21865   4.379   1.019   4.669  1.5258 -1.8146  0.2832
  189SAPI  H10Y21866   4.494   0.981   4.796 -0.2516  1.6213  1.9859
  189SAPI  C31121867   4.439   1.193   4.807 -0.3205  0.1257  0.2371
  189SAPI  H11X21868   4.437   1.209   4.917  2.1754 -1.8236  0.6468
  189SAPI  H11Y21869   4.357   1.246   4.753 -1.3438  2.0816  3.3994
  189SAPI  C31221870   4.586   1.225   4.771  0.1826 -0.1589  0.0042
  189SAPI  H12X21871   4.648   1.137   4.798 -0.7277 -1.2660 -1.3688
  189SAPI  H12Y21872   4.619   1.316   4.826  3.2287 -1.1748  0.0531
  189SAPI  C31321873   4.605   1.249   4.620  0.1829  0.3435 -0.4480
  189SAPI  H13X21874   4.640   1.355   4.614  0.0772  0.5614  1.7334
  189SAPI  H13Y21875   4.509   1.239   4.565  0.7910  0.0355 -1.4702
  189SAPI  C31421876   4.710   1.147   4.562 -0.7696  0.8390  0.6189
  189SAPI  H14X21877   4.669   1.044   4.557  1.1407 -0.0063  1.5714
  189SAPI  H14Y21878   4.800   1.153   4.627 -1.3547 -2.2180  1.8816
  189SAPI  C31521879   4.746   1.187   4.417 -0.5100 -0.4969 -0.5295
  189SAPI  H15X21880   4.794   1.287   4.432 -1.2965 -0.2616  0.5274
  189SAPI  H15Y21881   4.660   1.192   4.347 -0.9205 -1.7461 -0.1342
  189SAPI  C31621882   4.847   1.096   4.351 -0.0503  0.5435  0.5876
  189SAPI  H16X21883   4.880   1.138   4.254  1.0655  0.0164  0.7305
  189SAPI  H16Y21884   4.797   0.999   4.332 -0.0172  0.7440 -0.5550
  189SAPI  C31721885   4.978   1.071   4.427  0.4108  0.7663 -0.5857
  189SAPI  H17X21886   5.041   1.007   4.363 -1.6105 -1.6973 -0.2665
  189SAPI  H17Y21887   4.944   1.016   4.517 -2.4434  1.6310 -1.0159
  189SAPI  C31821888   5.049   1.195   4.476 -0.0615 -0.5896 -0.5806
  189SAPI  H18X21889   4.984   1.254   4.544  1.5994 -0.6434  1.1467
  189SAPI  H18Y21890   5.074   1.257   4.388  2.0357  1.8226  1.5731
  189SAPI  H18Z21891   5.143   1.179   4.532  0.1249  2.5881  0.1859
  190SAPI   C1221892   4.822   0.454   6.414  0.1162  0.0546 -0.2261
  190SAPI    H221893   4.904   0.523   6.442  1.2166 -1.2489 -0.1806
  190SAPI    O221894   4.816   0.351   6.511 -0.0955  0.5079 -0.5594
  190SAPI   HO221895   4.887   0.290   6.489 -1.7185 -1.4569 -0.6441
  190SAPI   C1321896   4.691   0.525   6.403  0.1006  0.1667 -0.2903
  190SAPI    H321897   4.693   0.591   6.314  1.1556  0.9017  0.2483
  190SAPI    O321898   4.656   0.601   6.526 -0.1427  0.3694  0.6588
  190SAPI   HO321899   4.734   0.643   6.562  0.1043 -1.0476  1.9026
  190SAPI   C1421900   4.574   0.429   6.369 -0.1740  0.4958 -0.0776
  190SAPI    H421901   4.569   0.354   6.451  3.1164 -0.5346 -0.6351
  190SAPI    O421902   4.450   0.491   6.357 -1.2701 -0.6170  0.1412
  190SAPI   HO421903   4.402   0.468   6.436 -2.7289 -0.1977 -0.5832
  190SAPI   C1521904   4.621   0.350   6.242 -0.1290  0.1904 -0.1296
  190SAPI    H521905   4.597   0.426   6.165  1.3291  0.9309  0.1039
  190SAPI    O521906   4.533   0.242   6.196 -0.2274 -0.5735  0.6452
  190SAPI   HO521907   4.499   0.269   6.110  0.2678  0.6395  0.8156
  190SAPI   C1621908   4.770   0.310   6.220  0.0984 -0.1806  0.3668
  190SAPI    H621909   4.777   0.212   6.273  2.4627 -1.3929 -1.9958
  190SAPI    O621910   4.802   0.297   6.084 -0.2026  0.2894  0.2402
  190SAPI   HO621911   4.849   0.216   6.062 -0.4596  0.3599 -0.6114
  190SAPI   C1121912   4.870   0.402   6.281  0.3163 -0.2619 -0.2142
  190SAPI    H121913   4.880   0.489   6.213  0.7148 -0.1195  0.0250
  190SAPI     P21914   5.129   0.409   6.217 -0.2786 -0.5184 -0.2632
  190SAPI   O1321915   5.246   0.347   6.276  0.1838  0.0617  0.1377
  190SAPI   O1421916   5.121   0.554   6.233  0.0554 -0.3016 -0.8053
  190SAPI   O1221917   4.997   0.336   6.288 -0.0761 -0.6494 -0.1194
  190SAPI   O1121918   5.126   0.370   6.064  0.2373 -0.3707 -0.0440
  190SAPI    C121919   5.165   0.480   5.974  0.1554 -0.0268  0.2176
  190SAPI    HA21920   5.242   0.541   6.026  1.4644 -3.7604  3.1983
  190SAPI    HB21921   5.214   0.433   5.886 -1.0224  0.5594 -0.7848
  190SAPI    C221922   5.034   0.558   5.923  0.1266 -0.5872 -0.0387
  190SAPI    HS21923   4.989   0.595   6.018  2.7731  2.5128  0.1706
  190SAPI   O2121924   4.940   0.474   5.856 -0.2083  0.0176 -0.0051
  190SAPI   C2121925   4.814   0.521   5.866 -0.3143 -0.5868 -0.0785
  190SAPI   O2221926   4.781   0.631   5.915 -0.5248  0.7449  0.3754
  190SAPI   C2221927   4.719   0.422   5.810 -0.4518  0.6802  0.6872
  190SAPI   H2R21928   4.751   0.318   5.832 -1.4367 -0.1694 -1.6065
  190SAPI   H2S21929   4.621   0.424   5.863  0.4556 -0.4098  2.5039
  190SAPI    C321930   5.067   0.680   5.827  0.5016 -0.2170  0.0180
  190SAPI    HX21931   5.132   0.742   5.893 -1.3834 -0.7244  2.4840
  190SAPI    HY21932   4.970   0.733   5.814  1.5123  1.7579  0.0126
  190SAPI   O3121933   5.144   0.650   5.710 -0.3271  0.0388  0.3027
  190SAPI   C3121934   5.080   0.649   5.601 -0.6743  0.2730 -0.5312
  190SAPI   O3221935   4.966   0.685   5.577 -0.1068 -0.2657 -0.1617
  190SAPI   C3221936   5.179   0.621   5.486 -0.3033  1.0305  0.1351
  190SAPI   H2X21937   5.244   0.541   5.528  2.1117  3.7036  1.8707
  190SAPI   H2Y21938   5.241   0.711   5.469 -0.2758  1.1737  0.9841
  190SAPI   C2321939   4.686   0.451   5.660  0.6366  1.0882  0.0724
  190SAPI   H3R21940   4.665   0.554   5.624  0.0040  0.4458 -1.5102
  190SAPI   H3S21941   4.582   0.414   5.648  1.7485 -2.0676 -0.7805
  190SAPI   C2421942   4.770   0.374   5.557 -0.6315 -1.1901 -0.4729
  190SAPI   H4R21943   4.879   0.393   5.567 -0.4588 -0.8829 -2.4684
  190SAPI   H4S21944   4.739   0.417   5.459  0.4944 -0.7402 -0.6460
  190SAPI   C2521945   4.735   0.230   5.551  0.2219  0.3157  0.2817
  190SAPI   H5R21946   4.764   0.178   5.644  1.3168 -1.4550 -0.9929
  190SAPI   C2621947   4.697   0.158   5.442  0.1884 -0.3371 -0.0177
  190SAPI   H6R21948   4.694   0.049   5.455  1.2186 -0.1467  2.2699
  190SAPI   C2721949   4.665   0.224   5.308 -0.0863  0.2272 -0.4333
  190SAPI   H7R21950   4.678   0.138   5.239  0.0946 -0.3970  0.3637
  190SAPI   H7S21951   4.746   0.289   5.267 -0.0898 -0.9532 -2.4365
  190SAPI   C2821952   4.528   0.271   5.286 -0.3371 -0.2586  0.0604
  190SAPI   H8R21953   4.450   0.226   5.349  0.0128 -1.8167 -0.5759
  190SAPI   C2921954   4.489   0.385   5.212  0.1455 -0.2836 -0.2256
  190SAPI   H9R21955   4.383   0.410   5.218  0.3710  1.0442 -1.3758
  190SAPI  C21021956   4.572   0.475   5.129 -0.0229  0.3347  0.2624
  190SAPI  H10R21957   4.591   0.409   5.041  0.2351  0.8852 -0.1065
  190SAPI  H10S21958   4.671   0.499   5.172  0.4620 -2.0562  0.6051
  190SAPI  C21121959   4.500   0.601   5.085 -0.3797 -0.0974  0.1817
  190SAPI  H11R21960   4.450   0.658   5.165  0.2132 -0.9262  1.1750
  190SAPI  C21221961   4.494   0.646   4.957  0.0743  0.5127 -0.6592
  190SAPI  H12R21962   4.441   0.740   4.936 -2.7965 -1.0418 -0.8712
  190SAPI  C21321963   4.551   0.582   4.837 -0.7948  0.2272 -0.7654
  190SAPI  H13R21964   4.480   0.527   4.771  0.1886 -0.0956 -1.5745
  190SAPI  H13S21965   4.625   0.508   4.873 -0.0293  1.7175  0.8706
  190SAPI  C21421966   4.620   0.697   4.763  0.7282 -0.0401 -0.0744
  190SAPI  H14R21967   4.662   0.782   4.819 -0.8680 -0.5840  2.0674
  190SAPI  C21521968   4.623   0.715   4.623 -0.3449 -0.3356  0.2737
  190SAPI  H15R21969   4.683   0.796   4.579 -0.0878 -0.9628 -0.5819
  190SAPI  C21621970   4.583   0.626   4.513 -0.4274  0.4894 -0.1409
  190SAPI  H16R21971   4.504   0.684   4.460  0.4285  1.3000 -0.5563
  190SAPI  H16S21972   4.541   0.531   4.554 -0.3932  0.5599  0.0619
  190SAPI  C21721973   4.696   0.583   4.414 -0.6045  0.0150  0.6198
  190SAPI  H17R21974   4.757   0.506   4.465 -0.5515 -1.6178 -1.7257
  190SAPI  H17S21975   4.754   0.674   4.387 -0.6121  0.2021  1.2206
  190SAPI  C21821976   4.640   0.520   4.288 -0.2625  0.3400 -0.1493
  190SAPI  H18R21977   4.600   0.602   4.224  0.9688  0.4040 -0.8631
  190SAPI  H18S21978   4.555   0.461   4.328 -0.7142  0.5327 -0.8012
  190SAPI  C21921979   4.743   0.441   4.203 -0.7057  0.1262 -0.1075
  190SAPI  H19R21980   4.800   0.378   4.276  0.9371  0.2713 -1.2076
  190SAPI  H19S21981   4.823   0.506   4.162  0.1577 -0.0646  1.1962
  190SAPI  C22021982   4.667   0.366   4.096  0.1232  0.5415 -0.4080
  190SAPI  H20R21983   4.617   0.441   4.031  1.7237 -0.3809 -2.8976
  190SAPI  H20S21984   4.601   0.295   4.150  0.0860  0.8325 -0.0688
  190SAPI  H20T21985   4.743   0.309   4.037 -2.0730 -3.5006  0.2715
  190SAPI   C3321986   5.111   0.578   5.344  0.0133 -0.4075  0.3292
  190SAPI   H3X21987   5.021   0.517   5.369 -0.0541  0.4876  2.5765
  190SAPI   H3Y21988   5.191   0.525   5.288 -1.6572 -1.1572 -1.4845
  190SAPI   C3421989   5.080   0.696   5.250 -0.1584 -0.1380  0.4283
  190SAPI   H4X21990   5.175   0.732   5.205  0.7754 -0.8685  1.7543
  190SAPI   H4Y21991   5.033   0.775   5.312 -0.7894  1.0779 -1.4984
  190SAPI   C3521992   4.981   0.658   5.135  0.5213 -0.3346 -0.6388
  190SAPI   H5X21993   4.947   0.739   5.067  1.6456 -1.2925 -2.4113
  190SAPI   H5Y21994   4.890   0.622   5.188  1.0512  2.0926  2.2031
  190SAPI   C3621995   5.029   0.545   5.050 -0.9966 -0.1171 -0.2590
  190SAPI   H6X21996   5.048   0.456   5.114  0.3599  1.0178  0.9966
  190SAPI   H6Y21997   5.125   0.570   5.001 -1.3683  1.3004 -0.3040
  190SAPI   C3721998   4.933   0.506   4.939  0.5049 -0.2253  0.3954
  190SAPI   H7X21999   4.897   0.597   4.885  1.0723 -0.3353 -0.1831
  190SAPI   H7Y22000   4.842   0.455   4.978 -1.5715  2.7482 -0.1746
  190SAPI   C3822001   5.001   0.419   4.834 -0.0231 -0.0465  0.7135
  190SAPI   H8X22002   5.061   0.336   4.876 -0.5056 -1.3633 -1.0799
  190SAPI   H8Y22003   5.087   0.471   4.785 -0.0364  0.7688  1.5379
  190SAPI   C3922004   4.911   0.367   4.720  0.4113  0.2528  0.6787
  190SAPI   H9X22005   4.970   0.341   4.630 -0.2300  0.2617  0.2459
  190SAPI   H9Y22006   4.853   0.456   4.686  0.7504  0.3059  0.2371
  190SAPI  C31022007   4.806   0.266   4.758 -0.6344  0.0153  0.0827
  190SAPI  H10X22008   4.748   0.314   4.840 -1.4000  1.2813 -1.1589
  190SAPI  H10Y22009   4.856   0.174   4.795  0.4082 -0.2450 -1.8782
  190SAPI  C31122010   4.703   0.238   4.654  0.4491  0.9719  0.7118
  190SAPI  H11X22011   4.674   0.335   4.610  0.0476 -0.4965 -2.5643
  190SAPI  H11Y22012   4.622   0.190   4.713  1.0817 -1.4482 -0.2727
  190SAPI  C31222013   4.745   0.144   4.544 -0.1507 -0.2477 -0.1872
  190SAPI  H12X22014   4.780   0.044   4.578  0.1970  0.2918  1.0998
  190SAPI  H12Y22015   4.834   0.192   4.497 -0.7123  2.0575  0.9256
  190SAPI  C31322016   4.645   0.123   4.432 -0.0127 -0.4516 -0.2781
  190SAPI  H13X22017   4.697   0.082   4.343  0.2917 -1.1178  0.2038
  190SAPI  H13Y22018   4.612   0.227   4.409 -0.0943 -0.5441 -0.5811
  190SAPI  C31422019   4.516   0.039   4.464 -0.0468  0.1351  0.4377
  190SAPI  H14X22020   4.463   0.062   4.559  1.0272  0.7503  0.9027
  190SAPI  H14Y22021   4.538  -0.066   4.491 -1.2149  0.0073  0.9487
  190SAPI  C31522022   4.427   0.042   4.342 -1.4095 -0.1151 -1.0276
  190SAPI  H15X22023   4.471  -0.024   4.265 -0.1637 -0.1372 -0.3192
  190SAPI  H15Y22024   4.420   0.151   4.321  1.0647 -0.0564 -1.8202
  190SAPI  C31622025   4.296  -0.030   4.373 -0.4506  0.5595  0.0232
  190SAPI  H16X22026   4.222  -0.003   4.295  0.4729  0.9371 -0.7529
  190SAPI  H16Y22027   4.251   0.009   4.467 -0.0914  0.3683  0.2807
  190SAPI  C31722028   4.302  -0.189   4.391  0.0452 -0.2679  0.4144
  190SAPI  H17X22029   4.200  -0.234   4.395  0.6329 -1.5242  1.6521
  190SAPI  H17Y22030   4.352  -0.210   4.487 -1.1771 -2.6778  0.6009
  190SAPI  C31822031   4.381  -0.270   4.284 -0.3995  0.1433 -0.3799
  190SAPI  H18X22032   4.489  -0.244   4.280 -0.5729  0.9476  0.0027
  190SAPI  H18Y22033   4.343  -0.252   4.181 -0.2782  2.6814 -0.0517
  190SAPI  H18Z22034   4.379  -0.380   4.301 -0.1916  0.0672 -0.8208
  191SAPI   C1222035   0.920   5.893   1.657 -0.4961 -0.0834 -0.4914
  191SAPI    H222036   0.940   5.949   1.751  1.1267 -1.6421  0.1435
  191SAPI    O222037   0.827   5.789   1.702  0.0271 -0.2470  0.0647
  191SAPI   HO222038   0.755   5.817   1.758 -1.2880 -4.4861  0.8761
  191SAPI   C1322039   0.854   5.988   1.560  0.0997  0.3922 -0.0909
  191SAPI    H322040   0.919   6.076   1.545 -2.2970  2.6823  1.9934
  191SAPI    O322041   0.732   6.045   1.608  0.3734 -0.0370 -0.1653
  191SAPI   HO322042   0.671   5.982   1.647 -0.5203  1.5444  1.1196
  191SAPI   C1422043   0.844   5.925   1.416 -0.2956 -0.0295 -0.6911
  191SAPI    H422044   0.757   5.857   1.426  1.7400 -3.0285 -2.0360
  191SAPI    O422045   0.818   6.029   1.318 -0.3311  0.3906 -0.8153
  191SAPI   HO422046   0.724   6.031   1.299 -0.7697  1.9161  1.1803
  191SAPI   C1522047   0.968   5.837   1.379 -0.7329  0.4798 -0.0774
  191SAPI    H522048   1.040   5.913   1.341  1.5755 -0.5205  1.9968
  191SAPI    O522049   0.945   5.755   1.266 -0.1769 -0.0537  0.1141
  191SAPI   HO522050   1.027   5.767   1.218 -0.6349  2.6476 -0.1265
  191SAPI   C1622051   1.025   5.749   1.491  0.0451 -0.2356  0.4445
  191SAPI    H622052   0.950   5.674   1.524 -0.1818  0.5305  1.7247
  191SAPI    O622053   1.139   5.674   1.441  0.3170  0.3363 -0.4403
  191SAPI   HO622054   1.144   5.597   1.498 -1.4106 -0.4857 -1.3361
  191SAPI   C1122055   1.054   5.832   1.609 -0.3470 -0.9876 -0.5509
  191SAPI    H122056   1.116   5.912   1.563 -0.7293 -1.1454 -1.3610
  191SAPI     P22057   1.211   5.825   1.817  0.2031  0.0635  0.0886
  191SAPI   O1322058   1.290   5.927   1.749 -0.2653 -0.1415 -0.2712
  191SAPI   O1422059   1.292   5.724   1.887 -0.3412 -0.4440  0.4276
  191SAPI   O1222060   1.114   5.750   1.710  0.2991 -0.3361 -0.1668
  191SAPI   O1122061   1.119   5.897   1.924  0.1776 -0.0950 -0.0233
  191SAPI    C122062   1.040   5.824   2.012 -0.0630 -0.3805  0.4747
  191SAPI    HA22063   0.960   5.775   1.953  2.7039 -2.5189 -1.7331
  191SAPI    HB22064   1.087   5.737   2.063 -0.7090  0.1036  1.9723
  191SAPI    C222065   0.983   5.913   2.120 -0.0564 -0.5062  0.1373
  191SAPI    HS22066   0.954   6.002   2.060  0.9803 -0.9620 -1.0871
  191SAPI   O2122067   1.096   5.944   2.217  0.1022  0.3352 -0.1091
  191SAPI   C2122068   1.069   6.029   2.316  0.0268 -0.0111 -0.0010
  191SAPI   O2222069   0.980   6.115   2.314  0.1948  0.0799  0.3218
  191SAPI   C2222070   1.183   6.018   2.421 -0.0085 -0.0814 -0.0949
  191SAPI   H2R22071   1.227   5.916   2.430  0.3878  0.2131  1.8550
  191SAPI   H2S22072   1.263   6.085   2.381  1.4599 -0.6640  1.7135
  191SAPI    C322073   0.842   5.865   2.187 -0.5058  0.2590 -0.3744
  191SAPI    HX22074   0.759   5.876   2.113  1.0078  3.2672 -1.7729
  191SAPI    HY22075   0.827   5.926   2.279  2.3101  2.3323 -1.1720
  191SAPI   O3122076   0.843   5.723   2.220  0.2899  0.6156  0.4013
  191SAPI   C3122077   0.880   5.683   2.349  0.2489 -0.3725  0.2111
  191SAPI   O3222078   0.918   5.765   2.426  0.4703  0.3501 -0.4497
  191SAPI   C3222079   0.873   5.536   2.380  0.1682  0.8254 -0.2287
  191SAPI   H2X22080   0.831   5.474   2.297 -2.2415  1.0264  0.7691
  191SAPI   H2Y22081   0.805   5.530   2.468  0.6798 -0.5393  0.1102
  191SAPI   C2322082   1.135   6.070   2.557 -0.3054 -0.4072  0.1729
  191SAPI   H3R22083   1.044   6.018   2.595 -0.9890 -0.3853 -1.3785
  191SAPI   H3S22084   1.102   6.172   2.528  0.1966 -0.6030 -1.1609
  191SAPI   C2422085   1.244   6.064   2.670  0.0943  0.4492  0.7504
  191SAPI   H4R22086   1.337   6.111   2.632 -0.1438 -0.5473 -1.2555
  191SAPI   H4S22087   1.273   5.957   2.683  0.5321  0.3464 -0.7843
  191SAPI   C2522088   1.207   6.116   2.804  0.5824  0.4100 -0.1254
  191SAPI   H5R22089   1.149   6.209   2.799 -1.6567 -0.7516  2.1591
  191SAPI   C2622090   1.253   6.066   2.921  0.1558 -0.1023 -0.3799
  191SAPI   H6R22091   1.217   6.118   3.012  1.6663  0.5147 -0.1076
  191SAPI   C2722092   1.337   5.947   2.958 -0.0498 -0.2247 -0.3975
  191SAPI   H7R22093   1.395   5.920   2.867 -0.7264 -0.9829 -0.6219
  191SAPI   H7S22094   1.276   5.854   2.970  0.2136 -0.2409  0.9315
  191SAPI   C2822095   1.439   5.975   3.067 -0.2722 -0.1191  0.5876
  191SAPI   H8R22096   1.541   5.994   3.031  1.0070 -1.9867  2.9727
  191SAPI   C2922097   1.425   5.955   3.198  0.0624  0.8270  0.7245
  191SAPI   H9R22098   1.507   5.984   3.266  0.3874  0.5603  0.4499
  191SAPI  C21022099   1.302   5.923   3.272 -0.0286 -0.7979 -0.0464
  191SAPI  H10R22100   1.327   5.833   3.333  1.3642  0.1583  0.8531
  191SAPI  H10S22101   1.220   5.890   3.204 -0.7451  0.2979  0.2751
  191SAPI  C21122102   1.268   6.045   3.362 -0.3974  1.1037  0.2333
  191SAPI  H11R22103   1.240   6.132   3.301 -1.2838  0.4232 -0.3487
  191SAPI  C21222104   1.261   6.045   3.496 -0.4395 -0.8083 -0.0891
  191SAPI  H12R22105   1.235   6.144   3.535 -1.5470 -0.9065 -0.5527
  191SAPI  C21322106   1.283   5.936   3.594  0.3234  0.6197  0.0242
  191SAPI  H13R22107   1.257   5.843   3.540  1.6722 -0.4402  1.0970
  191SAPI  H13S22108   1.204   5.942   3.672 -2.1365 -1.4266 -2.1504
  191SAPI  C21422109   1.425   5.926   3.637 -0.8897  0.8701  0.0929
  191SAPI  H14R22110   1.497   5.916   3.555  1.3917 -2.4412  2.2484
  191SAPI  C21522111   1.470   5.906   3.764  0.4295  0.5439  0.0968
  191SAPI  H15R22112   1.575   5.883   3.785 -0.3569 -0.9308  2.9350
  191SAPI  C21622113   1.382   5.894   3.896  0.0520  0.6364  0.4448
  191SAPI  H16R22114   1.277   5.892   3.862  0.3044 -0.0813 -0.3070
  191SAPI  H16S22115   1.394   5.990   3.950  0.3536 -0.0794  1.7039
  191SAPI  C21722116   1.415   5.778   4.000  0.3260  0.4358  0.0903
  191SAPI  H17R22117   1.518   5.792   4.039  0.1314  1.5936  0.2328
  191SAPI  H17S22118   1.417   5.678   3.953  2.2945  0.3227  0.3635
  191SAPI  C21822119   1.333   5.787   4.131 -0.0520 -0.3819 -0.0918
  191SAPI  H18R22120   1.233   5.816   4.092  0.7370  1.9833 -0.5200
  191SAPI  H18S22121   1.378   5.880   4.172  1.2223 -1.4001  0.8842
  191SAPI  C21922122   1.341   5.666   4.216  0.0240  0.7245  0.3785
  191SAPI  H19R22123   1.299   5.574   4.170 -1.5311  1.2917  0.5969
  191SAPI  H19S22124   1.271   5.686   4.300 -0.4565  1.3210 -0.1583
  191SAPI  C22022125   1.478   5.641   4.285 -0.4530 -0.5663 -0.4245
  191SAPI  H20R22126   1.510   5.741   4.323 -0.5444 -0.0164 -1.7473
  191SAPI  H20S22127   1.549   5.613   4.205 -1.8259 -0.0165 -1.8856
  191SAPI  H20T22128   1.463   5.563   4.363  2.4197 -1.1685 -0.3492
  191SAPI   C3322129   1.006   5.467   2.417 -0.6039 -0.1566 -0.0184
  191SAPI   H3X22130   1.084   5.501   2.345 -0.9139  0.0904 -0.2448
  191SAPI   H3Y22131   0.986   5.358   2.408  0.9329 -0.6872  2.3698
  191SAPI   C3422132   1.043   5.494   2.564  0.2270 -0.5289  0.4724
  191SAPI   H4X22133   0.979   5.447   2.642 -1.0241  4.3642  2.7297
  191SAPI   H4Y22134   1.036   5.604   2.576 -0.1135 -0.3054 -1.5018
  191SAPI   C3522135   1.198   5.459   2.593 -0.5796  0.2679 -0.9893
  191SAPI   H5X22136   1.261   5.497   2.510 -0.5323 -0.3321 -1.2312
  191SAPI   H5Y22137   1.216   5.350   2.585  2.5073  0.7319 -1.3945
  191SAPI   C3622138   1.253   5.513   2.727  1.0612  1.0573 -0.1474
  191SAPI   H6X22139   1.255   5.623   2.744 -3.0974  1.2130  0.5016
  191SAPI   H6Y22140   1.351   5.467   2.748  0.2712  0.0144  1.4574
  191SAPI   C3722141   1.163   5.462   2.849 -0.2989  0.5517  0.3826
  191SAPI   H7X22142   1.171   5.352   2.841  0.3720  0.2994  3.2930
  191SAPI   H7Y22143   1.061   5.507   2.844 -0.1796  1.0199  1.7903
  191SAPI   C3822144   1.228   5.499   2.980  0.7257 -0.4621  0.1623
  191SAPI   H8X22145   1.237   5.609   2.976  1.1112 -0.4775  0.5497
  191SAPI   H8Y22146   1.328   5.451   2.983 -0.2500 -2.6231 -0.2080
  191SAPI   C3922147   1.151   5.472   3.106 -0.0908 -0.1405  0.3920
  191SAPI   H9X22148   1.138   5.362   3.095 -0.6669 -0.0624  0.2506
  191SAPI   H9Y22149   1.055   5.527   3.121  0.2391  0.2960  0.9488
  191SAPI  C31022150   1.228   5.510   3.230  0.5866  0.2870  0.0268
  191SAPI  H10X22151   1.234   5.621   3.225 -0.9860  0.4052  0.2539
  191SAPI  H10Y22152   1.329   5.470   3.250 -0.6035 -2.7510  0.4826
  191SAPI  C31122153   1.148   5.467   3.361 -0.1645  0.3697  0.1641
  191SAPI  H11X22154   1.176   5.360   3.376 -0.0555  0.5504  1.4315
  191SAPI  H11Y22155   1.039   5.473   3.346  0.0049  1.0004 -0.8806
  191SAPI  C31222156   1.186   5.533   3.494 -0.7665 -0.3264  0.2534
  191SAPI  H12X22157   1.166   5.642   3.490  0.3566 -0.1124  0.0661
  191SAPI  H12Y22158   1.297   5.531   3.497 -0.7978 -0.5576  1.8150
  191SAPI  C31322159   1.132   5.462   3.619 -0.4814 -0.1868  0.0516
  191SAPI  H13X22160   1.174   5.360   3.608 -1.0772 -0.4195 -0.1524
  191SAPI  H13Y22161   1.021   5.464   3.628 -0.5604 -1.8757 -0.1873
  191SAPI  C31422162   1.172   5.541   3.741 -0.4021 -0.4777 -0.2486
  191SAPI  H14X22163   1.108   5.631   3.752  0.2234  0.0067 -0.4808
  191SAPI  H14Y22164   1.278   5.573   3.732 -0.2691 -0.0835  2.1105
  191SAPI  C31522165   1.159   5.462   3.876 -0.4385 -0.0616 -0.0785
  191SAPI  H15X22166   1.058   5.418   3.861 -0.3018  0.2101 -2.0584
  191SAPI  H15Y22167   1.156   5.532   3.963 -2.4607  0.9008 -0.8611
  191SAPI  C31622168   1.260   5.349   3.894  0.4201 -0.0220 -0.1962
  191SAPI  H16X22169   1.361   5.365   3.850  1.2738  0.5075  1.8058
  191SAPI  H16Y22170   1.229   5.259   3.838  0.0463  0.8545 -1.4409
  191SAPI  C31722171   1.272   5.309   4.041 -0.1815  0.3721  0.0817
  191SAPI  H17X22172   1.172   5.323   4.087 -0.3539 -1.6313  0.4217
  191SAPI  H17Y22173   1.339   5.383   4.090  1.1774 -0.3701 -0.5951
  191SAPI  C31822174   1.334   5.172   4.077 -0.6884  0.6623 -0.3811
  191SAPI  H18X22175   1.370   5.152   4.180 -1.1157 -0.7729 -0.4996
  191SAPI  H18Y22176   1.419   5.139   4.013 -1.6487  0.2362 -1.4720
  191SAPI  H18Z22177   1.261   5.092   4.054  0.3285  0.1784 -2.1318
  192SAPI   C1222178   2.578   6.896   1.530  0.6538 -0.0053  0.4065
  192SAPI    H222179   2.675   6.843   1.518  1.9197  2.1005  0.8720
  192SAPI    O222180   2.607   7.034   1.568 -0.1809 -0.3184  0.2577
  192SAPI   HO222181   2.587   7.056   1.659  1.7859  0.1127  0.6456
  192SAPI   C1322182   2.507   6.894   1.392 -0.0518 -0.1314 -0.2751
  192SAPI    H322183   2.503   6.787   1.364 -1.6540 -0.0511 -0.4497
  192SAPI    O322184   2.596   6.946   1.302 -0.0332  0.4996  0.2783
  192SAPI   HO322185   2.649   7.014   1.343 -0.0984  0.0995  1.0419
  192SAPI   C1422186   2.367   6.960   1.390  0.0338  0.1253  0.5973
  192SAPI    H422187   2.386   7.065   1.421 -1.4120  0.8962 -0.9482
  192SAPI    O422188   2.304   6.958   1.261 -0.4471  0.2233  0.4640
  192SAPI   HO422189   2.289   6.871   1.223 -2.0065  0.5674  0.2293
  192SAPI   C1522190   2.278   6.911   1.501 -0.0420  0.0048 -0.2093
  192SAPI    H522191   2.243   6.811   1.468  1.0957 -0.3331 -0.4039
  192SAPI    O522192   2.162   6.997   1.513  0.6500 -0.1159 -0.3561
  192SAPI   HO522193   2.206   7.079   1.536  0.6663  0.6291 -2.7682
  192SAPI   C1622194   2.342   6.882   1.632  1.1265 -0.3998 -0.4732
  192SAPI    H622195   2.352   6.984   1.674 -1.3186 -0.2591 -0.1310
  192SAPI    O622196   2.254   6.802   1.716 -0.2280  0.3632 -0.2237
  192SAPI   HO622197   2.312   6.742   1.763  0.4622 -0.0151 -1.4900
  192SAPI   C1122198   2.483   6.826   1.632  0.3655 -0.0283 -0.6791
  192SAPI    H122199   2.474   6.720   1.599 -2.1627  0.4510 -1.6770
  192SAPI     P22200   2.666   6.738   1.796 -0.2775 -0.1929 -0.3777
  192SAPI   O1322201   2.782   6.828   1.776 -0.2309  0.1106 -0.5856
  192SAPI   O1422202   2.666   6.620   1.704  0.4439  0.4653 -0.1419
  192SAPI   O1222203   2.534   6.824   1.768 -0.3605 -0.1493 -0.0789
  192SAPI   O1122204   2.653   6.699   1.945  0.2500  0.1666 -0.0578
  192SAPI    C122205   2.520   6.676   2.003 -0.5490  0.2083 -0.7242
  192SAPI    HA22206   2.451   6.762   1.987  0.3283  1.5607  1.9902
  192SAPI    HB22207   2.475   6.581   1.967 -3.0547  1.3803 -0.8658
  192SAPI    C222208   2.535   6.665   2.156  0.2471 -0.0426  0.6057
  192SAPI    HS22209   2.437   6.658   2.207 -0.1400  0.9041  0.0117
  192SAPI   O2122210   2.604   6.770   2.231  0.2047 -0.4695 -0.0372
  192SAPI   C2122211   2.529   6.883   2.258  0.4838  1.5506 -0.3396
  192SAPI   O2222212   2.413   6.889   2.227  0.0179  0.0010  0.0926
  192SAPI   C2222213   2.606   6.988   2.336 -0.0638  0.3561 -0.3062
  192SAPI   H2R22214   2.701   6.936   2.361 -1.2070 -1.5159  0.3564
  192SAPI   H2S22215   2.624   7.063   2.256 -0.2487 -1.4443 -2.1304
  192SAPI    C322216   2.613   6.535   2.181 -0.7098 -0.1637  0.3131
  192SAPI    HX22217   2.688   6.529   2.100 -1.2230 -2.7957 -0.0755
  192SAPI    HY22218   2.552   6.444   2.163  1.6587 -2.1329  1.5918
  192SAPI   O3122219   2.674   6.524   2.313  0.2527 -0.7728  0.0232
  192SAPI   C3122220   2.582   6.509   2.410 -0.3207 -0.6408  0.2646
  192SAPI   O3222221   2.465   6.507   2.384  0.0446 -0.2872 -0.0378
  192SAPI   C3222222   2.651   6.511   2.546 -0.5170  0.5494  0.8816
  192SAPI   H2X22223   2.703   6.609   2.548  1.0169 -0.2211  1.0842
  192SAPI   H2Y22224   2.720   6.424   2.537  0.9838  1.8152 -0.4613
  192SAPI   C2322225   2.533   7.039   2.450  0.2191 -0.0719 -0.1776
  192SAPI   H3R22226   2.499   6.955   2.514  1.1733 -0.3912 -0.0813
  192SAPI   H3S22227   2.442   7.091   2.412 -0.9895 -2.2906 -0.4368
  192SAPI   C2422228   2.616   7.114   2.556  0.3433 -0.0418 -0.1204
  192SAPI   H4R22229   2.690   7.039   2.591  0.1515  0.1546  0.7197
  192SAPI   H4S22230   2.542   7.124   2.639  1.1243 -0.5924  0.6569
  192SAPI   C2522231   2.676   7.248   2.523  0.6779  0.0926  0.1610
  192SAPI   H5R22232   2.681   7.282   2.419  0.2817 -1.8624 -0.5517
  192SAPI   C2622233   2.713   7.335   2.614  0.7089 -0.8619  0.3268
  192SAPI   H6R22234   2.746   7.436   2.583 -0.8064 -0.2502  0.6146
  192SAPI   C2722235   2.727   7.322   2.765  0.7386 -0.3650  0.6624
  192SAPI   H7R22236   2.709   7.218   2.799  0.5144 -0.0082  1.6655
  192SAPI   H7S22237   2.644   7.383   2.809  0.5565  0.8533 -1.2494
  192SAPI   C2822238   2.861   7.364   2.816 -0.8799 -0.2177 -0.2136
  192SAPI   H8R22239   2.920   7.439   2.761  2.0922 -0.2707  2.5766
  192SAPI   C2922240   2.920   7.315   2.930 -0.0558 -0.1282 -0.4860
  192SAPI   H9R22241   3.016   7.358   2.961 -0.3816  0.4383 -0.2461
  192SAPI  C21022242   2.855   7.209   3.021 -0.8548 -0.2372 -0.7727
  192SAPI  H10R22243   2.859   7.109   2.974 -0.8326 -0.9130  0.6118
  192SAPI  H10S22244   2.746   7.230   3.031 -0.4325  1.2256  1.2701
  192SAPI  C21122245   2.912   7.197   3.156 -0.2963 -0.1317 -0.8599
  192SAPI  H11R22246   3.021   7.185   3.161 -0.3238 -1.2094 -2.2432
  192SAPI  C21222247   2.832   7.170   3.263  0.2814 -0.3521 -0.6947
  192SAPI  H12R22248   2.887   7.172   3.358 -1.4560  0.1371  0.3483
  192SAPI  C21322249   2.677   7.183   3.261  0.8576  0.1015  0.1214
  192SAPI  H13R22250   2.637   7.119   3.179 -0.4455  2.5705 -1.2684
  192SAPI  H13S22251   2.655   7.288   3.232 -1.3528  0.0152  1.2850
  192SAPI  C21422252   2.612   7.151   3.393  0.1940 -0.1977  0.9352
  192SAPI  H14R22253   2.567   7.051   3.406 -1.1502  0.2611  0.0019
  192SAPI  C21522254   2.599   7.240   3.492  0.2801 -0.5042 -0.7217
  192SAPI  H15R22255   2.544   7.203   3.580  0.6332 -0.8288 -0.6355
  192SAPI  C21622256   2.639   7.385   3.493  0.2347  0.5823 -0.0299
  192SAPI  H16R22257   2.579   7.456   3.554  1.7896  0.1951  2.0656
  192SAPI  H16S22258   2.643   7.425   3.390 -0.3723 -1.9128 -1.1072
  192SAPI  C21722259   2.788   7.416   3.545 -0.1335  0.1938  0.3690
  192SAPI  H17R22260   2.807   7.525   3.553 -1.7826  0.5769 -0.4339
  192SAPI  H17S22261   2.863   7.376   3.473  0.6186  1.0178  0.6829
  192SAPI  C21822262   2.825   7.354   3.680 -0.6571  0.1050 -0.3394
  192SAPI  H18R22263   2.821   7.243   3.677  0.8778 -0.0064  0.6899
  192SAPI  H18S22264   2.744   7.397   3.743 -1.6275 -0.0825 -1.4106
  192SAPI  C21922265   2.959   7.402   3.743  0.4438  0.2445  0.2980
  192SAPI  H19R22266   2.988   7.509   3.738  0.3824  0.2726  0.5164
  192SAPI  H19S22267   3.037   7.351   3.683  0.0256 -0.2435  0.1663
  192SAPI  C22022268   2.959   7.347   3.887  0.6582 -0.1642 -0.5263
  192SAPI  H20R22269   2.900   7.253   3.895  0.4029  0.0694  0.4690
  192SAPI  H20S22270   2.923   7.436   3.943  1.9658  1.1187 -1.6489
  192SAPI  H20T22271   3.061   7.327   3.927  0.6143  0.6123 -0.0007
  192SAPI   C3322272   2.557   6.479   2.667 -0.4982 -0.4759  0.3269
  192SAPI   H3X22273   2.491   6.392   2.645 -0.8814 -0.7913  2.4557
  192SAPI   H3Y22274   2.487   6.561   2.693 -1.1823 -1.7651  2.9339
  192SAPI   C3422275   2.633   6.447   2.800 -0.0036  0.4107  0.0043
  192SAPI   H4X22276   2.698   6.536   2.811 -0.5998  0.8761 -0.1687
  192SAPI   H4Y22277   2.699   6.361   2.778 -1.3534 -0.9387  1.0148
  192SAPI   C3522278   2.546   6.426   2.920  0.6699 -0.3893 -0.1656
  192SAPI   H5X22279   2.488   6.330   2.916  1.3695 -0.7992 -0.6365
  192SAPI   H5Y22280   2.473   6.509   2.928  0.2902 -0.7640  0.4086
  192SAPI   C3622281   2.634   6.419   3.041 -0.2554  0.8120 -0.0870
  192SAPI   H6X22282   2.687   6.517   3.043  1.8306 -0.2759  1.2897
  192SAPI   H6Y22283   2.716   6.345   3.032 -0.5638  0.5067 -0.4448
  192SAPI   C3722284   2.553   6.391   3.167  0.0884  0.2985  0.1208
  192SAPI   H7X22285   2.523   6.284   3.167 -0.6124  0.4439  2.3597
  192SAPI   H7Y22286   2.456   6.445   3.181 -0.7077 -1.0868  0.0603
  192SAPI   C3822287   2.637   6.388   3.297  0.7131  0.2679 -0.3877
  192SAPI   H8X22288   2.723   6.319   3.295  2.2261  2.0328  0.8267
  192SAPI   H8Y22289   2.564   6.359   3.375  0.8305  2.4753  0.6323
  192SAPI   C3922290   2.701   6.521   3.342  0.2108  0.1717 -0.1056
  192SAPI   H9X22291   2.633   6.609   3.343  2.0716  1.6847  1.3566
  192SAPI   H9Y22292   2.779   6.538   3.265 -0.0023  1.2869 -0.0987
  192SAPI  C31022293   2.759   6.499   3.485 -0.4086 -0.0680 -0.0563
  192SAPI  H10X22294   2.840   6.426   3.463  1.8919  2.1549  0.5899
  192SAPI  H10Y22295   2.684   6.462   3.558  0.3833 -2.6246 -0.4337
  192SAPI  C31122296   2.818   6.624   3.546 -0.0063 -0.5462  0.4256
  192SAPI  H11X22297   2.748   6.709   3.528 -0.4263 -0.3524  2.6880
  192SAPI  H11Y22298   2.918   6.649   3.505 -0.0356 -2.2283 -0.7994
  192SAPI  C31222299   2.838   6.620   3.698  0.6615  0.0681  0.2432
  192SAPI  H12X22300   2.742   6.605   3.751  1.2642 -0.4609  1.2052
  192SAPI  H12Y22301   2.888   6.712   3.732 -0.4489  0.7755  0.0279
  192SAPI  C31322302   2.930   6.504   3.740 -0.1217  0.4516 -0.5110
  192SAPI  H13X22303   2.890   6.402   3.721 -0.6470  0.6801 -0.6511
  192SAPI  H13Y22304   2.944   6.516   3.850  1.4975  0.6594 -0.7125
  192SAPI  C31422305   3.069   6.509   3.675 -0.1164  0.2496  0.3492
  192SAPI  H14X22306   3.085   6.617   3.692 -4.2307  1.1435 -0.5236
  192SAPI  H14Y22307   3.066   6.493   3.565  0.9093 -0.3956  0.3985
  192SAPI  C31522308   3.176   6.418   3.733  0.4056 -0.3343  0.8292
  192SAPI  H15X22309   3.159   6.312   3.703  1.7491 -0.0716 -0.9970
  192SAPI  H15Y22310   3.185   6.433   3.843  1.0626 -1.6961  0.9848
  192SAPI  C31622311   3.323   6.443   3.676 -0.3239  0.1273  0.2027
  192SAPI  H16X22312   3.363   6.540   3.714  1.4546 -0.4888 -0.0236
  192SAPI  H16Y22313   3.323   6.453   3.565 -0.7868 -2.5052 -0.0971
  192SAPI  C31722314   3.420   6.330   3.730  0.3896 -0.4340 -0.0067
  192SAPI  H17X22315   3.410   6.315   3.840 -0.7081  0.6334  0.0548
  192SAPI  H17Y22316   3.520   6.373   3.709 -0.2374  2.0969  1.7939
  192SAPI  C31822317   3.412   6.191   3.668  0.4586 -0.6180 -0.2095
  192SAPI  H18X22318   3.482   6.125   3.723 -1.2288 -2.3258 -0.0181
  192SAPI  H18Y22319   3.454   6.207   3.566  0.5093  0.9293  0.0202
  192SAPI  H18Z22320   3.308   6.155   3.659  0.0373  0.4945  0.0451
  193SOD    SOD22321   0.691   0.475   6.832 -0.0119  0.0211  0.1623
  194SOD    SOD22322   1.185   3.495   1.680 -0.1269  0.2754 -0.1375
  195SOD    SOD22323   0.474   5.446   6.431 -0.2779  0.1114  0.1693
  196SOD    SOD22324   4.262   5.564   7.206  0.5831  0.1502  0.0237
  197SOD    SOD22325   3.505   6.931   1.409  0.2458 -0.0383  0.5284
  198SOD    SOD22326   2.337   3.152   2.101  0.4154  0.1630 -0.5451
  199SOD    SOD22327   3.311   3.158   0.024  0.2926  0.1593 -0.0791
  200SOD    SOD22328   2.431   4.981   7.130 -0.1672 -0.5569  0.2730
  201SOD    SOD22329   2.855   1.660   0.588 -0.3124 -0.1794 -0.3452
  202SOD    SOD22330   1.169   1.964   1.783 -0.2913 -0.2247 -0.2961
  203SOD    SOD22331   5.026   0.050   1.223  0.1424  0.2331 -0.2088
  204SOD    SOD22332   0.975   5.231   1.224  0.2517  0.1132 -0.2609
  205SOD    SOD22333   1.611   4.998   6.256 -0.6264  0.0388 -0.3204
  206SOD    SOD22334   2.892   0.321   6.601  0.2779 -0.4301  0.1198
  207SOD    SOD22335   6.358   2.370   7.278 -0.0325 -0.1589  0.0634
  208SOD    SOD22336   6.171   6.602   6.072  0.1088  0.0063 -0.2690
  209SOD    SOD22337   0.759   0.618   7.921 -0.0144 -0.5864  0.1075
  210SOD    SOD22338   2.721   6.246   1.670 -0.5003  0.2913 -0.5719
  211SOD    SOD22339   3.830   3.685   7.384  0.0158 -0.2076 -0.0995
  212SOD    SOD22340   3.866   0.077   0.967  0.2799  0.3390  0.0240
  213SOD    SOD22341   0.336   1.258   1.585  0.8367 -0.0426  0.0736
  214SOD    SOD22342   6.253   0.861   7.807 -0.0384 -0.4082  0.4389
  215SOD    SOD22343   3.987   0.787   0.167 -0.3204  0.3693 -0.1848
  216SOD    SOD22344   5.016   0.814   8.087  0.0079 -0.3991 -0.2023
  217SOD    SOD22345   6.658   6.323   1.832  0.0777 -0.0237  0.2760
  218SOD    SOD22346   2.228   2.875   0.142 -0.6139 -0.4253 -0.0049
  219SOD    SOD22347   4.377   3.560   0.971  0.3220  0.1473  0.1392
  220SOD    SOD22348   0.078   4.908   7.740  0.3218  0.5252  0.3078
  221SOD    SOD22349   4.194   2.888   0.221  0.0511 -0.4472 -0.1386
  222SOD    SOD22350   2.352   6.132   6.712  0.0882 -0.1780  0.4783
  223SOD    SOD22351   0.748   1.886   6.165 -0.1998  0.4058 -0.2660
  224SOD    SOD22352   0.900   6.365   2.344 -0.3822 -0.2048 -0.4261
  225SOD    SOD22353   6.834   5.789   6.121 -0.3482 -0.1129  0.0853
  226SOD    SOD22354   0.830   5.053   6.220 -0.5151  0.2250  0.3422
  227SOD    SOD22355   1.024   1.937   0.952  0.2709  0.1506  0.2475
  228SOD    SOD22356   1.225   5.054   7.688 -0.3801  0.5338  0.0095
  229SOD    SOD22357   6.214   6.126   6.874 -0.3783 -0.3169 -0.0705
  230CLA    CLA22358   6.574   1.172   0.947  0.2791 -0.1693 -0.3250
  231CLA    CLA22359   1.433   5.841   6.478 -0.3165 -0.2107 -0.9135
  232CLA    CLA22360   6.829   1.684   7.061 -0.3072  0.1041 -0.1262
  233CLA    CLA22361   5.905   0.152   8.250  0.3718  0.2050 -0.2899
  234CLA    CLA22362   2.764   2.595   7.142  0.0303  0.0171 -0.0229
  235CLA    CLA22363   2.978   3.725   1.061  0.3238 -0.4980 -0.1002
  236CLA    CLA22364   2.988   1.064   0.990 -0.6385 -0.1631 -0.2306
  237CLA    CLA22365   3.904   4.852   7.216 -0.1453  0.4765 -0.1974
  238CLA    CLA22366   2.962   1.996   7.922  0.0930 -0.0107  0.0584
  239CLA    CLA22367   2.320   3.204   1.283 -0.0695 -0.4874 -0.2232
  240CLA    CLA22368   5.123   0.955   0.019  0.4563  0.3817 -0.0915
  241CLA    CLA22369   4.955   1.345   7.266  0.0146  0.0388 -0.0870
  242CLA    CLA22370   3.513   5.310   0.207 -0.3993 -0.2061 -0.1015
  243CLA    CLA22371   3.194   0.444   7.190 -0.1953 -0.1292 -0.2824
  244CLA    CLA22372   6.720   5.899   6.833  0.0245 -0.1227 -0.0721
  245CLA    CLA22373   3.525   6.256   0.277 -0.1453  0.3627 -0.1525
  246CLA    CLA22374   2.328   6.787   0.819 -0.4417  0.0795 -0.2338
  247TIP3   OH222375   0.451   5.157   0.437 -0.0056  0.4506 -0.0488
  247TIP3    H122376   0.513   5.091   0.404 -2.1808 -0.6570 -2.3557
  247TIP3    H222377   0.445   5.221   0.366  0.7830  2.2357  1.4573
  248TIP3   OH222378   4.358   4.481   1.770 -0.2591  0.4980  0.2977
  248TIP3    H122379   4.325   4.397   1.803  2.7988 -0.0891  2.2582
  248TIP3    H222380   4.417   4.457   1.698 -0.9375  1.2074 -0.5335
  249TIP3   OH222381   2.188   2.916   1.549 -0.1573  0.2023  0.2419
  249TIP3    H122382   2.260   2.939   1.608 -0.5682 -0.3012  0.9526
  249TIP3    H222383   2.112   2.907   1.606 -1.0832  1.9409 -0.6385
  250TIP3   OH222384   0.709   2.585   6.533 -0.2814 -0.7644 -0.3403
  250TIP3    H122385   0.761   2.533   6.594  1.0947  1.9359  0.9907
  250TIP3    H222386   0.633   2.613   6.584  0.4226  0.7785 -0.0864
  251TIP3   OH222387   3.181   1.366   0.086 -0.2709  0.5073 -0.2897
  251TIP3    H122388   3.221   1.334   0.005  1.6824 -2.3587  1.6200
  251TIP3    H222389   3.120   1.433   0.057  0.2359 -0.4350 -4.1315
  252TIP3   OH222390   1.728   6.782   7.723 -0.2734  0.0685 -0.2195
  252TIP3    H122391   1.816   6.821   7.721 -0.3331  0.1651 -1.3924
  252TIP3    H222392   1.716   6.746   7.636 -2.1482  1.7269 -0.7072
  253TIP3   OH222393   0.547   6.856   7.666 -0.0415  0.2943  0.7932
  253TIP3    H122394   0.557   6.887   7.756  1.8507  0.4248  0.5937
  253TIP3    H222395   0.637   6.847   7.635 -0.6548 -0.5099 -0.8333
  254TIP3   OH222396   6.453   4.247   7.747 -0.4595 -0.7015  0.6187
  254TIP3    H122397   6.451   4.151   7.747  0.9610 -0.7919  2.8304
  254TIP3    H222398   6.388   4.273   7.812 -3.1177  0.0735 -2.0936
  255TIP3   OH222399   0.506   2.141   6.573 -0.1445 -0.3797  0.2391
  255TIP3    H122400   0.593   2.179   6.586  0.4316 -1.8933  1.0843
  255TIP3    H222401   0.472   2.184   6.495  1.3597  0.2530 -0.0915
  256TIP3   OH222402   0.199   4.372   6.404 -0.1320 -0.1552  0.1082
  256TIP3    H122403   0.159   4.309   6.463 -0.5267 -0.2017 -0.2018
  256TIP3    H222404   0.267   4.323   6.359 -1.0217 -0.6186 -0.7784
  257TIP3   OH222405   0.782   5.616   7.571 -0.3948 -0.6702  0.0680
  257TIP3    H122406   0.758   5.706   7.595  0.7921 -0.4992  0.7141
  257TIP3    H222407   0.846   5.590   7.638 -1.9905 -2.6381  0.9072
  258TIP3   OH222408   1.214   3.947   6.159 -0.0987 -0.5641  0.7105
  258TIP3    H122409   1.168   3.900   6.228 -0.7298  0.1512  0.7929
  258TIP3    H222410   1.146   3.968   6.095 -0.0350  1.0446  1.1199
  259TIP3   OH222411   5.071   0.031   1.000 -0.5480  0.5181 -0.2081
  259TIP3    H122412   5.132   0.098   0.970 -0.1957 -0.2177 -1.1719
  259TIP3    H222413   5.070  -0.035   0.930 -0.6434 -0.6436  0.8408
  260TIP3   OH222414   3.823   2.004   0.735 -0.2727  0.4585 -0.1929
  260TIP3    H122415   3.830   1.930   0.795  0.8332 -1.2011 -2.2198
  260TIP3    H222416   3.868   2.075   0.780  0.9432 -0.8520  0.7749
  261TIP3   OH222417   6.473   2.237   6.143 -0.1077 -0.3735 -0.0345
  261TIP3    H122418   6.402   2.241   6.078  0.3167  0.8118 -0.4448
  261TIP3    H222419   6.500   2.328   6.156  0.0838 -0.6240  1.5357
  262TIP3   OH222420   3.549   0.506   6.034  0.3202  0.7479 -0.6570
  262TIP3    H122421   3.552   0.596   6.003  0.4753  1.2933  0.8853
  262TIP3    H222422   3.479   0.505   6.099  0.6828 -0.1280 -0.2630
  263TIP3   OH222423   1.219   6.679   6.563  0.2073  0.5773  0.5803
  263TIP3    H122424   1.256   6.661   6.477  0.4862  1.2217  0.5664
  263TIP3    H222425   1.229   6.596   6.611  2.6871  1.0163  0.9604
  264TIP3   OH222426   6.153   0.795   7.567  0.1974 -1.1780  0.3972
  264TIP3    H122427   6.074   0.753   7.535  0.4033 -0.8079 -0.6333
  264TIP3    H222428   6.163   0.873   7.512  0.5088 -0.4587  1.4424
  265TIP3   OH222429   5.474   1.583   8.069 -0.1097 -0.3913 -0.2027
  265TIP3    H122430   5.392   1.590   8.020  0.3544  0.6079 -0.8452
  265TIP3    H222431   5.504   1.494   8.051 -1.1087 -0.8224  0.1497
  266TIP3   OH222432   5.376   2.190   8.179  0.5077  0.3445  0.5175
  266TIP3    H122433   5.389   2.162   8.089  2.0208  1.5808  0.3056
  266TIP3    H222434   5.281   2.202   8.187  0.3655  0.4470 -0.9828
  267TIP3   OH222435   4.363   0.326   6.889 -0.3907 -0.0842 -0.7018
  267TIP3    H122436   4.416   0.282   6.823 -1.5073 -1.1052 -0.9549
  267TIP3    H222437   4.312   0.256   6.930 -0.2520  0.6223  0.7578
  268TIP3   OH222438   1.335   4.600   1.036  0.2431  0.1372 -0.2788
  268TIP3    H122439   1.307   4.563   0.952 -0.3882 -0.9234  0.3683
  268TIP3    H222440   1.357   4.523   1.089  0.4763  0.7814  0.5725
  269TIP3   OH222441   0.830   0.324   6.210 -0.6968  0.2565 -0.1024
  269TIP3    H122442   0.855   0.249   6.264 -0.8097  0.7640  0.6754
  269TIP3    H222443   0.858   0.301   6.122 -1.1042 -0.8727  0.0520
  270TIP3   OH222444   1.918   6.983   0.963  0.1944 -0.6801 -0.4989
  270TIP3    H122445   1.937   6.962   0.871 -0.1407  0.9929 -0.9844
  270TIP3    H222446   1.998   7.024   0.995 -0.6060  1.3423 -0.9251
  271TIP3   OH222447   5.354   1.915   6.292  0.1540 -0.0776  0.6230
  271TIP3    H122448   5.307   1.834   6.314 -0.2774  0.0904  0.3298
  271TIP3    H222449   5.303   1.953   6.220  0.2812  0.5242  0.8515
  272TIP3   OH222450   5.277   4.271   1.768  0.0186 -0.2234 -0.2757
  272TIP3    H122451   5.271   4.242   1.677 -0.7331  0.1197 -0.3371
  272TIP3    H222452   5.351   4.221   1.804  2.1916  1.6320 -1.8307
  273TIP3   OH222453   2.275   4.132   7.035  0.0486 -0.0257 -0.1043
  273TIP3    H122454   2.195   4.136   7.088 -0.1004  0.0925 -0.3342
  273TIP3    H222455   2.286   4.039   7.015  1.0336 -0.2919  1.5167
  274TIP3   OH222456   2.347   1.127   8.157  0.0222  0.4207 -0.3777
  274TIP3    H122457   2.389   1.078   8.227 -0.1505  1.0203  0.1541
  274TIP3    H222458   2.380   1.087   8.076  1.8338  1.0304  0.0007
  275TIP3   OH222459   4.313   1.724   0.094 -0.3713 -0.6237  0.2036
  275TIP3    H122460   4.247   1.789   0.073  0.1333 -0.8306 -2.2676
  275TIP3    H222461   4.337   1.685   0.010  0.9433 -2.4506  1.3432
  276TIP3   OH222462   6.983   6.706   1.004  0.8003 -0.5164 -0.0179
  276TIP3    H122463   7.016   6.626   1.046  4.7324 -0.2150 -2.0867
  276TIP3    H222464   7.016   6.777   1.059  0.3730 -0.2488 -0.1035
  277TIP3   OH222465   2.327   5.027   1.703 -0.3411 -0.1573  0.1819
  277TIP3    H122466   2.256   5.088   1.680 -0.9427 -1.2526 -0.9780
  277TIP3    H222467   2.381   5.023   1.624 -0.7797 -1.7455 -0.0627
  278TIP3   OH222468   2.305   1.151   1.491 -0.9059 -0.0820  0.0533
  278TIP3    H122469   2.395   1.122   1.478 -1.0752 -0.4633 -0.2925
  278TIP3    H222470   2.296   1.161   1.585 -0.4777  0.0409  0.0823
  279TIP3   OH222471   3.890   6.611   7.643  0.0578 -0.0912  0.1583
  279TIP3    H122472   3.842   6.694   7.648  1.2573  0.6734 -0.4455
  279TIP3    H222473   3.964   6.622   7.703 -1.4525 -1.9616  2.5115
  280TIP3   OH222474   4.711   4.539   1.073  0.4912 -0.7513  0.0786
  280TIP3    H122475   4.619   4.523   1.057  0.4267  0.6478 -1.1902
  280TIP3    H222476   4.757   4.472   1.023  0.1729 -1.1634  0.3400
  281TIP3   OH222477   1.299   5.321   1.400  0.4862  0.4611  0.4276
  281TIP3    H122478   1.215   5.285   1.427  1.3383 -2.4877 -0.5384
  281TIP3    H222479   1.360   5.297   1.470  0.7086  1.9797  0.7955
  282TIP3   OH222480   3.073   1.766   8.105  0.1774 -0.1675 -0.3519
  282TIP3    H122481   3.128   1.843   8.091 -0.3909  0.6497  1.5917
  282TIP3    H222482   2.987   1.792   8.072  1.1462 -2.2221 -5.5924
  283TIP3   OH222483   0.599   4.130   6.951 -0.4059  0.4196 -0.1142
  283TIP3    H122484   0.596   4.225   6.939 -1.3915  0.3092 -0.8889
  283TIP3    H222485   0.650   4.117   7.031 -2.4109  1.7482  1.4918
  284TIP3   OH222486   2.444   3.583   0.043 -0.4427  0.4733  0.0842
  284TIP3    H122487   2.430   3.606  -0.049  0.1785  0.0228 -0.1308
  284TIP3    H222488   2.444   3.667   0.089 -0.5774  0.7133 -0.3549
  285TIP3   OH222489   4.891   4.760   0.955  0.5863 -0.1564  0.0065
  285TIP3    H122490   4.811   4.710   0.972  0.7018 -0.6788 -0.9210
  285TIP3    H222491   4.911   4.802   1.039 -2.0664  2.0781 -0.3043
  286TIP3   OH222492   1.299   6.083   8.149 -0.3513 -0.0914  0.3222
  286TIP3    H122493   1.325   6.170   8.178  0.9547 -0.1298 -0.6079
  286TIP3    H222494   1.205   6.089   8.134 -0.4253  0.9051  1.0810
  287TIP3   OH222495   6.298   5.566   0.475 -0.3221 -0.0377 -0.2078
  287TIP3    H122496   6.380   5.518   0.459 -0.5426 -0.1648 -1.0236
  287TIP3    H222497   6.238   5.533   0.408 -0.0141  2.4788 -1.8795
  288TIP3   OH222498   3.621   4.159   6.430 -0.2859  0.1734 -0.0192
  288TIP3    H122499   3.646   4.178   6.340 -0.5156  1.2678  0.1369
  288TIP3    H222500   3.667   4.077   6.451  3.1259  1.9466  0.1731
  289TIP3   OH222501   4.810   0.839   6.099  0.3097  0.2893  0.1489
  289TIP3    H122502   4.790   0.772   6.034  1.6533  0.0625 -0.0519
  289TIP3    H222503   4.845   0.791   6.174  2.3298  0.7895 -0.4052
  290TIP3   OH222504   0.226   6.748   7.920  0.0184  0.1715 -0.0369
  290TIP3    H122505   0.260   6.714   8.003 -0.7340  2.4966  1.3215
  290TIP3    H222506   0.131   6.754   7.934  0.0146  1.8296 -0.5093
  291TIP3   OH222507   5.532   4.481   0.741  0.2390  0.6987  0.0753
  291TIP3    H122508   5.606   4.514   0.690  0.2834  1.6721  0.7275
  291TIP3    H222509   5.472   4.445   0.676  0.9506  0.5760 -0.5285
  292TIP3   OH222510   0.918   6.369   8.247 -0.0365  0.5510  0.2231
  292TIP3    H122511   0.892   6.414   8.327  1.4380  1.0217  0.4556
  292TIP3    H222512   0.963   6.436   8.195 -2.6175  0.8041 -1.9013
  293TIP3   OH222513   3.357   3.321   8.135  0.5783  0.1286  0.3099
  293TIP3    H122514   3.449   3.306   8.115 -0.0155 -2.2694 -0.9829
  293TIP3    H222515   3.311   3.297   8.055 -1.2118  1.0332  1.0166
  294TIP3   OH222516   6.352   6.481   7.344  0.5194 -0.0038 -0.1311
  294TIP3    H122517   6.353   6.577   7.335  0.0254  0.0922  0.6307
  294TIP3    H222518   6.359   6.467   7.439 -1.0315 -0.6582 -0.0722
  295TIP3   OH222519   4.257   4.143   7.838  0.4540  0.5116  0.1694
  295TIP3    H122520   4.318   4.215   7.822 -1.4283  2.3443  0.7120
  295TIP3    H222521   4.271   4.120   7.930  0.5492  0.7207  0.2078
  296TIP3   OH222522   6.586   3.561   1.049  0.1512  0.1405 -0.4115
  296TIP3    H122523   6.650   3.586   0.983  0.3504 -1.2229 -0.7606
  296TIP3    H222524   6.501   3.571   1.005  0.2958 -1.0448 -1.0074
  297TIP3   OH222525   3.607   6.392   7.893 -0.5732 -0.1831 -0.1494
  297TIP3    H122526   3.631   6.430   7.978  1.4191  0.3694 -0.8998
  297TIP3    H222527   3.537   6.330   7.914 -1.5812  1.4057  1.5867
  298TIP3   OH222528   6.194   2.609   1.404  0.3044  0.7889  0.5720
  298TIP3    H122529   6.159   2.683   1.455 -2.1696 -0.6498  1.1492
  298TIP3    H222530   6.175   2.532   1.458  1.8818 -0.3907 -0.4757
  299TIP3   OH222531   4.201   0.860   8.026  0.5635 -0.2189  0.8127
  299TIP3    H122532   4.240   0.947   8.022  2.0382 -0.8514  0.7930
  299TIP3    H222533   4.141   0.857   7.952  0.8318  0.6235  0.5519
  300TIP3   OH222534   5.739   4.896   0.576  0.5905 -0.1610  0.3257
  300TIP3    H122535   5.736   4.813   0.623 -1.4842 -0.8425 -0.9029
  300TIP3    H222536   5.715   4.962   0.641 -1.0831 -0.9438  0.5365
  301TIP3   OH222537   0.706   6.402   0.635  0.0877  0.0201  0.2341
  301TIP3    H122538   0.684   6.328   0.692 -0.6388  1.0507  1.3419
  301TIP3    H222539   0.801   6.402   0.632  0.1131 -1.8984 -1.1027
  302TIP3   OH222540   4.179   4.721   7.761  0.2574 -1.1314  0.3993
  302TIP3    H122541   4.092   4.683   7.771  0.1146 -0.9543 -0.1082
  302TIP3    H222542   4.163   4.814   7.743  0.5975 -0.8217  1.6003
  303TIP3   OH222543   3.825   0.517   6.966  0.1321 -0.7963 -0.1758
  303TIP3    H122544   3.891   0.459   7.004 -0.1157 -0.7204  0.3750
  303TIP3    H222545   3.871   0.598   6.947  0.4331 -1.0957 -0.7525
  304TIP3   OH222546   6.441   4.658   7.665  0.4577  0.0957  0.2153
  304TIP3    H122547   6.495   4.583   7.690  0.2019  0.3134  1.4510
  304TIP3    H222548   6.483   4.691   7.585  1.6713 -0.2243  0.6917
  305TIP3   OH222549   1.898   2.642   7.637  0.0515  0.6491  0.1705
  305TIP3    H122550   1.829   2.608   7.694  0.3097  0.5382  0.4218
  305TIP3    H222551   1.870   2.619   7.548 -0.5158  1.1062  0.2223
  306TIP3   OH222552   3.427   2.136   6.805 -0.5405 -0.3889 -0.8358
  306TIP3    H122553   3.481   2.175   6.736 -0.3740 -1.6173 -1.4293
  306TIP3    H222554   3.340   2.126   6.765 -0.7689  0.0170 -0.4511
  307TIP3   OH222555   6.779   3.431   1.216  0.8687  0.9102  0.0154
  307TIP3    H122556   6.722   3.471   1.150 -0.3818 -1.8891 -0.7199
  307TIP3    H222557   6.728   3.358   1.251  3.4315 -0.7749  0.4435
  308TIP3   OH222558   0.795   3.886   1.300  0.0103 -0.0670 -0.0383
  308TIP3    H122559   0.776   3.952   1.367  0.8096  0.0194  0.1163
  308TIP3    H222560   0.882   3.853   1.323  0.2756 -0.0768 -0.9915
  309TIP3   OH222561   6.902   1.354   7.047 -0.0510  0.1293  0.2056
  309TIP3    H122562   6.947   1.335   7.130 -0.0852  0.5945  0.3323
  309TIP3    H222563   6.861   1.439   7.061  0.5851  0.5765 -0.5442
  310TIP3   OH222564   5.779   6.708   8.169 -0.7060 -0.1925  0.2013
  310TIP3    H122565   5.783   6.798   8.200 -2.5337 -0.3137  0.9249
  310TIP3    H222566   5.870   6.680   8.162 -0.1538  1.0275  1.9727
  311TIP3   OH222567   5.835   1.758   8.213 -0.4228 -0.5064 -0.1323
  311TIP3    H122568   5.857   1.667   8.197  0.2184 -0.2334 -0.8811
  311TIP3    H222569   5.878   1.780   8.295 -0.1708 -0.7449 -0.2020
  312TIP3   OH222570   4.383   2.636   1.155 -0.0377  1.0477 -0.0863
  312TIP3    H122571   4.312   2.698   1.171 -0.6206  1.1051 -2.5702
  312TIP3    H222572   4.341   2.562   1.110  1.3469  0.8201 -1.0803
  313TIP3   OH222573   4.224   2.755   7.443  0.1806 -0.1780  0.2583
  313TIP3    H122574   4.182   2.793   7.366 -0.4478  0.0966  0.7248
  313TIP3    H222575   4.164   2.685   7.470  0.0145  0.2124  0.9247
  314TIP3   OH222576   1.756   0.971   6.666 -0.0415  0.4619 -0.3004
  314TIP3    H122577   1.829   0.916   6.637  1.2419  2.0005 -0.1048
  314TIP3    H222578   1.797   1.038   6.721 -1.6395  1.2521 -0.0246
  315TIP3   OH222579   0.629   0.902   8.080 -0.4529  0.0470  0.4515
  315TIP3    H122580   0.659   0.937   7.997 -0.4687 -0.0730  0.3945
  315TIP3    H222581   0.645   0.808   8.074  0.7360  0.1824  1.0803
  316TIP3   OH222582   6.769   5.006   7.496  0.0684  0.1893 -0.1006
  316TIP3    H122583   6.738   5.086   7.454  1.0340  0.9094  0.5213
  316TIP3    H222584   6.700   4.983   7.557  0.0843  0.9612  0.2257
  317TIP3   OH222585   1.712   6.860   7.428  0.4695  0.4407 -0.1882
  317TIP3    H122586   1.736   6.813   7.349  0.6025 -0.1793  0.2085
  317TIP3    H222587   1.794   6.901   7.458  0.8054 -0.6663  0.4982
  318TIP3   OH222588   3.939   1.102   0.812 -0.8399 -0.3998  0.3415
  318TIP3    H122589   3.899   1.051   0.741  0.9097 -0.9941 -0.2613
  318TIP3    H222590   4.008   1.045   0.846  1.8565  1.8365 -0.9999
  319TIP3   OH222591   7.013   3.377   0.901  0.3536 -0.0215 -0.4693
  319TIP3    H122592   7.036   3.351   0.811 -0.0102 -1.1343 -0.2644
  319TIP3    H222593   6.949   3.311   0.929  1.4626 -0.4978  1.0724
  320TIP3   OH222594   4.446   6.794   1.361 -0.3933 -0.5956  0.1299
  320TIP3    H122595   4.357   6.758   1.354 -2.1498  3.1432  0.8936
  320TIP3    H222596   4.448   6.864   1.296  0.9486  1.2519  2.0395
  321TIP3   OH222597   6.779   6.122   2.301 -0.3367  0.1942 -0.3461
  321TIP3    H122598   6.693   6.084   2.321 -0.6502  0.8387 -0.4309
  321TIP3    H222599   6.836   6.046   2.289 -1.2055 -0.3000 -1.6443
  322TIP3   OH222600   3.645   4.547   0.169  0.2643 -0.4611 -0.0600
  322TIP3    H122601   3.567   4.511   0.212 -1.3270  0.6220 -1.9034
  322TIP3    H222602   3.630   4.641   0.168  0.9837 -0.3388 -1.6129
  323TIP3   OH222603   6.129   5.832   1.924  0.2369  0.2338 -0.9161
  323TIP3    H122604   6.190   5.887   1.973  0.6497 -0.0660 -1.0904
  323TIP3    H222605   6.049   5.833   1.977  0.5076  0.3388 -0.5039
  324TIP3   OH222606   6.566   5.448   0.675 -0.2576  0.0527 -1.0187
  324TIP3    H122607   6.547   5.537   0.704  1.1414  0.0250  0.1548
  324TIP3    H222608   6.603   5.459   0.587  0.6760  0.7333 -0.5607
  325TIP3   OH222609   3.391   5.989   6.954  0.1793  0.1604  0.5905
  325TIP3    H122610   3.465   5.984   6.894  1.0259 -0.8216  1.6737
  325TIP3    H222611   3.407   5.920   7.018 -2.1728 -0.7375  0.3098
  326TIP3   OH222612   3.977   6.325   0.271 -0.3791 -0.7125  0.5566
  326TIP3    H122613   4.045   6.379   0.231 -2.0085  2.1935  1.4333
  326TIP3    H222614   3.952   6.264   0.201 -0.0255  1.2078 -1.3560
  327TIP3   OH222615   6.169   5.732   1.263  0.0882  0.1954  0.1546
  327TIP3    H122616   6.213   5.763   1.342  0.2373  1.6184 -0.4618
  327TIP3    H222617   6.197   5.641   1.254  0.3368  0.1180  1.5459
  328TIP3   OH222618   2.687   4.535   2.154 -0.3872 -0.3046  0.6773
  328TIP3    H122619   2.754   4.598   2.128  0.0907 -0.3882  1.6652
  328TIP3    H222620   2.721   4.450   2.126 -0.2078 -0.3188  0.9426
  329TIP3   OH222621   6.833   2.319   1.232 -0.2966  0.2426  0.8853
  329TIP3    H122622   6.778   2.373   1.289  1.6022  0.0189  3.0969
  329TIP3    H222623   6.913   2.305   1.283  1.1400 -0.8175 -1.4970
  330TIP3   OH222624   6.702   2.263   0.423 -0.6012 -0.3242  0.1087
  330TIP3    H122625   6.684   2.169   0.433 -0.7838 -0.2970  0.0389
  330TIP3    H222626   6.681   2.301   0.508 -0.5889 -0.3370  0.1174
  331TIP3   OH222627   2.185   2.536   7.932  0.3194  0.2636 -0.0543
  331TIP3    H122628   2.249   2.563   7.867  0.6452 -0.3663 -0.0003
  331TIP3    H222629   2.164   2.616   7.980  1.4651  0.3836  0.2763
  332TIP3   OH222630   3.984   2.234   7.328 -0.0356  0.2077  0.0149
  332TIP3    H122631   3.907   2.290   7.322  1.0679  1.7921 -0.1269
  332TIP3    H222632   3.992   2.213   7.421 -0.7576 -0.1697 -0.0035
  333TIP3   OH222633   5.889   5.600   1.186  0.1293  0.7759 -0.0359
  333TIP3    H122634   5.953   5.671   1.191  1.5140 -0.4138 -0.1728
  333TIP3    H222635   5.897   5.555   1.270 -0.3334  0.4507 -0.1612
  334TIP3   OH222636   3.496   4.366   1.966 -0.0323 -0.2155 -0.2232
  334TIP3    H122637   3.450   4.348   2.048  1.4906  0.4754  0.8534
  334TIP3    H222638   3.572   4.418   1.993  0.8905 -0.5632 -2.0038
  335TIP3   OH222639   6.410   3.040   7.751  0.2658  0.2138 -0.4012
  335TIP3    H122640   6.350   3.103   7.791 -0.6276  0.1557 -1.5694
  335TIP3    H222641   6.402   2.961   7.805  0.6381  0.7701  0.4826
  336TIP3   OH222642   4.328   4.246   0.927  0.0084 -0.5814  0.1550
  336TIP3    H122643   4.299   4.184   0.993 -0.7753  0.1739  0.5415
  336TIP3    H222644   4.392   4.198   0.875 -2.5892 -2.7192 -1.3835
  337TIP3   OH222645   5.249   1.981   1.277 -0.0899 -0.1369  0.0157
  337TIP3    H122646   5.279   2.057   1.227 -0.7157 -0.0053 -0.1648
  337TIP3    H222647   5.180   2.015   1.334 -0.6904 -0.6423 -0.3903
  338TIP3   OH222648   2.857   5.528   1.030  0.5232 -0.5166  0.2815
  338TIP3    H122649   2.909   5.471   1.087 -0.6095  0.1856  2.1083
  338TIP3    H222650   2.905   5.611   1.029 -0.2955  0.0047  1.6424
  339TIP3   OH222651   0.628   2.202   0.644  0.1282 -0.2081 -0.4656
  339TIP3    H122652   0.660   2.185   0.733  0.0063 -1.3624 -0.6291
  339TIP3    H222653   0.612   2.296   0.642  0.2158 -0.1544  0.7061
  340TIP3   OH222654   5.791   4.955   6.598  0.2178  0.4205 -0.6738
  340TIP3    H122655   5.872   5.006   6.590  0.4092  0.3538  0.6507
  340TIP3    H222656   5.818   4.874   6.641 -0.4397  0.0840 -0.8788
  341TIP3   OH222657   0.584   6.909   0.271 -0.2008  0.1003 -0.2175
  341TIP3    H122658   0.530   6.878   0.343  0.9081  0.0690  0.6309
  341TIP3    H222659   0.644   6.836   0.253  1.5668  1.2024  0.9235
  342TIP3   OH222660   4.629   0.489   7.171  0.3109 -0.0935 -0.3443
  342TIP3    H122661   4.693   0.530   7.114  2.3604  0.2731  2.0365
  342TIP3    H222662   4.546   0.532   7.150  0.7938 -0.4927 -3.4256
  343TIP3   OH222663   6.184   5.707   0.883 -0.1183  0.0639 -0.0216
  343TIP3    H122664   6.176   5.794   0.843  0.5505 -0.2311 -0.8210
  343TIP3    H222665   6.172   5.723   0.977 -4.4796  0.4118 -0.4290
  344TIP3   OH222666   6.027   0.515   2.255  0.2550 -0.4018 -0.2850
  344TIP3    H122667   6.117   0.516   2.223  0.8799  0.9856  1.3680
  344TIP3    H222668   6.036   0.510   2.350 -1.4317 -0.3504 -0.0930
  345TIP3   OH222669   5.280   1.710   7.734 -0.0433  0.0244  0.2608
  345TIP3    H122670   5.192   1.733   7.703 -0.1795  0.9355  1.2910
  345TIP3    H222671   5.278   1.615   7.744 -0.5820 -0.0804 -0.6832
  346TIP3   OH222672   4.725   3.349   6.430  0.6561 -0.6401 -0.8653
  346TIP3    H122673   4.631   3.333   6.440  0.6923 -0.2297  0.2943
  346TIP3    H222674   4.734   3.444   6.440  1.2441 -0.7305 -0.4998
  347TIP3   OH222675   1.931   2.887   1.388  0.5095 -0.1479  0.2704
  347TIP3    H122676   2.023   2.865   1.374  0.6909  0.0086  1.1738
  347TIP3    H222677   1.925   2.907   1.481 -0.4698 -0.2882  0.2457
  348TIP3   OH222678   0.287   4.575   6.708  0.5374 -0.3013  0.1126
  348TIP3    H122679   0.209   4.625   6.685  1.6504  1.2933 -0.3758
  348TIP3    H222680   0.254   4.490   6.737 -1.4401  0.7776  1.1793
  349TIP3   OH222681   1.405   0.049   7.621 -0.4845  0.0798 -0.4201
  349TIP3    H122682   1.439   0.005   7.543 -2.2638 -1.7192 -0.2888
  349TIP3    H222683   1.311   0.030   7.619 -0.7043  0.7190  1.7131
  350TIP3   OH222684   0.909   1.532   7.974 -0.8274 -0.1959 -0.3750
  350TIP3    H122685   0.991   1.574   7.998 -2.1117  1.3623  1.6221
  350TIP3    H222686   0.904   1.541   7.879  0.9420  0.3135 -0.4493
  351TIP3   OH222687   2.561   0.992   1.716  0.0968 -0.3506  0.6137
  351TIP3    H122688   2.605   0.909   1.729  0.7327  0.1591  1.9535
  351TIP3    H222689   2.589   1.046   1.791 -1.4071  0.5813  0.5533
  352TIP3   OH222690   7.049   4.260   0.188 -0.4722 -0.1523  0.1087
  352TIP3    H122691   7.046   4.288   0.279  2.0289  0.6932  0.0023
  352TIP3    H222692   7.124   4.307   0.150 -2.1869  0.5105 -2.7429
  353TIP3   OH222693   0.651   3.057   7.177 -0.0754  0.2952  0.1663
  353TIP3    H122694   0.726   3.114   7.196  0.5824 -0.6240  0.4255
  353TIP3    H222695   0.602   3.054   7.259 -0.1243  0.5064  0.1452
  354TIP3   OH222696   6.271   1.407   7.690  0.4472  0.4947 -0.0929
  354TIP3    H122697   6.213   1.381   7.619  0.0757  1.4849 -0.1649
  354TIP3    H222698   6.239   1.493   7.717 -1.5313 -1.1237  3.4774
  355TIP3   OH222699   2.125   2.521   7.303  0.3173  0.0134  0.1820
  355TIP3    H122700   2.118   2.425   7.300 -0.2338  0.0672 -1.4270
  355TIP3    H222701   2.147   2.546   7.213  1.6292  1.3381  0.8145
  356TIP3   OH222702   2.526   1.727   2.254  0.3952  0.2444  0.1446
  356TIP3    H122703   2.439   1.703   2.285 -1.7059  1.1229 -4.2891
  356TIP3    H222704   2.529   1.822   2.262  0.3862  0.3398 -0.8679
  357TIP3   OH222705   3.745   2.507   1.885  0.1991 -0.6848  0.2023
  357TIP3    H122706   3.703   2.440   1.832 -0.1732 -0.8777  0.7386
  357TIP3    H222707   3.826   2.466   1.916  1.1455 -0.0991 -1.3575
  358TIP3   OH222708   3.355   1.887   7.612  0.3746 -0.2625 -0.1018
  358TIP3    H122709   3.308   1.865   7.692 -0.4625  0.5242 -0.3562
  358TIP3    H222710   3.445   1.859   7.627  0.0883 -0.6632  0.8773
  359TIP3   OH222711   2.840   5.291   7.362  0.1764  0.6145  0.4499
  359TIP3    H122712   2.780   5.366   7.357  0.1504  0.5377 -0.8333
  359TIP3    H222713   2.927   5.330   7.367  0.1214  0.7377  0.4419
  360TIP3   OH222714   2.326   1.763   6.872  0.4499  0.1976 -0.1298
  360TIP3    H122715   2.414   1.726   6.864 -0.3405 -2.0583  0.9239
  360TIP3    H222716   2.306   1.758   6.965 -0.6220  1.1222 -0.2935
  361TIP3   OH222717   3.031   0.807   7.265 -0.0902 -0.2811 -0.4523
  361TIP3    H122718   3.106   0.771   7.217 -1.3980 -1.9821 -1.3448
  361TIP3    H222719   2.955   0.782   7.212 -1.3731  0.5226  0.9379
  362TIP3   OH222720   0.907   0.972   2.206 -0.3599 -0.1521 -0.3378
  362TIP3    H122721   0.868   1.013   2.284 -2.0210 -1.1003 -0.6301
  362TIP3    H222722   0.948   0.892   2.239  1.1030  0.6544 -0.0929
  363TIP3   OH222723   2.903   5.036   7.036  0.5111 -0.3369 -0.1002
  363TIP3    H122724   2.990   5.058   7.002  0.2468 -0.1672 -0.6774
  363TIP3    H222725   2.847   5.108   7.007  0.0341 -0.7945 -0.3305
  364TIP3   OH222726   2.342   2.216   0.535  0.0122 -0.2235  0.4168
  364TIP3    H122727   2.345   2.243   0.627 -0.2578 -1.4287  0.7914
  364TIP3    H222728   2.315   2.124   0.538  2.4030 -1.0266 -0.7248
  365TIP3   OH222729   3.753   0.258   0.593  0.0949 -1.2363 -0.3071
  365TIP3    H122730   3.725   0.195   0.659  0.6424 -0.0426  1.1280
  365TIP3    H222731   3.814   0.209   0.537 -0.9492 -2.4667 -0.4129
  366TIP3   OH222732   3.294   4.576   0.506  0.2506 -0.4058 -0.2869
  366TIP3    H122733   3.273   4.509   0.571  2.3388  1.1780  2.2842
  366TIP3    H222734   3.390   4.571   0.497  0.5981  2.5230  0.5817
  367TIP3   OH222735   1.332   2.888   1.226 -0.2112 -0.1927  0.1223
  367TIP3    H122736   1.310   2.974   1.261 -2.6077 -1.0587  0.9424
  367TIP3    H222737   1.354   2.836   1.303 -0.3378 -0.7272 -0.1944
  368TIP3   OH222738   6.884   3.775   7.794 -0.1449  0.1748 -0.1965
  368TIP3    H122739   6.793   3.766   7.825  0.2917  2.1757  1.9554
  368TIP3    H222740   6.879   3.841   7.725 -0.2552  0.8705  0.4633
  369TIP3   OH222741   4.664   5.613   7.068 -0.0490 -0.0632 -0.2172
  369TIP3    H122742   4.723   5.544   7.038 -0.8303 -1.1055  0.5492
  369TIP3    H222743   4.693   5.632   7.157 -0.6196 -0.3366  0.0396
  370TIP3   OH222744   2.261   5.617   6.898 -0.5874 -0.4054 -0.4776
  370TIP3    H122745   2.171   5.646   6.915 -0.7539 -1.3533  0.3372
  370TIP3    H222746   2.285   5.662   6.817 -0.4419  2.8750  1.1970
  371TIP3   OH222747   5.970   1.999   1.161 -0.3136 -0.0578  0.1162
  371TIP3    H122748   6.059   2.020   1.190 -1.2115  1.6716  1.8590
  371TIP3    H222749   5.942   2.075   1.110 -0.4411 -1.0721 -1.3966
  372TIP3   OH222750   1.138   2.900   1.713  0.0398  0.2614 -0.0092
  372TIP3    H122751   1.077   2.852   1.658  0.2109 -0.4893  0.4446
  372TIP3    H222752   1.116   2.873   1.802  0.0075  1.1788  0.2748
  373TIP3   OH222753   1.671   2.189   6.302  0.0122 -0.0473 -0.4868
  373TIP3    H122754   1.604   2.205   6.368  0.6599 -0.5438  0.3111
  373TIP3    H222755   1.729   2.265   6.308  0.5714 -0.5077  0.1629
  374TIP3   OH222756   0.417   3.803   7.292 -0.5357  0.3382  0.1392
  374TIP3    H122757   0.418   3.777   7.200  0.9718 -0.9111  0.4666
  374TIP3    H222758   0.348   3.869   7.297 -0.7835  0.3019 -1.8388
  375TIP3   OH222759   0.000   3.716   1.325 -0.1415 -0.3790  0.3628
  375TIP3    H122760   0.008   3.678   1.237 -0.8727  1.7551 -0.7010
  375TIP3    H222761  -0.081   3.679   1.360  0.5522 -1.8475  0.5058
  376TIP3   OH222762   0.084   4.933   0.045  0.3971 -0.1325 -0.7080
  376TIP3    H122763   0.121   4.913   0.131  0.2545 -0.6160 -0.7590
  376TIP3    H222764   0.017   4.866   0.031 -0.0674  0.3624 -0.8915
  377TIP3   OH222765   3.913   6.519   7.976 -0.0578  0.3949 -0.2390
  377TIP3    H122766   3.868   6.460   8.037 -0.6620 -0.7126 -1.7028
  377TIP3    H222767   3.867   6.602   7.986 -1.7242 -0.4076 -0.8663
  378TIP3   OH222768   0.783   3.931   1.018  0.2975 -0.0836  0.3205
  378TIP3    H122769   0.762   3.885   1.099  5.1778 -2.0201  0.8460
  378TIP3    H222770   0.766   4.023   1.038 -0.8497 -0.7295  2.6824
  379TIP3   OH222771   6.001   4.246   7.295 -0.0911 -0.1400 -0.3776
  379TIP3    H122772   6.066   4.183   7.327 -1.5129 -1.1288  0.7473
  379TIP3    H222773   5.917   4.208   7.321 -1.0708  1.6488 -0.7626
  380TIP3   OH222774   2.510   2.593   0.117  0.0684  0.3735 -0.6061
  380TIP3    H122775   2.425   2.634   0.102  1.2566  2.5261 -1.9306
  380TIP3    H222776   2.521   2.593   0.212 -0.7471  1.5475 -0.4899
  381TIP3   OH222777   1.163   6.135   6.272 -0.2850 -0.7214 -0.0933
  381TIP3    H122778   1.116   6.184   6.205  1.4719  0.6146 -0.4007
  381TIP3    H222779   1.094   6.087   6.319 -2.5018  3.7170  1.7356
  382TIP3   OH222780   3.008   5.088   0.170  0.3451  0.3125  0.0720
  382TIP3    H122781   3.065   5.156   0.205 -0.1755 -0.0782  1.7818
  382TIP3    H222782   3.065   5.012   0.157  0.3578  0.1045  1.2215
  383TIP3   OH222783   6.602   4.840   6.682 -0.0918 -0.1380  0.1068
  383TIP3    H122784   6.510   4.819   6.666  0.4099 -1.9231 -0.7616
  383TIP3    H222785   6.642   4.755   6.704  1.2207  0.7075  1.1153
  384TIP3   OH222786   2.833   2.257   7.797  0.3609  0.0541  0.2882
  384TIP3    H122787   2.847   2.168   7.828 -0.1101  0.2329  1.0461
  384TIP3    H222788   2.826   2.309   7.877 -0.2926  0.6239 -0.1290
  385TIP3   OH222789   0.784   0.762   0.537 -0.4122  0.0425  0.3168
  385TIP3    H122790   0.761   0.804   0.454  2.6391 -1.6387 -1.6035
  385TIP3    H222791   0.778   0.668   0.519  1.1675 -0.3680  1.6845
  386TIP3   OH222792   5.380   2.390   0.270 -0.1930 -0.2539 -0.5730
  386TIP3    H122793   5.404   2.476   0.236  0.9058 -0.2934  0.0623
  386TIP3    H222794   5.289   2.378   0.242 -0.1565  0.8305 -1.2180
  387TIP3   OH222795   3.246   2.976   6.944  0.5849  0.6374  0.0056
  387TIP3    H122796   3.324   2.948   6.896  0.6395  1.6014 -0.4894
  387TIP3    H222797   3.222   2.900   6.996  1.5295  0.1368 -0.2588
  388TIP3   OH222798   3.230   6.620   7.039  0.4975 -0.2333 -0.2654
  388TIP3    H122799   3.238   6.528   7.065  0.1584  0.1665  1.3712
  388TIP3    H222800   3.306   6.636   6.983  0.8950 -1.3468 -0.0675
  389TIP3   OH222801   5.558   0.628   1.145  0.8367 -0.2321 -0.3951
  389TIP3    H122802   5.588   0.683   1.217  0.1675 -0.2048 -0.1262
  389TIP3    H222803   5.601   0.543   1.159 -0.6233 -0.7730  1.0490
  390TIP3   OH222804   3.134   3.735   7.951  0.1451  0.5719  0.1604
  390TIP3    H122805   3.102   3.657   7.906 -0.0541  0.3962  0.6100
  390TIP3    H222806   3.197   3.774   7.889  1.4315 -0.7883  0.5714
  391TIP3   OH222807   5.336   6.028   6.732 -0.2188  0.3828  0.2663
  391TIP3    H122808   5.279   6.101   6.707 -1.7608 -1.2242 -1.3541
  391TIP3    H222809   5.328   6.023   6.827 -0.3998  2.0466  0.3724
  392TIP3   OH222810   1.342   0.061   0.076 -0.2092  0.2007  0.1817
  392TIP3    H122811   1.247   0.073   0.079 -0.4929 -1.0354 -1.5835
  392TIP3    H222812   1.356   0.004   0.000  1.8863 -0.2968  0.8691
  393TIP3   OH222813   1.326   0.840   8.226  0.0683  0.3838  0.1468
  393TIP3    H122814   1.396   0.861   8.165 -1.4096 -0.8739 -2.0986
  393TIP3    H222815   1.300   0.925   8.262  1.0790  1.1480 -0.8585
  394TIP3   OH222816   3.169   5.639   0.173 -0.2883 -0.5249  0.2249
  394TIP3    H122817   3.123   5.602   0.248  0.3473  0.7361  1.2782
  394TIP3    H222818   3.106   5.699   0.133 -0.4652 -0.8377  0.0327
  395TIP3   OH222819   0.394   2.519   2.196 -0.0667 -0.1872 -0.0099
  395TIP3    H122820   0.345   2.441   2.168  1.4534 -0.2173 -2.9956
  395TIP3    H222821   0.485   2.490   2.200  0.1091  0.4784  3.0168
  396TIP3   OH222822   3.197   5.282   0.231 -0.7694 -0.1501 -0.1542
  396TIP3    H122823   3.178   5.348   0.298  0.1850  1.5776 -1.4717
  396TIP3    H222824   3.293   5.286   0.221 -0.7364 -1.4919 -0.5337
  397TIP3   OH222825   1.981   1.058   6.001  0.9783 -0.0924 -0.0957
  397TIP3    H122826   1.905   1.112   6.023  1.5188  1.1626 -1.2005
  397TIP3    H222827   2.049   1.086   6.062  1.8827  2.0151 -1.9254
  398TIP3   OH222828   0.503   0.214   0.077  0.5706 -0.8166 -0.1736
  398TIP3    H122829   0.468   0.206   0.166  0.0582 -0.5393 -0.3475
  398TIP3    H222830   0.498   0.125   0.042  0.1475 -0.8045 -0.1523
  399TIP3   OH222831   1.664   3.859   6.836  1.0543  0.8644 -0.3365
  399TIP3    H122832   1.615   3.909   6.770 -0.6351 -0.5871 -0.2764
  399TIP3    H222833   1.736   3.916   6.861  1.0107  1.9830 -2.5126
  400TIP3   OH222834   6.152   6.473   7.736  0.0860  0.8088  0.3338
  400TIP3    H122835   6.229   6.453   7.683 -0.2165  0.0019  0.2013
  400TIP3    H222836   6.104   6.391   7.742  0.0595  0.8968  1.7746
  401TIP3   OH222837   5.194   4.967   8.188  0.4784 -0.0100  0.9433
  401TIP3    H122838   5.139   4.988   8.264 -0.9200 -0.6197  0.1335
  401TIP3    H222839   5.223   4.877   8.203 -1.9492 -1.1108 -0.4160
  402TIP3   OH222840   3.473   5.863   0.035  0.2568 -0.0049  0.5211
  402TIP3    H122841   3.547   5.873  -0.024 -0.6370 -1.9315 -1.0280
  402TIP3    H222842   3.492   5.784   0.086 -0.9358 -0.8520 -0.2963
  403TIP3   OH222843   4.441   3.834   7.721 -0.1618 -0.1008 -0.5097
  403TIP3    H122844   4.491   3.870   7.794 -1.2548  0.7224 -0.1514
  403TIP3    H222845   4.445   3.901   7.653  0.6294 -0.7511 -1.1328
  404TIP3   OH222846   5.013   5.903   8.282  1.0209 -0.5809  0.5969
  404TIP3    H122847   5.102   5.878   8.308  0.7913 -1.1176  0.8724
  404TIP3    H222848   4.984   5.961   8.352 -0.2381 -3.3611  2.5505
  405TIP3   OH222849   3.433   1.796   0.909 -0.0757  0.7090  0.6384
  405TIP3    H122850   3.357   1.810   0.966 -0.9322 -0.1851 -0.2456
  405TIP3    H222851   3.470   1.713   0.938 -1.7611 -0.8550 -1.3649
  406TIP3   OH222852   1.521   1.477   7.039 -0.2230 -0.0713 -0.2473
  406TIP3    H122853   1.595   1.491   6.979 -1.6314  1.0630 -1.8069
  406TIP3    H222854   1.550   1.515   7.122  1.6766 -1.4478 -0.2213
  407TIP3   OH222855   3.308   3.897   0.456  0.7778  0.1275  0.4609
  407TIP3    H122856   3.268   3.891   0.543 -0.8140  0.4798 -0.2102
  407TIP3    H222857   3.245   3.947   0.404  0.7706 -1.7096 -1.4180
  408TIP3   OH222858   5.876   1.051   1.991  0.4747 -0.0638  0.2488
  408TIP3    H122859   5.968   1.065   2.012  0.2888  1.5738  0.0996
  408TIP3    H222860   5.832   1.050   2.076  0.7098 -1.6939  0.3746
  409TIP3   OH222861   4.451   2.589   6.884 -0.1675 -0.1910 -0.0131
  409TIP3    H122862   4.443   2.591   6.789 -1.3872 -0.2928  0.0701
  409TIP3    H222863   4.526   2.645   6.903  0.9949 -1.3012 -1.1023
  410TIP3   OH222864   2.961   5.843   0.305  0.3458 -0.1056 -0.2904
  410TIP3    H122865   2.987   5.756   0.334  1.5094  0.6045  0.9086
  410TIP3    H222866   3.026   5.902   0.343 -1.5262  1.5044  0.5866
  411TIP3   OH222867   1.660   7.035   1.037 -0.0133 -0.1124 -0.3518
  411TIP3    H122868   1.595   7.058   0.970 -1.3368  0.4031  1.0449
  411TIP3    H222869   1.744   7.039   0.992 -0.9990 -2.1829 -2.6096
  412TIP3   OH222870   3.511   4.566   7.083  0.1211  0.1273 -0.3722
  412TIP3    H122871   3.490   4.623   7.009 -1.0156  0.0702 -0.1074
  412TIP3    H222872   3.472   4.482   7.060 -3.0519  0.8878  1.6064
  413TIP3   OH222873   6.301   2.595   1.736 -0.0717 -0.1706  0.3032
  413TIP3    H122874   6.245   2.668   1.711  0.2078 -0.8792 -2.7630
  413TIP3    H222875   6.241   2.521   1.747  0.0237 -0.5503 -1.4052
  414TIP3   OH222876   1.497   6.404   1.050  0.1278  0.0067  0.4308
  414TIP3    H122877   1.585   6.437   1.065 -0.5784  1.4216  1.6090
  414TIP3    H222878   1.455   6.406   1.136 -1.8662  1.8687 -0.4963
  415TIP3   OH222879   5.449   1.681   6.052 -0.1684  0.5520 -0.0779
  415TIP3    H122880   5.462   1.773   6.030  0.7676  0.6453  0.7629
  415TIP3    H222881   5.535   1.641   6.036 -0.9354 -0.4978 -1.8341
  416TIP3   OH222882   2.796   3.423   7.667 -0.3799 -0.1085  0.4020
  416TIP3    H122883   2.879   3.407   7.621 -1.2667 -0.9506 -0.9736
  416TIP3    H222884   2.822   3.468   7.748  1.3028  0.8026 -0.5822
  417TIP3   OH222885   4.939   3.041   7.761 -0.1630  0.6160  0.3746
  417TIP3    H122886   4.991   2.973   7.718  0.7182  0.1573  2.0651
  417TIP3    H222887   4.993   3.120   7.755 -0.9456  1.0602 -1.1124
  418TIP3   OH222888   6.811   2.582   7.739 -0.5154  0.3997  0.3283
  418TIP3    H122889   6.830   2.527   7.815 -0.0115 -0.7692 -0.6062
  418TIP3    H222890   6.717   2.573   7.725 -0.3305 -0.8992 -0.2716
  419TIP3   OH222891   6.371   2.568   0.679 -0.1599 -0.3329 -0.3467
  419TIP3    H122892   6.284   2.607   0.692  0.2119  0.7974 -1.0206
  419TIP3    H222893   6.359   2.507   0.607 -0.0060  1.4074 -1.9379
  420TIP3   OH222894   0.396   7.050   5.992 -0.2025 -0.3320  0.2643
  420TIP3    H122895   0.450   7.000   5.931  0.2421  0.8022 -0.3063
  420TIP3    H222896   0.311   7.008   5.990  0.1798 -1.0964 -0.1429
  421TIP3   OH222897   2.537   1.540   6.638  0.2653 -0.4060 -0.3386
  421TIP3    H122898   2.467   1.529   6.573 -0.8754  1.8128  0.3836
  421TIP3    H222899   2.510   1.486   6.712  0.1514 -0.8021 -0.6648
  422TIP3   OH222900   2.277   3.442   6.658 -0.4579 -0.3930 -0.3030
  422TIP3    H122901   2.235   3.446   6.573 -0.8352 -1.5232 -0.1882
  422TIP3    H222902   2.348   3.379   6.647  1.8850  2.1511 -0.7411
  423TIP3   OH222903   3.672   5.834   1.382  0.0828 -0.0607 -0.3443
  423TIP3    H122904   3.587   5.862   1.416  1.0246 -0.0212  2.1780
  423TIP3    H222905   3.654   5.751   1.338 -1.1666 -0.3838  0.7166
  424TIP3   OH222906   4.288   6.641   6.481 -0.2828 -0.0880  0.3826
  424TIP3    H122907   4.265   6.733   6.470  1.2193  0.5439  2.0287
  424TIP3    H222908   4.381   6.637   6.463 -0.2795 -1.2446  0.5613
  425TIP3   OH222909   2.488   1.737   7.619  0.0348 -0.4011 -0.2462
  425TIP3    H122910   2.525   1.658   7.578 -2.4598 -1.9941  0.3263
  425TIP3    H222911   2.528   1.809   7.570  1.5541 -2.0176 -1.5914
  426TIP3   OH222912   6.906   1.253   6.134  0.2587 -0.1946 -0.3221
  426TIP3    H122913   6.898   1.345   6.159  1.1640  0.1591 -1.2347
  426TIP3    H222914   6.866   1.249   6.047 -0.0300 -0.7285 -0.1652
  427TIP3   OH222915   1.486   0.204   6.756  0.7255  0.0082 -0.4256
  427TIP3    H122916   1.467   0.295   6.777  0.0230 -0.2551  0.1377
  427TIP3    H222917   1.401   0.160   6.761  1.1819 -0.8425  0.1905
  428TIP3   OH222918   0.637   1.512   1.623  0.3701 -0.3331  0.4954
  428TIP3    H122919   0.667   1.469   1.703 -0.4407  1.9099  2.1001
  428TIP3    H222920   0.561   1.563   1.650 -0.0483  0.3584 -1.7671
  429TIP3   OH222921   0.329   2.190   7.958 -0.3046  0.0082  0.2424
  429TIP3    H122922   0.257   2.206   8.018 -1.4385 -0.1042 -1.0328
  429TIP3    H222923   0.378   2.118   7.997 -1.1318 -0.2054  0.9068
  430TIP3   OH222924   3.038   3.796   2.262 -0.0363 -0.0530 -0.0511
  430TIP3    H122925   2.943   3.802   2.268 -0.0391  1.5204 -1.0320
  430TIP3    H222926   3.057   3.703   2.274 -1.8616 -0.6896 -1.5461
  431TIP3   OH222927   2.525   4.835   1.994  0.1510 -0.0912 -0.5429
  431TIP3    H122928   2.613   4.797   1.996  0.2195  0.0833 -0.2010
  431TIP3    H222929   2.527   4.904   2.061 -0.5331 -0.7172  0.1363
  432TIP3   OH222930   0.434   3.892   7.023 -0.3866  0.3140 -0.1513
  432TIP3    H122931   0.417   3.943   6.944 -1.1591 -1.2292 -1.0343
  432TIP3    H222932   0.522   3.917   7.049 -0.5355  1.6698 -0.8673
  433TIP3   OH222933   6.487   2.512   7.072 -0.6260 -0.0625 -0.3239
  433TIP3    H122934   6.467   2.472   6.988  1.4329 -1.1090 -0.3837
  433TIP3    H222935   6.558   2.573   7.054 -0.1994 -0.2489  0.6340
  434TIP3   OH222936   6.665   3.304   8.244 -0.1064  0.0746  0.7021
  434TIP3    H122937   6.575   3.274   8.256 -0.3226  0.1447 -0.6683
  434TIP3    H222938   6.716   3.225   8.227 -0.2534  0.2218 -0.4634
  435TIP3   OH222939   1.760   2.766   7.095 -0.0218  0.1772  0.1969
  435TIP3    H122940   1.762   2.681   7.052  1.1028  0.7474 -0.9496
  435TIP3    H222941   1.673   2.771   7.135 -0.4172 -1.1361 -0.4440
  436TIP3   OH222942   1.340   2.640   1.873 -0.2531 -0.0815  0.7176
  436TIP3    H122943   1.262   2.591   1.848 -0.5240 -0.0904  1.5544
  436TIP3    H222944   1.410   2.603   1.819 -1.0669  0.9338 -1.1455
  437TIP3   OH222945   0.465   3.797   1.521 -0.5339  0.6831  0.5436
  437TIP3    H122946   0.505   3.776   1.605  2.3659 -0.1206 -0.9090
  437TIP3    H222947   0.504   3.735   1.460 -3.2586  0.6059 -1.3014
  438TIP3   OH222948   6.440   0.346   0.195 -0.3505 -0.0491  0.1686
  438TIP3    H122949   6.531   0.339   0.166 -0.8328  0.7583 -1.6704
  438TIP3    H222950   6.413   0.256   0.212  0.8233 -0.2866  0.9463
  439TIP3   OH222951   4.027   0.438   1.125  0.0635  0.3481  0.2285
  439TIP3    H122952   4.017   0.395   1.210  1.1041 -0.0815  0.1559
  439TIP3    H222953   4.014   0.531   1.143  0.0359  0.2340  0.8183
  440TIP3   OH222954   6.035   0.114   1.834 -0.0651  0.2078 -0.2631
  440TIP3    H122955   6.020   0.146   1.745  0.6591  1.3535 -0.0018
  440TIP3    H222956   6.028   0.192   1.889 -1.0898 -0.5903  0.7671
  441TIP3   OH222957   1.128   2.668   0.713  0.1643  0.3848 -0.0013
  441TIP3    H122958   1.146   2.576   0.693 -0.6823  0.0265  0.8200
  441TIP3    H222959   1.089   2.667   0.800  1.9046  1.7016  0.8533
  442TIP3   OH222960   4.505   2.788   1.913 -0.0371 -0.0413  0.3184
  442TIP3    H122961   4.566   2.729   1.957 -0.1564  0.0414  0.5941
  442TIP3    H222962   4.456   2.731   1.853 -1.3129 -0.5413  1.7882
  443TIP3   OH222963   0.333   3.451   7.857 -0.1160  0.6932  0.1962
  443TIP3    H122964   0.378   3.528   7.893 -0.7685  0.9339  0.5172
  443TIP3    H222965   0.384   3.377   7.889  0.4445  0.9820 -0.0082
  444TIP3   OH222966   3.289   3.537   7.763  0.1538 -0.4366 -0.5422
  444TIP3    H122967   3.319   3.627   7.773 -2.5407  0.3621  1.5615
  444TIP3    H222968   3.363   3.483   7.791  1.4034  1.1619 -0.6946
  445TIP3   OH222969   6.954   0.369   7.923 -0.1401  0.2942 -0.3013
  445TIP3    H122970   6.915   0.282   7.915 -0.3984  0.4465 -0.7303
  445TIP3    H222971   6.880   0.429   7.920  0.1996  0.6947 -2.8957
  446TIP3   OH222972   2.168   6.283   0.068  0.4292  0.1541  0.5462
  446TIP3    H122973   2.192   6.336   0.144 -1.6126  1.0961  0.6045
  446TIP3    H222974   2.083   6.244   0.091  1.0440 -1.7358 -0.2056
  447TIP3   OH222975   2.931   6.378   6.231  0.0464  0.2105 -0.0506
  447TIP3    H122976   2.915   6.472   6.240 -1.8777 -0.1161  0.3333
  447TIP3    H222977   2.867   6.337   6.288  1.2826 -1.3432  0.2834
  448TIP3   OH222978   5.983   1.272   6.690 -0.5934  0.2038  0.5104
  448TIP3    H122979   6.067   1.250   6.649 -0.6339  0.8213  0.0739
  448TIP3    H222980   5.921   1.274   6.617 -1.4608 -2.3391  1.0743
  449TIP3   OH222981   5.699   6.812   7.710  0.3184 -0.5413 -0.3614
  449TIP3    H122982   5.734   6.852   7.790 -1.0328  1.7796 -0.8268
  449TIP3    H222983   5.708   6.718   7.724 -0.9587 -0.3051  3.0992
  450TIP3   OH222984   2.872   4.085   7.590  0.4246 -0.5203 -0.3454
  450TIP3    H122985   2.896   4.177   7.584 -0.3424 -0.2965 -0.0423
  450TIP3    H222986   2.780   4.085   7.617  0.8942 -1.3777  1.4451
  451TIP3   OH222987   1.189   7.006   1.050 -0.6622 -0.2922 -0.0138
  451TIP3    H122988   1.095   6.998   1.033 -0.9647 -0.2957  1.5013
  451TIP3    H222989   1.207   6.937   1.115  0.0685  0.6888  0.8530
  452TIP3   OH222990   0.120   3.526   0.626 -0.0340  0.7526  0.0477
  452TIP3    H122991   0.142   3.501   0.716 -0.6369  2.0314  0.5684
  452TIP3    H222992   0.203   3.554   0.588  0.1053  0.8666  0.4309
  453TIP3   OH222993   6.772   0.151   7.870 -0.6493 -0.5403  0.6865
  453TIP3    H122994   6.771   0.057   7.889  0.8830 -1.0468 -1.4254
  453TIP3    H222995   6.680   0.173   7.857 -1.0484 -1.7146  1.3596
  454TIP3   OH222996   6.224   5.391   6.656 -0.0787  1.0521 -0.2487
  454TIP3    H122997   6.215   5.342   6.574 -0.2242  0.3414  0.1850
  454TIP3    H222998   6.136   5.427   6.671  0.1012  1.7079 -0.7216
  455TIP3   OH222999   5.379   2.239   7.140 -0.2358 -0.1881  0.1235
  455TIP3    H123000   5.460   2.235   7.192 -0.6504 -1.8777  0.7138
  455TIP3    H223001   5.341   2.324   7.162  0.0996 -0.4357  1.8571
  456TIP3   OH223002   3.851   4.419   0.033  0.3519 -0.0437 -0.2823
  456TIP3    H123003   3.840   4.331   0.068  0.0558 -0.2344 -0.8430
  456TIP3    H223004   3.778   4.469   0.068  0.7242  0.0799  0.3344
  457TIP3   OH223005   1.613   5.444   7.927 -0.1985 -0.0483 -0.3110
  457TIP3    H123006   1.542   5.428   7.989  1.0058  2.2126  1.7905
  457TIP3    H223007   1.669   5.509   7.969  2.7321 -1.1111 -2.2214
  458TIP3   OH223008   0.563   5.238   7.704  0.4991 -0.2809 -0.0832
  458TIP3    H123009   0.602   5.201   7.783  1.0667 -0.7644 -0.5757
  458TIP3    H223010   0.470   5.246   7.724  0.4643 -1.4263  0.2460
  459TIP3   OH223011   4.829   1.477   7.664 -0.4068  0.1623 -0.1696
  459TIP3    H123012   4.762   1.545   7.661 -0.0780  0.4651 -0.7866
  459TIP3    H223013   4.873   1.490   7.748  0.0450  1.1063 -0.5293
  460TIP3   OH223014   2.114   5.225   1.711 -0.1746 -0.2683 -0.1089
  460TIP3    H123015   2.025   5.194   1.700 -0.4057  0.1638  0.4849
  460TIP3    H223016   2.107   5.320   1.710  0.1863 -0.2250  0.5557
  461TIP3   OH223017   5.361   4.869   0.586  0.1899 -0.1420  0.4147
  461TIP3    H123018   5.447   4.830   0.571 -0.4772 -1.9157  1.0250
  461TIP3    H223019   5.326   4.823   0.662 -0.2575  2.3507  1.8306
  462TIP3   OH223020   1.006   2.999   7.020  0.0776 -0.1627 -0.3498
  462TIP3    H123021   1.084   3.033   6.976 -0.2898  0.1278 -0.7927
  462TIP3    H223022   0.935   3.055   6.988 -0.5769 -1.4477 -1.2336
  463TIP3   OH223023   1.877   3.089   6.848 -0.8830 -0.0725  0.6739
  463TIP3    H123024   1.948   3.067   6.788 -1.5109 -0.9359  0.2178
  463TIP3    H223025   1.911   3.068   6.934  0.0506  1.2317  0.6475
  464TIP3   OH223026   5.740   3.558   8.191 -0.4354  0.6516 -0.1846
  464TIP3    H123027   5.693   3.537   8.111 -1.2319 -0.1483  0.4738
  464TIP3    H223028   5.701   3.641   8.220 -0.1431  0.9446 -0.6056
  465TIP3   OH223029   4.097   4.398   0.455 -0.4152  0.1200 -0.0511
  465TIP3    H123030   4.181   4.394   0.502  0.8483  1.8262 -1.9991
  465TIP3    H223031   4.043   4.456   0.507  0.7934  1.6087 -0.3836
  466TIP3   OH223032   6.079   0.388   1.957 -0.0349  0.4006 -0.8593
  466TIP3    H123033   6.099   0.480   1.941  1.6379  0.1963 -0.0724
  466TIP3    H223034   6.103   0.373   2.048  1.5108 -1.2511 -1.4759
  467TIP3   OH223035   0.084   2.979   0.235  0.5221 -0.8522 -0.0561
  467TIP3    H123036   0.135   2.928   0.299  2.6560  0.8584 -0.2793
  467TIP3    H223037   0.055   2.914   0.171  0.7037 -2.1893  1.1655
  468TIP3   OH223038   0.946   3.159   8.211 -0.5737 -0.3738 -0.3084
  468TIP3    H123039   0.982   3.223   8.150 -0.9596 -0.9210 -1.1254
  468TIP3    H223040   0.880   3.207   8.261 -0.6679 -0.0709 -0.7248
  469TIP3   OH223041   2.553   5.101   0.943  0.0682 -0.1047 -0.0948
  469TIP3    H123042   2.503   5.133   1.019  0.4736 -0.5413  0.3601
  469TIP3    H223043   2.490   5.048   0.894 -0.5165  1.0744 -0.6738
  470TIP3   OH223044   4.734   2.657   1.059  0.3559 -0.2640 -0.7154
  470TIP3    H123045   4.756   2.746   1.032 -2.7743  1.2806  1.1903
  470TIP3    H223046   4.751   2.656   1.154  1.4064 -2.1209 -0.8714
  471TIP3   OH223047   2.034   3.895   1.857 -0.3710  0.3853  0.0435
  471TIP3    H123048   1.965   3.953   1.824 -0.6660  0.2479  0.4081
  471TIP3    H223049   1.987   3.827   1.904 -0.1255 -0.9653 -1.5822
  472TIP3   OH223050   1.699   7.078   8.033  0.3262 -0.0070 -0.1938
  472TIP3    H123051   1.643   7.057   7.958  2.1872 -0.1090 -1.6083
  472TIP3    H223052   1.743   6.996   8.054  0.9374  0.3834  0.0564
  473TIP3   OH223053   0.594   6.895   5.780  0.1316 -0.1554  0.2872
  473TIP3    H123054   0.539   6.837   5.833 -2.3359  1.3377 -0.4817
  473TIP3    H223055   0.675   6.845   5.765 -2.1430 -3.7950 -1.0913
  474TIP3   OH223056   6.937   5.549   7.924  0.9274 -0.0057  0.2061
  474TIP3    H123057   6.942   5.610   7.997 -0.0629  0.2969  0.0409
  474TIP3    H223058   6.979   5.469   7.955  1.7277  0.5699  0.6229
  475TIP3   OH223059   3.184   0.338   0.758  0.3735  0.4806 -0.2310
  475TIP3    H123060   3.106   0.362   0.709  1.1294  1.0892 -1.1824
  475TIP3    H223061   3.222   0.265   0.708  0.2002 -0.0753  0.4449
  476TIP3   OH223062   3.630   0.042   1.448 -0.0754  0.3482 -0.0743
  476TIP3    H123063   3.599   0.130   1.426 -1.2479 -0.0427 -0.0591
  476TIP3    H223064   3.700   0.057   1.512 -0.2846  1.2605 -0.0404
  477TIP3   OH223065   6.585   2.032   1.180  0.0651  0.6174  0.5924
  477TIP3    H123066   6.534   2.056   1.257 -2.5128 -0.5234 -0.6619
  477TIP3    H223067   6.574   2.105   1.120  0.0973  0.4656  0.3998
  478TIP3   OH223068   5.926   1.765   7.097  0.2633 -0.1601  0.4463
  478TIP3    H123069   5.916   1.723   7.011 -0.9546  0.4125  0.2865
  478TIP3    H223070   5.924   1.692   7.159  1.0532 -0.5689 -0.0002
  479TIP3   OH223071   1.300   1.726   1.432 -0.1326 -0.5172 -0.2975
  479TIP3    H123072   1.299   1.632   1.448  0.9178 -0.1236  3.0047
  479TIP3    H223073   1.208   1.752   1.430 -0.4374 -1.6402 -1.6567
  480TIP3   OH223074   4.506   0.801   6.365 -0.5007  0.1216 -0.5872
  480TIP3    H123075   4.510   0.706   6.379  1.5294 -0.1853 -2.6276
  480TIP3    H223076   4.596   0.831   6.378 -1.1307  1.8350  0.1510
  481TIP3   OH223077   3.049   4.951   6.121 -0.3010 -0.2537  0.3022
  481TIP3    H123078   3.080   5.039   6.105  0.4379 -0.5859 -0.1403
  481TIP3    H223079   3.076   4.931   6.210 -1.1863  0.2560  0.6960
  482TIP3   OH223080   1.413   4.898   7.696 -0.4194 -0.1910  0.2872
  482TIP3    H123081   1.404   4.858   7.782  0.4346 -1.0525 -0.0030
  482TIP3    H223082   1.483   4.848   7.653 -0.3118  0.6993 -0.6273
  483TIP3   OH223083   5.313   6.305   7.615 -0.2227 -0.5566  0.2815
  483TIP3    H123084   5.384   6.366   7.636 -0.4515 -0.2421  0.1409
  483TIP3    H223085   5.283   6.273   7.700 -0.3365 -0.2091  0.3729
  484TIP3   OH223086   1.939   0.428   0.334 -0.5889 -0.0716 -0.2533
  484TIP3    H123087   1.849   0.397   0.335 -1.5391  2.1020 -3.5352
  484TIP3    H223088   1.946   0.479   0.254  2.5307  2.9579  1.6838
  485TIP3   OH223089   3.511   0.284   1.349 -0.5163 -0.2262 -0.3466
  485TIP3    H123090   3.488   0.228   1.275 -1.3214 -0.0006 -0.2830
  485TIP3    H223091   3.496   0.373   1.317 -0.2105 -0.0956 -0.1301
  486TIP3   OH223092   5.397   3.887   6.876  0.5712  0.0598  0.0424
  486TIP3    H123093   5.415   3.896   6.782  1.2292 -0.3137  0.1264
  486TIP3    H223094   5.343   3.808   6.882 -1.9607  1.6510 -0.2997
  487TIP3   OH223095   1.855   4.272   6.088  0.5535  0.3235  0.2146
  487TIP3    H123096   1.893   4.359   6.099 -0.7332  0.6978  2.1035
  487TIP3    H223097   1.786   4.267   6.154  2.0144 -2.9470  1.6606
  488TIP3   OH223098   5.334   2.279   1.507 -0.0068  0.4066 -0.0850
  488TIP3    H123099   5.288   2.302   1.587  0.5814  0.0936  0.3512
  488TIP3    H223100   5.411   2.230   1.536 -0.8502 -1.5150 -0.9541
  489TIP3   OH223101   1.923   2.065   7.162 -0.0645  0.5067 -0.1634
  489TIP3    H123102   1.854   2.082   7.098  0.0338 -0.4490 -0.5416
  489TIP3    H223103   2.002   2.102   7.122 -0.3455  1.6322  0.2860
  490TIP3   OH223104   0.077   3.402   7.866 -0.0998  0.3436  0.3720
  490TIP3    H123105   0.042   3.401   7.777  2.1603 -2.8621 -0.6429
  490TIP3    H223106   0.171   3.411   7.855  0.1053  1.7353  2.6167
  491TIP3   OH223107   0.223   2.002   1.643  0.1330 -0.1491  0.2663
  491TIP3    H123108   0.221   1.925   1.700  0.7863 -0.9291 -0.7434
  491TIP3    H223109   0.213   1.967   1.555 -0.1029  0.9789 -0.1691
  492TIP3   OH223110   0.263   6.186   1.532  0.1196 -0.0514  0.3487
  492TIP3    H123111   0.253   6.209   1.440  0.9607 -1.0333 -0.0044
  492TIP3    H223112   0.357   6.192   1.549  0.1915 -1.5588  0.6551
  493TIP3   OH223113   3.138   6.073   1.104 -0.6616 -0.2673 -0.4358
  493TIP3    H123114   3.069   6.081   1.038  0.3622  1.1678 -1.3777
  493TIP3    H223115   3.219   6.079   1.055  0.1448 -0.5199  0.8222
  494TIP3   OH223116   6.362   2.446   0.944  0.5605 -0.0147  0.0215
  494TIP3    H123117   6.380   2.493   0.863  0.3222  0.1473  0.0635
  494TIP3    H223118   6.433   2.472   1.003 -0.5157  1.6704  0.6333
  495TIP3   OH223119   3.986   2.422   2.001  0.2468  0.0223 -0.0642
  495TIP3    H123120   3.985   2.355   1.932 -0.0396  1.0845 -1.1300
  495TIP3    H223121   4.067   2.405   2.049 -0.0062 -1.3135 -0.0695
  496TIP3   OH223122   1.535   4.555   7.395 -0.1735  0.2179 -0.1298
  496TIP3    H123123   1.457   4.609   7.387  0.7622  1.8728  1.2162
  496TIP3    H223124   1.540   4.532   7.488  1.4173  0.9854  0.0131
  497TIP3   OH223125   4.173   6.643   7.994 -0.5125 -0.2080 -0.1823
  497TIP3    H123126   4.159   6.684   7.908 -0.4819 -0.8631 -0.5097
  497TIP3    H223127   4.089   6.602   8.015 -0.6739  0.3956  0.3460
  498TIP3   OH223128   4.848   6.615   0.036  0.2924  0.0631 -0.1991
  498TIP3    H123129   4.764   6.637  -0.004  1.1855  0.8016 -1.7809
  498TIP3    H223130   4.854   6.673   0.112  0.4116  1.8325 -1.4826
  499TIP3   OH223131   4.090   1.046   0.020 -0.8107 -0.3426  0.2396
  499TIP3    H123132   4.063   1.088   0.102  3.2316  1.5007  0.8834
  499TIP3    H223133   4.172   1.002   0.042 -0.3843 -1.1359 -2.5403
  500TIP3   OH223134   5.434   3.445   8.282 -0.6637 -0.1347 -0.4312
  500TIP3    H123135   5.505   3.407   8.333 -0.1255  0.4347 -0.7546
  500TIP3    H223136   5.466   3.448   8.192 -0.3793  1.7678 -0.3108
  501TIP3   OH223137   1.466   0.178   1.291 -0.1402  0.2732  0.1264
  501TIP3    H123138   1.531   0.215   1.351 -0.6413 -1.2104  1.6813
  501TIP3    H223139   1.461   0.240   1.219  3.2890  0.2305 -0.2760
  502TIP3   OH223140   3.015   0.808   7.554 -0.0951 -0.4127 -0.2513
  502TIP3    H123141   3.056   0.876   7.608  1.2398  0.2822 -2.0720
  502TIP3    H223142   3.050   0.822   7.466  0.1187 -3.3838 -0.7350
  503TIP3   OH223143   2.858   0.696   0.314  0.0284  0.1346 -0.7031
  503TIP3    H123144   2.821   0.639   0.246 -0.4066  1.9994 -2.1285
  503TIP3    H223145   2.799   0.687   0.388  0.7054 -2.2237 -0.3552
  504TIP3   OH223146   3.026   4.831   0.298  0.4063 -0.6474 -0.0941
  504TIP3    H123147   3.029   4.808   0.205 -2.9682 -1.2970 -0.1483
  504TIP3    H223148   2.994   4.752   0.342 -0.4376  0.3915  1.2739
  505TIP3   OH223149   2.047   1.069   7.819  0.0496 -0.1090  0.1176
  505TIP3    H123150   2.013   0.981   7.806  1.8821 -1.0292  1.1485
  505TIP3    H223151   1.996   1.124   7.759 -0.1221 -2.0929 -1.6652
  506TIP3   OH223152   4.546   2.046   0.271  0.2174  0.2213 -0.1683
  506TIP3    H123153   4.559   2.100   0.349 -1.2068  1.5440 -0.7826
  506TIP3    H223154   4.628   1.997   0.262  1.1789  1.5029  1.0317
  507TIP3   OH223155   1.722   5.907   6.422  0.0976  0.3033 -0.1039
  507TIP3    H123156   1.628   5.891   6.436  0.0618  0.1612 -0.4899
  507TIP3    H223157   1.725   5.993   6.380  0.0358 -0.2823 -1.3609
  508TIP3   OH223158   6.573   5.557   0.291 -0.4423  0.0862  0.4795
  508TIP3    H123159   6.580   5.538   0.197 -1.3262  1.6058  0.0541
  508TIP3    H223160   6.511   5.492   0.324  0.4235 -0.9200  0.1822
  509TIP3   OH223161   0.326   4.830   8.059  0.2359 -0.1683 -0.3204
  509TIP3    H123162   0.248   4.820   8.113  1.0722  0.3598  1.0265
  509TIP3    H223163   0.302   4.898   7.995 -0.1168  0.6560  0.6685
  510TIP3   OH223164   2.857   0.049   0.379  0.3973  0.5593  0.2052
  510TIP3    H123165   2.869  -0.042   0.351  0.2599  0.4617  0.4619
  510TIP3    H223166   2.837   0.043   0.473 -0.1994  0.8139  0.0969
  511TIP3   OH223167   4.522   0.525   0.630 -0.0617  0.4945  0.3410
  511TIP3    H123168   4.578   0.533   0.552 -1.4504  0.9920 -0.6402
  511TIP3    H223169   4.522   0.613   0.669  0.3378  0.3352  0.7119
  512TIP3   OH223170   1.442   6.548   0.692 -0.1298 -0.3355 -0.3726
  512TIP3    H123171   1.448   6.628   0.744  0.7573 -0.5007 -0.2011
  512TIP3    H223172   1.533   6.521   0.678 -0.3863 -0.8233 -1.1983
  513TIP3   OH223173   4.349   0.393   2.186  0.1590  0.1291  0.0835
  513TIP3    H123174   4.321   0.302   2.200 -0.4938 -0.1605 -2.6094
  513TIP3    H223175   4.311   0.441   2.260 -2.2145 -1.3001 -0.1095
  514TIP3   OH223176   6.887   3.942   1.523 -0.1833  0.7229  0.1451
  514TIP3    H123177   6.900   3.910   1.434 -1.4923 -0.8308  0.4700
  514TIP3    H223178   6.794   3.963   1.527 -0.5988 -1.1591  1.7007
  515TIP3   OH223179   6.393   0.540   2.440  0.5344  0.1497 -0.2417
  515TIP3    H123180   6.354   0.524   2.354  0.3307  1.0179 -0.3129
  515TIP3    H223181   6.330   0.595   2.485  0.1606 -1.1193  0.8473
  516TIP3   OH223182   3.019   2.174   2.241 -0.5363  0.0702  1.0563
  516TIP3    H123183   3.101   2.213   2.272 -0.5618 -0.7658  2.2627
  516TIP3    H223184   3.000   2.105   2.305 -0.1869 -2.3307 -1.2510
  517TIP3   OH223185   3.350   6.258   7.988  0.4063  0.3300 -0.6956
  517TIP3    H123186   3.265   6.303   7.993  0.5085  0.5677 -1.0682
  517TIP3    H223187   3.373   6.241   8.079 -0.8884 -1.3475 -0.6397
  518TIP3   OH223188   3.192   0.867   1.006  0.4564  0.0549 -0.2093
  518TIP3    H123189   3.145   0.951   1.011  1.6599  0.7069  3.3845
  518TIP3    H223190   3.123   0.801   1.007 -0.5811  1.0115  2.9373
  519TIP3   OH223191   3.664   5.231   8.242  0.2167  0.4283 -0.3857
  519TIP3    H123192   3.594   5.240   8.307  2.1137  4.8810  1.4436
  519TIP3    H223193   3.725   5.169   8.281 -0.8904 -0.5654 -0.1963
  520TIP3   OH223194   6.241   7.062   6.248  0.0125  0.0254  0.2785
  520TIP3    H123195   6.280   7.149   6.237  0.6818 -0.0710  1.6826
  520TIP3    H223196   6.313   7.007   6.278 -0.6839 -0.7257  0.6163
  521TIP3   OH223197   0.391   4.190   0.214  0.2473  0.6690  0.5120
  521TIP3    H123198   0.395   4.148   0.128  2.2116  0.0482  0.8712
  521TIP3    H223199   0.434   4.129   0.273 -2.6112  0.2560  2.3628
  522TIP3   OH223200   2.586   6.823   7.152 -0.1887 -0.1823  0.1882
  522TIP3    H123201   2.653   6.884   7.121  0.0239 -0.7715 -0.5352
  522TIP3    H223202   2.612   6.803   7.242 -0.4658  1.0615  0.5558
  523TIP3   OH223203   6.756   2.602   6.954 -0.3755  0.0701 -0.2529
  523TIP3    H123204   6.733   2.567   6.867  1.3045  0.7557 -1.0302
  523TIP3    H223205   6.824   2.667   6.936 -0.1623  0.4028  1.5750
  524TIP3   OH223206   2.880   6.962   1.550 -0.2841 -0.5414 -0.1830
  524TIP3    H123207   2.813   6.931   1.610 -0.6008  0.2595 -0.1112
  524TIP3    H223208   2.864   7.056   1.543  0.7229 -0.3692 -0.2993
  525TIP3   OH223209   0.225   5.553   1.399 -0.1178  0.2132 -0.1498
  525TIP3    H123210   0.184   5.638   1.381  0.6611  0.6176 -0.0555
  525TIP3    H223211   0.222   5.545   1.495 -1.1050 -0.3396 -0.2134
  526TIP3   OH223212   1.882   0.722   7.412  0.0094  0.2851 -0.1060
  526TIP3    H123213   1.977   0.729   7.413 -0.0704  1.9673 -0.5734
  526TIP3    H223214   1.851   0.801   7.455 -1.1868 -0.0981 -0.1956
  527TIP3   OH223215   5.403   6.364   7.327 -0.8470 -0.1616  0.0341
  527TIP3    H123216   5.443   6.326   7.405 -0.9851 -0.3653  0.0072
  527TIP3    H223217   5.452   6.326   7.254 -0.1438  0.6961  0.0430
  528TIP3   OH223218   3.519   4.029   1.256 -0.0789  0.1763  0.5110
  528TIP3    H123219   3.479   4.077   1.329  0.6492  1.1327  0.2950
  528TIP3    H223220   3.470   3.947   1.252 -0.4340  0.3014  1.7870
  529TIP3   OH223221   4.574   2.677   6.399  0.2007  0.3535  0.6362
  529TIP3    H123222   4.663   2.696   6.370 -0.3496  1.3389 -0.4823
  529TIP3    H223223   4.545   2.757   6.442  0.0836 -0.2010  1.6074
  530TIP3   OH223224   1.179   2.148   1.252  0.2273 -0.0217 -0.2251
  530TIP3    H123225   1.222   2.214   1.306 -1.7651  0.3012  1.0616
  530TIP3    H223226   1.128   2.199   1.189  0.4535 -0.3765 -0.7016
  531TIP3   OH223227   6.187   3.104   7.101 -0.3021 -0.3626 -0.8625
  531TIP3    H123228   6.241   3.064   7.170  0.5941 -0.1136 -1.4028
  531TIP3    H223229   6.226   3.190   7.087 -0.8050 -0.2046 -1.3056
  532TIP3   OH223230   5.601   1.970   7.548 -0.1742 -0.2489 -0.0606
  532TIP3    H123231   5.595   1.911   7.623  0.4735 -0.4509 -0.1575
  532TIP3    H223232   5.533   2.035   7.562  0.6396  0.3429  1.2545
  533TIP3   OH223233   0.040   3.146   8.236 -0.0629 -0.6358  0.4908
  533TIP3    H123234   0.092   3.144   8.316  0.4970  1.1713  0.2246
  533TIP3    H223235   0.100   3.117   8.167  0.2088  0.1347  0.3894
  534TIP3   OH223236   1.611   3.306   1.052 -0.2883  0.2993  0.4399
  534TIP3    H123237   1.544   3.349   0.999 -0.0592  0.7698  0.5193
  534TIP3    H223238   1.566   3.280   1.132 -0.7365 -0.7961 -0.1513
  535TIP3   OH223239   6.479   6.652   0.332 -0.0365  0.7889  0.1772
  535TIP3    H123240   6.486   6.680   0.241  0.9548  0.5887  0.1853
  535TIP3    H223241   6.399   6.599   0.334  0.3834  0.0848 -0.7684
  536TIP3   OH223242   5.237   3.518   7.689  0.0500  0.0020  0.1432
  536TIP3    H123243   5.298   3.446   7.706  0.0989  0.4213  1.9204
  536TIP3    H223244   5.165   3.503   7.750 -0.8464  0.4430 -0.7796
  537TIP3   OH223245   3.957   2.955   1.213  0.0571  0.1390 -0.5716
  537TIP3    H123246   3.884   2.896   1.197  0.6475 -0.2011 -2.2688
  537TIP3    H223247   3.951   3.020   1.142  0.7771  0.7157 -0.1223
  538TIP3   OH223248   2.300   6.502   1.645 -0.7633  0.6568 -0.2631
  538TIP3    H123249   2.383   6.455   1.637  0.0026  1.8825  0.3111
  538TIP3    H223250   2.266   6.475   1.731 -1.0236  0.0686 -0.5465
  539TIP3   OH223251   4.888   2.563   0.666 -0.5059  0.6616  0.0723
  539TIP3    H123252   4.799   2.576   0.634  0.1748  0.5112 -2.0930
  539TIP3    H223253   4.882   2.491   0.728 -1.9056  0.7996  0.1247
  540TIP3   OH223254   4.036   3.948   6.312  1.0038  0.5289 -0.1801
  540TIP3    H123255   3.946   3.962   6.284  0.6115 -0.6272  0.4103
  540TIP3    H223256   4.089   3.996   6.249  0.0242  0.4023 -1.1240
  541TIP3   OH223257   2.232   5.349   6.952 -0.3890  0.1117 -0.4678
  541TIP3    H123258   2.276   5.434   6.947  1.2693 -0.6551  0.2111
  541TIP3    H223259   2.140   5.370   6.967  0.2740  1.8272  1.8215
  542TIP3   OH223260   2.782   0.190   2.108 -0.2639  0.3623  0.0488
  542TIP3    H123261   2.692   0.188   2.141  0.1995  2.4729  1.6448
  542TIP3    H223262   2.825   0.116   2.151 -1.2525 -0.8712 -0.9858
  543TIP3   OH223263   0.276   5.248   6.424  0.0482 -0.1091  0.1238
  543TIP3    H123264   0.187   5.273   6.447 -0.5504 -1.0443 -1.1084
  543TIP3    H223265   0.275   5.238   6.329  0.8881 -2.2454  0.2795
  544TIP3   OH223266   4.472   2.190   7.498  0.4719  0.0614 -0.6558
  544TIP3    H123267   4.508   2.222   7.415  1.2133 -0.0157 -0.3743
  544TIP3    H223268   4.447   2.099   7.480 -1.7333  0.7535 -1.4872
  545TIP3   OH223269   6.406   2.793   7.891 -0.0722 -0.5462 -0.0304
  545TIP3    H123270   6.481   2.833   7.936 -0.1619  1.7893 -1.7879
  545TIP3    H223271   6.368   2.734   7.956  1.6993  0.2159  1.8135
  546TIP3   OH223272   3.016   1.562   0.026 -0.1822  0.0746  0.5770
  546TIP3    H123273   2.923   1.563   0.004 -0.3779 -1.2435  1.2498
  546TIP3    H223274   3.060   1.590  -0.054 -1.1299  0.0834  0.0477
  547TIP3   OH223275   0.769   0.061   0.106  0.2293  0.7280 -0.3038
  547TIP3    H123276   0.691   0.016   0.074  0.1673  1.5312 -1.3240
  547TIP3    H223277   0.788   0.127   0.040  1.2756  1.1207  0.3579
  548TIP3   OH223278   1.135   3.750   8.104  0.1457 -0.5894 -0.0095
  548TIP3    H123279   1.111   3.842   8.116 -0.2954 -0.8171  0.9323
  548TIP3    H223280   1.072   3.702   8.158  1.8691 -1.2947  1.4751
  549TIP3   OH223281   4.528   0.778   0.698 -0.3505  0.6877  0.1974
  549TIP3    H123282   4.545   0.865   0.662 -1.1352  0.6840 -0.1827
  549TIP3    H223283   4.519   0.792   0.793  0.0219  0.9353  0.2000
  550TIP3   OH223284   6.687   0.872   8.017  0.3225 -0.5973 -0.0558
  550TIP3    H123285   6.661   0.947   7.963 -1.8920 -2.6695 -2.0578
  550TIP3    H223286   6.607   0.845   8.062  0.6182 -2.7904 -0.7265
  551TIP3   OH223287   2.489   4.541   7.750 -0.0285  0.1190 -0.4426
  551TIP3    H123288   2.535   4.606   7.696  0.4635 -0.6015 -0.9092
  551TIP3    H223289   2.476   4.466   7.692  2.2935 -1.4802  0.9276
  552TIP3   OH223290   4.687   1.077   0.553 -0.4962  0.2067 -0.3642
  552TIP3    H123291   4.747   1.147   0.526 -0.5440  0.2764 -0.2889
  552TIP3    H223292   4.605   1.122   0.573  0.3338  0.5758  2.7609
  553TIP3   OH223293   1.719   2.336   7.466 -0.2271 -0.1923 -0.3735
  553TIP3    H123294   1.799   2.288   7.486 -0.7293 -0.6593  0.5618
  553TIP3    H223295   1.704   2.392   7.542 -0.3352  0.5380 -0.9113
  554TIP3   OH223296   0.740   1.034   1.577 -0.0642 -0.7225 -0.5540
  554TIP3    H123297   0.748   1.075   1.491 -3.4725 -1.7482 -1.5329
  554TIP3    H223298   0.739   0.940   1.558 -1.2313 -0.9553  0.5271
  555TIP3   OH223299   6.594   3.287   7.689 -0.1549  0.1768 -0.1430
  555TIP3    H123300   6.593   3.219   7.756  0.7874  1.6522  1.4686
  555TIP3    H223301   6.542   3.251   7.617 -0.9915 -1.5859  1.2634
  556TIP3   OH223302   3.656   3.142   0.880 -0.2868 -0.0425  0.6957
  556TIP3    H123303   3.646   3.048   0.867 -1.8195  0.4495 -2.8675
  556TIP3    H223304   3.750   3.158   0.871 -0.1855 -1.0531 -0.1381
  557TIP3   OH223305   4.240   2.293   0.412  0.1561 -0.6122 -0.0843
  557TIP3    H123306   4.174   2.287   0.481  2.3714 -2.4889  2.0675
  557TIP3    H223307   4.253   2.203   0.383 -0.3221  0.0623 -2.6966
  558TIP3   OH223308   6.060   1.923   7.519 -0.4788  0.0944 -0.1309
  558TIP3    H123309   6.042   1.975   7.598  2.8690  3.4195 -1.2809
  558TIP3    H223310   5.987   1.943   7.460 -0.0102  2.4326  0.0112
  559TIP3   OH223311   6.016   2.382   0.245  0.3022 -1.0499  0.3080
  559TIP3    H123312   6.060   2.376   0.161 -0.0714 -1.0738  0.1121
  559TIP3    H223313   5.929   2.415   0.225 -0.0023 -1.6444  0.6106
  560TIP3   OH223314   6.299   5.086   7.078  0.3905 -0.3024  0.5557
  560TIP3    H123315   6.288   5.157   7.015 -1.6107 -1.2286 -0.2258
  560TIP3    H223316   6.324   5.010   7.026 -0.0298 -0.7855  1.0388
  561TIP3   OH223317   3.453   1.627   0.209  0.0525  0.0573 -0.2673
  561TIP3    H123318   3.476   1.677   0.288 -1.0513 -0.6128  0.5054
  561TIP3    H223319   3.373   1.580   0.233  0.7805 -1.7079 -1.1283
  562TIP3   OH223320   5.006   3.845   7.808 -0.6985 -0.2019 -0.0396
  562TIP3    H123321   5.089   3.889   7.787  0.4408 -1.3058  1.8622
  562TIP3    H223322   4.999   3.850   7.903 -3.7058  1.2777 -0.2159
  563TIP3   OH223323   0.285   2.417   7.436  0.3827  0.6107 -0.0913
  563TIP3    H123324   0.318   2.338   7.393 -0.3991  0.5602 -0.6201
  563TIP3    H223325   0.307   2.405   7.529  0.3797 -0.1645 -0.1852
  564TIP3   OH223326   3.557   0.432   1.900 -0.6639  0.1037  0.5870
  564TIP3    H123327   3.529   0.393   1.983  1.0553  0.4684  1.3813
  564TIP3    H223328   3.627   0.493   1.924  0.3438 -0.2669 -1.1873
  565TIP3   OH223329   6.502   2.130   7.642  0.3727  0.3508 -0.0149
  565TIP3    H123330   6.453   2.102   7.719 -0.1982  0.9273 -0.1600
  565TIP3    H223331   6.591   2.097   7.656  0.4719  1.0962  1.2538
  566TIP3   OH223332   3.828   5.017   0.039  0.1675  0.0015 -0.7622
  566TIP3    H123333   3.902   4.963   0.015  1.9327  1.5571  0.8603
  566TIP3    H223334   3.793   4.978   0.119 -0.7039 -0.6219 -1.4220
  567TIP3   OH223335   4.672   3.619   6.456  0.5700 -0.4607 -0.1614
  567TIP3    H123336   4.602   3.638   6.393  0.6240  0.3975  0.0332
  567TIP3    H223337   4.737   3.687   6.441  0.9983 -0.7787  0.2189
  568TIP3   OH223338   6.066   4.359   8.121  0.4042 -0.2779 -0.4167
  568TIP3    H123339   5.994   4.314   8.079  0.3977  1.2325 -2.1329
  568TIP3    H223340   6.030   4.445   8.145  1.1423 -0.1606  0.3341
  569TIP3   OH223341   5.606   0.018   6.456 -0.0151  0.2804  1.1152
  569TIP3    H123342   5.578  -0.074   6.453 -0.7946  0.5235  0.6388
  569TIP3    H223343   5.538   0.065   6.407  1.0544  0.9343  0.1993
  570TIP3   OH223344   2.754   4.877   7.783  0.1300  0.0818 -0.6374
  570TIP3    H123345   2.728   4.802   7.837 -0.0482  0.7641  0.2345
  570TIP3    H223346   2.839   4.903   7.818  0.0149  0.5320 -0.6874
  571TIP3   OH223347   3.578   4.662   1.590  0.3170  0.5176  0.2675
  571TIP3    H123348   3.493   4.622   1.576  0.2350  0.7172  0.1901
  571TIP3    H223349   3.636   4.589   1.614  0.2799  0.2872 -0.3354
  572TIP3   OH223350   5.498   0.928   6.370 -0.2628 -0.0721  0.0320
  572TIP3    H123351   5.450   0.858   6.325  1.5087 -1.8780  0.8026
  572TIP3    H223352   5.536   0.980   6.299  1.0950 -1.8740 -0.6410
  573TIP3   OH223353   4.677   4.734   0.323  0.3463  0.1347 -0.2718
  573TIP3    H123354   4.693   4.642   0.300 -0.0311  0.0542 -0.2188
  573TIP3    H223355   4.593   4.732   0.369  0.0745  0.5853 -0.7468
  574TIP3   OH223356   3.673   4.471   7.370 -0.6121  1.1586 -0.1789
  574TIP3    H123357   3.712   4.495   7.286  0.1756 -0.6089 -0.3758
  574TIP3    H223358   3.737   4.411   7.409 -1.4473  1.1389  1.2204
  575TIP3   OH223359   5.303   6.744   0.727 -0.0764 -0.4149 -0.1613
  575TIP3    H123360   5.342   6.717   0.810  2.7175  1.9159 -0.5550
  575TIP3    H223361   5.372   6.731   0.663 -2.0576 -1.8141 -2.1441
  576TIP3   OH223362   0.815   6.919   7.138  0.4370 -0.3763 -0.1966
  576TIP3    H123363   0.723   6.934   7.162  0.0590 -0.8820 -1.2574
  576TIP3    H223364   0.857   7.004   7.150 -0.0467 -0.2686  0.8163
  577TIP3   OH223365   2.249   3.530   0.411 -0.3720  0.1485 -0.3153
  577TIP3    H123366   2.208   3.474   0.344 -0.4125 -0.3774  0.1436
  577TIP3    H223367   2.320   3.477   0.447 -1.4270 -0.2768  1.2742
  578TIP3   OH223368   6.132   5.034   7.672 -0.5394 -0.5376 -0.1760
  578TIP3    H123369   6.128   4.948   7.631 -0.6607 -0.1120 -1.0839
  578TIP3    H223370   6.221   5.066   7.653 -0.5407 -0.4043  0.0358
  579TIP3   OH223371   2.099   0.530   6.920  0.3180 -0.2734  0.4303
  579TIP3    H123372   2.037   0.458   6.928  0.9276 -1.1345 -1.9687
  579TIP3    H223373   2.059   0.589   6.856  0.6470  0.6504  1.0585
  580TIP3   OH223374   6.218   6.480   6.688  0.5198  0.2764  0.0115
  580TIP3    H123375   6.180   6.434   6.614  0.3034  0.7351 -0.1628
  580TIP3    H223376   6.268   6.413   6.735 -0.3661 -0.2979  0.1549
  581TIP3   OH223377   3.658   0.281   5.932  0.2927  0.2002  0.1653
  581TIP3    H123378   3.619   0.358   5.972 -0.9041 -0.0861 -0.3937
  581TIP3    H223379   3.752   0.292   5.944  0.0588  0.9698  1.4606
  582TIP3   OH223380   2.499   4.117   0.196  0.1665  0.1111  0.4026
  582TIP3    H123381   2.518   4.179   0.125 -0.6218 -0.2292 -0.1178
  582TIP3    H223382   2.445   4.167   0.258 -1.9761 -0.5156 -0.8722
  583TIP3   OH223383   5.240   3.537   1.918 -0.9543  0.3236  0.3741
  583TIP3    H123384   5.259   3.443   1.912  0.0779  0.6106 -1.5361
  583TIP3    H223385   5.295   3.569   1.989 -1.7336 -0.5842  1.4221
  584TIP3   OH223386   0.749   0.486   0.166 -0.5626 -0.2510 -0.1701
  584TIP3    H123387   0.690   0.433   0.218 -0.4365 -0.2189  0.0071
  584TIP3    H223388   0.832   0.484   0.214  0.0186 -1.5198 -1.1653
  585TIP3   OH223389   6.264   3.826   1.651 -0.1068 -0.0812 -0.0553
  585TIP3    H123390   6.181   3.779   1.663 -0.2872 -0.2346 -1.6997
  585TIP3    H223391   6.276   3.874   1.733 -2.1823  0.4969 -0.0187
  586TIP3   OH223392   6.658   1.766   7.442 -0.5911  0.0408 -0.1795
  586TIP3    H123393   6.595   1.838   7.447 -0.1849  0.3542  0.4843
  586TIP3    H223394   6.730   1.801   7.390  0.8058  1.0555  2.2955
  587TIP3   OH223395   2.401   6.191   6.953  0.5211  0.4644 -0.0525
  587TIP3    H123396   2.462   6.258   6.984 -0.2442  0.7124  0.9779
  587TIP3    H223397   2.343   6.175   7.027  0.6960 -1.3759 -0.2682
  588TIP3   OH223398   0.294   0.325   0.298 -0.2515  0.0681 -0.2385
  588TIP3    H123399   0.226   0.309   0.363 -2.1080  0.0764 -2.0761
  588TIP3    H223400   0.265   0.404   0.253  1.1481  0.2379 -0.8758
  589TIP3   OH223401   5.617   6.184   0.053  0.1991  0.2285  0.6961
  589TIP3    H123402   5.590   6.256   0.110  0.5038  0.2965  0.7531
  589TIP3    H223403   5.637   6.112   0.113  1.0534  0.4711  0.7130
  590TIP3   OH223404   3.958   0.359   7.883  0.3033 -0.3494  0.0928
  590TIP3    H123405   3.935   0.327   7.796 -1.0028  0.4292  0.1280
  590TIP3    H223406   3.876   0.358   7.932  0.8937 -0.1500  1.1094
  591TIP3   OH223407   4.665   2.412   5.926  0.1254 -0.2777 -0.1211
  591TIP3    H123408   4.664   2.349   5.854 -0.1060 -1.8035  1.1597
  591TIP3    H223409   4.755   2.410   5.958 -0.3749 -1.7316  1.3525
  592TIP3   OH223410   6.192   3.545   5.837 -0.6420  0.6497  0.1728
  592TIP3    H123411   6.159   3.634   5.825 -0.8842  0.4653 -0.5650
  592TIP3    H223412   6.152   3.516   5.919 -0.5206  1.2316  0.4509
  593TIP3   OH223413   1.115   5.288   1.958 -0.0390  0.2012  0.5881
  593TIP3    H123414   1.177   5.350   1.997  0.5373  1.2460 -1.7834
  593TIP3    H223415   1.155   5.202   1.974  2.1325  0.8375 -0.8806
  594TIP3   OH223416   1.085   1.502   1.733  0.3449 -0.0976 -0.1715
  594TIP3    H123417   1.056   1.418   1.770  3.2242 -1.3755 -0.5228
  594TIP3    H223418   1.112   1.480   1.644 -0.5847  1.6515 -0.9220
  595TIP3   OH223419   4.379   6.521   0.599  0.7292  0.5823  0.0785
  595TIP3    H123420   4.340   6.467   0.530 -0.4539  2.3800 -0.7432
  595TIP3    H223421   4.457   6.559   0.560  1.7756 -0.7326  0.7793
  596TIP3   OH223422   3.650   2.541   1.216  0.6494  0.0651  0.1655
  596TIP3    H123423   3.630   2.635   1.214  1.6336  0.2919  0.3505
  596TIP3    H223424   3.719   2.530   1.150  0.3649 -0.5756 -0.0285
  597TIP3   OH223425   2.032   5.237   1.324  0.5762  0.2972 -0.2741
  597TIP3    H123426   1.984   5.276   1.250  1.3647  1.6124 -0.1174
  597TIP3    H223427   2.080   5.310   1.362  1.3150 -0.6607  0.6633
  598TIP3   OH223428   1.141   5.783   6.539 -0.5470  0.5056 -0.4274
  598TIP3    H123429   1.140   5.687   6.541 -2.0404  0.5098  1.6891
  598TIP3    H223430   1.231   5.804   6.512 -0.8547 -1.4189 -3.4945
  599TIP3   OH223431   1.225   2.624   6.405 -0.0373 -0.0563 -1.3330
  599TIP3    H123432   1.149   2.682   6.416 -0.4351 -0.7003 -0.5732
  599TIP3    H223433   1.264   2.651   6.322 -1.3058  0.0546 -1.9141
  600TIP3   OH223434   5.024   6.297   1.322 -0.2724 -0.4811  0.5307
  600TIP3    H123435   5.003   6.352   1.397 -1.5130 -1.1453  0.6972
  600TIP3    H223436   4.981   6.213   1.340 -2.0273 -0.1422 -1.6465
  601TIP3   OH223437   4.320   5.476   1.683  1.0582  0.1829 -0.6323
  601TIP3    H123438   4.366   5.553   1.649 -1.2288  1.8458 -0.2579
  601TIP3    H223439   4.242   5.469   1.628 -0.9080  0.7661  1.8955
  602TIP3   OH223440   6.464   1.953   8.092  0.0667  0.2139 -0.2529
  602TIP3    H123441   6.511   1.885   8.140  0.1080 -0.2643 -0.9467
  602TIP3    H223442   6.521   2.030   8.097  0.5942 -0.1544 -0.4708
  603TIP3   OH223443   0.605   4.788   0.777 -0.3179  0.2221  0.1694
  603TIP3    H123444   0.622   4.760   0.867 -0.0653 -0.6183 -0.1340
  603TIP3    H223445   0.525   4.742   0.752 -0.0942  0.0404 -0.2176
  604TIP3   OH223446   4.053   4.847   8.253  0.7678 -0.0568 -0.0796
  604TIP3    H123447   4.081   4.921   8.198  1.4127  0.4314  0.8816
  604TIP3    H223448   4.071   4.770   8.199 -2.2174  0.4981 -2.1441
  605TIP3   OH223449   1.363   4.166   6.187  0.1135  0.4594  0.4139
  605TIP3    H123450   1.315   4.087   6.162  0.1606  0.0515  1.5697
  605TIP3    H223451   1.295   4.230   6.209  0.0352 -0.2287  2.3950
  606TIP3   OH223452   0.181   5.690   6.993  0.3738 -0.3937 -0.2619
  606TIP3    H123453   0.173   5.749   7.068 -1.1864 -0.8627 -0.0359
  606TIP3    H223454   0.091   5.678   6.962  0.9407 -0.6062 -1.9063
  607TIP3   OH223455   3.591   6.958   7.448 -0.7358  0.9506  0.0523
  607TIP3    H123456   3.603   6.864   7.435 -3.4957  0.1391  2.2905
  607TIP3    H223457   3.573   6.992   7.361  2.4171 -0.1076 -1.1492
  608TIP3   OH223458   6.377   4.573   8.038  0.1415  0.7626 -0.3744
  608TIP3    H123459   6.366   4.584   8.132  2.3074 -0.5385  0.1096
  608TIP3    H223460   6.334   4.649   7.999 -1.2011  1.0966  1.6071
  609TIP3   OH223461   3.923   6.860   7.412  0.2745  0.2730 -0.0378
  609TIP3    H123462   3.834   6.857   7.447 -0.1488  1.0834 -1.0060
  609TIP3    H223463   3.924   6.794   7.342  0.0691  1.1015 -0.8312
  610TIP3   OH223464   6.205   6.636   6.436  0.3223 -0.2171 -0.1944
  610TIP3    H123465   6.216   6.578   6.511 -1.3253 -0.6557 -0.2522
  610TIP3    H223466   6.250   6.590   6.364  1.7378  0.1148  0.4439
  611TIP3   OH223467   1.520   4.945   6.471 -0.6381 -0.6536 -0.5040
  611TIP3    H123468   1.458   5.006   6.511 -1.0479 -0.7290 -1.0074
  611TIP3    H223469   1.503   4.862   6.514  1.3707 -0.0194  1.7290
  612TIP3   OH223470   1.069   4.640   0.506 -0.6263  0.0157  0.1291
  612TIP3    H123471   1.153   4.680   0.484 -1.0508  0.9126  0.0747
  612TIP3    H223472   1.022   4.708   0.554 -0.8799 -0.8796  1.1949
  613TIP3   OH223473   3.996   1.119   7.687 -0.2559 -0.0862  0.0152
  613TIP3    H123474   4.053   1.133   7.611 -0.3741  1.9040  0.2523
  613TIP3    H223475   3.950   1.202   7.698 -2.4056 -1.2777  0.5225
  614TIP3   OH223476   3.433   1.778   1.735 -0.3566  0.0483 -0.5536
  614TIP3    H123477   3.395   1.690   1.736 -0.8335  0.2132  1.8377
  614TIP3    H223478   3.527   1.763   1.729 -0.4684 -0.5947 -0.8423
  615TIP3   OH223479   0.066   5.908   1.860  0.6067  0.0746  0.0321
  615TIP3    H123480   0.130   5.846   1.823 -0.3549 -0.4753 -0.7480
  615TIP3    H223481   0.100   5.994   1.835  2.1383 -0.0729  1.4107
  616TIP3   OH223482   0.452   5.882   1.280 -0.4956 -0.1214  0.2836
  616TIP3    H123483   0.492   5.947   1.222  0.9376 -3.0267 -2.2820
  616TIP3    H223484   0.390   5.835   1.223 -2.3868 -0.3187  2.3553
  617TIP3   OH223485   2.057   3.810   7.224 -0.0673  0.3448 -0.6260
  617TIP3    H123486   2.009   3.729   7.242  0.2586  0.5648  1.3964
  617TIP3    H223487   2.017   3.875   7.281  1.4915  0.9416 -0.1669
  618TIP3   OH223488   0.524   6.350   2.126 -0.5640 -0.1192 -0.4416
  618TIP3    H123489   0.494   6.398   2.049  1.6002  3.0208  0.5084
  618TIP3    H223490   0.455   6.363   2.191 -0.3340  1.1493 -0.4307
  619TIP3   OH223491   3.406   4.262   2.200 -0.4206  0.4277  0.0477
  619TIP3    H123492   3.327   4.276   2.253 -3.5636 -2.6071 -3.3177
  619TIP3    H223493   3.435   4.174   2.223  0.7308  0.6802 -0.3665
  620TIP3   OH223494   5.852   1.182   0.513  0.4867 -0.3950  0.7051
  620TIP3    H123495   5.947   1.186   0.525  0.6501 -0.7730 -0.3297
  620TIP3    H223496   5.833   1.256   0.455  0.2906 -0.9209  0.1015
  621TIP3   OH223497   3.606   5.769   6.900 -0.0764  0.1685  0.4799
  621TIP3    H123498   3.521   5.726   6.893 -0.2229  0.5636 -0.3505
  621TIP3    H223499   3.660   5.727   6.832  1.5202 -2.4966  3.1722
  622TIP3   OH223500   2.201   1.541   1.418  0.2292 -0.1844 -0.4388
  622TIP3    H123501   2.209   1.445   1.422  3.5652 -0.0167  0.7496
  622TIP3    H223502   2.263   1.567   1.349 -1.9082  1.1111 -1.9903
  623TIP3   OH223503   4.304   6.200   6.394 -0.2560 -0.2559  0.4263
  623TIP3    H123504   4.365   6.172   6.462  1.4756 -1.7496 -1.6260
  623TIP3    H223505   4.339   6.284   6.363 -0.9625  0.3496  1.1872
  624TIP3   OH223506   4.114   6.452   6.587  0.4853  0.0478 -0.1493
  624TIP3    H123507   4.049   6.494   6.643 -0.0921  0.6254 -1.2393
  624TIP3    H223508   4.146   6.522   6.530  0.2083 -0.7759 -1.3437
  625TIP3   OH223509   6.572   0.030   7.361 -0.2157  0.2978 -0.4966
  625TIP3    H123510   6.635   0.102   7.354 -0.2592  0.3367 -0.4887
  625TIP3    H223511   6.600  -0.018   7.439 -0.3717  0.4846 -0.3247
  626TIP3   OH223512   0.839   4.306   1.369  0.4354 -0.1925 -0.1336
  626TIP3    H123513   0.834   4.399   1.392  1.2282 -0.4793  1.3524
  626TIP3    H223514   0.932   4.284   1.381  0.2896 -1.1471 -0.6475
  627TIP3   OH223515   2.896   0.381   6.849 -0.8733 -0.0963 -0.2185
  627TIP3    H123516   2.984   0.398   6.882  0.1955 -1.4486 -2.1344
  627TIP3    H223517   2.860   0.316   6.910  0.5345 -1.5527 -0.8453
  628TIP3   OH223518   5.050   2.908   7.305 -0.0393  0.5881  0.2774
  628TIP3    H123519   5.114   2.899   7.234 -0.2988  1.6415 -0.1056
  628TIP3    H223520   4.969   2.932   7.261 -0.3202  0.7680  0.8875
  629TIP3   OH223521   4.317   5.147   1.338 -0.1189  0.5362  0.1707
  629TIP3    H123522   4.228   5.162   1.372  0.1571  2.7595  0.0691
  629TIP3    H223523   4.372   5.206   1.390  1.1405 -0.0302 -0.4950
  630TIP3   OH223524   6.476   5.653   0.907  0.3139 -0.1425  0.1549
  630TIP3    H123525   6.397   5.699   0.878 -0.9761 -2.0393  0.5040
  630TIP3    H223526   6.446   5.593   0.975  2.5963  1.2773  2.6268
  631TIP3   OH223527   4.939   4.743   5.821  0.0430  0.8089 -0.0019
  631TIP3    H123528   4.861   4.783   5.782 -0.8319 -0.3230  0.5061
  631TIP3    H223529   4.946   4.658   5.777  0.4753  0.5299  0.5933
  632TIP3   OH223530   6.740   2.137   0.034  0.1811  0.7720 -0.5811
  632TIP3    H123531   6.776   2.224   0.049 -0.4902  0.7706  1.3383
  632TIP3    H223532   6.650   2.142   0.066 -0.2447 -0.3175 -1.5232
  633TIP3   OH223533   5.326   4.444   6.734  0.2854 -0.4837 -0.0548
  633TIP3    H123534   5.374   4.469   6.813 -1.1558 -0.5030  0.8565
  633TIP3    H223535   5.279   4.524   6.708  1.2466 -0.2869 -1.3008
  634TIP3   OH223536   5.514   6.621   8.085  0.8981 -0.4098 -0.3801
  634TIP3    H123537   5.560   6.621   8.169  0.6765  0.0420 -0.2594
  634TIP3    H223538   5.520   6.712   8.054  2.2886 -0.8447 -1.5691
  635TIP3   OH223539   1.345   2.962   7.445 -0.4626 -0.4568 -0.4191
  635TIP3    H123540   1.295   2.956   7.527  0.2931 -1.9481 -0.0416
  635TIP3    H223541   1.432   2.992   7.472 -0.1566 -1.1353 -0.6473
  636TIP3   OH223542   0.454   2.834   7.511  0.2698  0.3894  0.1048
  636TIP3    H123543   0.469   2.926   7.530  1.2361 -0.0127  1.4093
  636TIP3    H223544   0.531   2.807   7.461 -0.3284  0.4284 -0.8702
  637TIP3   OH223545   6.230   0.941   0.846 -0.0592  0.7818  0.2039
  637TIP3    H123546   6.187   1.017   0.807  0.1060  0.3061 -0.9576
  637TIP3    H223547   6.164   0.872   0.845 -0.0904  0.7982  0.8901
  638TIP3   OH223548   2.331   1.475   1.768 -0.2338  0.1476 -0.2810
  638TIP3    H123549   2.290   1.392   1.743 -1.1912 -0.0057  1.6685
  638TIP3    H223550   2.311   1.485   1.861  0.4191  2.2648 -0.3277
  639TIP3   OH223551   7.041   6.932   0.522  0.0314 -0.3449 -0.2312
  639TIP3    H123552   6.993   6.865   0.570  0.9420  0.8020  2.4827
  639TIP3    H223553   7.097   6.883   0.461  0.1213 -2.0168  1.1228
  640TIP3   OH223554   1.877   0.983   7.517  0.1837 -0.3468  0.1014
  640TIP3    H123555   1.879   1.071   7.478  1.5187 -0.0681  0.7273
  640TIP3    H223556   1.791   0.978   7.559 -0.5371  0.0434 -1.2782
  641TIP3   OH223557   3.055   3.678   7.347 -0.2561  0.4737 -0.0159
  641TIP3    H123558   3.019   3.757   7.387  0.5622  1.6447 -1.4729
  641TIP3    H223559   3.117   3.711   7.281  0.0814 -1.3823 -0.6772
  642TIP3   OH223560   4.846   2.906   0.978 -0.0534 -0.0518 -0.4766
  642TIP3    H123561   4.921   2.916   1.037 -0.9475 -0.4198  0.7548
  642TIP3    H223562   4.861   2.972   0.910  1.1459  0.1963 -0.0017
  643TIP3   OH223563   0.580   0.754   1.749  0.2246 -0.0399 -0.0856
  643TIP3    H123564   0.652   0.799   1.793  0.0830  0.0957  0.0128
  643TIP3    H223565   0.593   0.772   1.656 -1.2778  2.4420  0.0996
  644TIP3   OH223566   6.037   1.794   0.985 -0.4851  0.2283 -0.2115
  644TIP3    H123567   6.083   1.772   1.066 -1.0059 -2.3998 -0.5495
  644TIP3    H223568   5.998   1.880   1.003  3.2678  2.0315  0.5720
  645TIP3   OH223569   1.519   0.980   7.243  0.3395 -0.4689 -0.7102
  645TIP3    H123570   1.605   0.947   7.217  0.3283 -0.1905 -1.1082
  645TIP3    H223571   1.518   1.071   7.214 -0.5686 -0.8255 -1.9007
  646TIP3   OH223572   1.499   2.240   7.336 -0.4517 -0.5711  0.0303
  646TIP3    H123573   1.461   2.177   7.397  0.5802 -1.8881 -0.6288
  646TIP3    H223574   1.577   2.273   7.381 -1.7163  1.3898  0.9692
  647TIP3   OH223575   6.949   1.004   1.174 -0.0820 -0.3124  0.6271
  647TIP3    H123576   6.940   1.079   1.232 -2.9890  0.2009 -0.2862
  647TIP3    H223577   6.933   1.039   1.086  1.8931 -1.4527 -0.2478
  648TIP3   OH223578   6.273   1.962   2.507  0.5120  0.5558  0.2632
  648TIP3    H123579   6.322   2.044   2.515 -0.0238  0.8676  0.3716
  648TIP3    H223580   6.202   1.970   2.571  0.8495 -0.2740  0.7591
  649TIP3   OH223581   3.067   6.794   6.388 -0.0440  0.4272 -0.3163
  649TIP3    H123582   3.073   6.886   6.364  0.1919  0.2108 -1.1395
  649TIP3    H223583   3.091   6.747   6.308  1.4289 -0.3448  0.5420
  650TIP3   OH223584   1.811   2.242   1.860 -0.1008 -0.0844 -0.4876
  650TIP3    H123585   1.795   2.153   1.891 -0.9663  0.1374 -0.2681
  650TIP3    H223586   1.820   2.295   1.939 -1.1308  0.2744 -0.5842
  651TIP3   OH223587   4.865   0.587   7.670 -0.3988  0.7530  0.1728
  651TIP3    H123588   4.801   0.551   7.608 -0.5591  0.0318  0.7418
  651TIP3    H223589   4.950   0.560   7.634 -0.5522 -2.1541  1.6710
  652TIP3   OH223590   2.865   7.030   0.015  0.3018  0.5170 -0.2033
  652TIP3    H123591   2.882   6.936   0.022 -0.4425  0.3865 -0.1096
  652TIP3    H223592   2.949   7.071   0.035  0.3549 -0.0907  0.8902
  653TIP3   OH223593   5.276   1.241   7.271 -0.0934 -0.4586  0.1510
  653TIP3    H123594   5.268   1.146   7.271 -1.0611 -0.3959 -0.3789
  653TIP3    H223595   5.186   1.272   7.266  0.2247  0.4851  0.0786
  654TIP3   OH223596   0.392   4.925   1.072  0.1444 -0.2054  0.2785
  654TIP3    H123597   0.440   4.851   1.035 -0.4344  0.5651 -2.1647
  654TIP3    H223598   0.300   4.902   1.061 -0.0584  1.3501 -1.6526
  655TIP3   OH223599   3.150   1.604   7.867 -0.0311  0.6282  0.5604
  655TIP3    H123600   3.067   1.621   7.912 -0.4637  2.2791 -0.7819
  655TIP3    H223601   3.190   1.690   7.855  0.6305  0.1318 -1.0998
  656TIP3   OH223602   5.148   6.342   8.252  0.2773  0.2476 -0.1973
  656TIP3    H123603   5.217   6.277   8.238  0.5432  0.4678  0.0629
  656TIP3    H223604   5.069   6.301   8.217  0.0659 -0.9861  1.5370
  657TIP3   OH223605   4.765   6.857   0.792  0.2007 -0.2732 -0.4380
  657TIP3    H123606   4.729   6.908   0.864 -0.0183  0.9921 -1.3883
  657TIP3    H223607   4.801   6.779   0.833 -0.5715  0.0564  0.9380
  658TIP3   OH223608   3.953   5.488   0.090 -0.5962  0.0532  0.0405
  658TIP3    H123609   4.023   5.470   0.027 -0.1086 -2.2421  1.1040
  658TIP3    H223610   3.892   5.415   0.078 -1.5788  0.7427  0.7710
  659TIP3   OH223611   4.161   5.221   6.650  0.0311 -0.2714  0.6094
  659TIP3    H123612   4.245   5.245   6.610  0.0599 -3.3300 -1.5073
  659TIP3    H223613   4.184   5.187   6.736  0.9062 -0.4762  0.3051
  660TIP3   OH223614   1.543   0.412   0.839  0.0577  0.3789 -1.1595
  660TIP3    H123615   1.565   0.498   0.803  1.0718  0.4833 -0.2928
  660TIP3    H223616   1.448   0.417   0.855  0.1091  1.3322 -1.1026
  661TIP3   OH223617   3.620   5.561   6.413  0.0996  0.0593  0.1894
  661TIP3    H123618   3.532   5.542   6.380  0.1342  0.1145  0.0648
  661TIP3    H223619   3.606   5.617   6.489 -0.1649 -2.5235  2.1907
  662TIP3   OH223620   1.191   5.129   6.762  0.0589 -0.1153 -0.3365
  662TIP3    H123621   1.227   5.210   6.797  0.1472  0.6446 -2.0838
  662TIP3    H223622   1.241   5.113   6.682 -2.9448  0.6557 -2.5564
  663TIP3   OH223623   1.837   2.948   7.518 -0.6036 -0.1154 -0.1601
  663TIP3    H123624   1.916   2.989   7.554  0.6576 -2.0422 -0.5803
  663TIP3    H223625   1.848   2.855   7.535 -2.4693 -0.5152 -0.8813
  664TIP3   OH223626   5.479   0.877   1.646 -0.0223 -0.6464 -0.2599
  664TIP3    H123627   5.388   0.906   1.648  0.5635  1.3237 -0.2984
  664TIP3    H223628   5.505   0.873   1.738  0.3516  0.5877 -0.2904
  665TIP3   OH223629   0.206   1.331   7.620  0.0412  0.3498  0.0535
  665TIP3    H123630   0.162   1.381   7.689  0.1034  0.3844  0.0685
  665TIP3    H223631   0.258   1.396   7.573 -0.5618  0.4490 -0.4771
  666TIP3   OH223632   4.213   4.779   7.196 -0.4412  0.4360 -0.5504
  666TIP3    H123633   4.119   4.771   7.210 -0.3251  0.3625  0.2804
  666TIP3    H223634   4.252   4.729   7.268  0.2272 -0.5837 -1.5960
  667TIP3   OH223635   4.834   4.028   1.470 -0.0988  0.4745  0.1107
  667TIP3    H123636   4.811   4.098   1.532 -1.4391 -0.5614  0.8379
  667TIP3    H223637   4.923   4.002   1.495  0.8761  2.5736 -0.8555
  668TIP3   OH223638   3.783   1.296   0.983  0.3491  0.4384  0.5169
  668TIP3    H123639   3.802   1.244   0.905 -2.1522  1.3789 -0.8192
  668TIP3    H223640   3.697   1.264   1.012  0.2423  1.6268  1.5741
  669TIP3   OH223641   3.428   6.951   8.035 -0.3547  0.0496 -0.2317
  669TIP3    H123642   3.395   7.033   7.997  0.1935  0.7003  0.6642
  669TIP3    H223643   3.453   6.898   7.959  2.1216  1.8940 -0.8359
  670TIP3   OH223644   2.991   0.349   0.565 -0.0866  0.3701 -0.2690
  670TIP3    H123645   2.896   0.335   0.574 -0.0213 -0.2353 -0.5128
  670TIP3    H223646   3.004   0.362   0.471  0.5532 -3.4136 -0.8607
  671TIP3   OH223647   3.409   5.615   6.575  0.1994  0.1407 -0.0870
  671TIP3    H123648   3.331   5.558   6.571  1.3751 -1.7496  1.8055
  671TIP3    H223649   3.392   5.683   6.509 -3.5264  0.4563  0.9533
  672TIP3   OH223650   0.067   4.338   7.732  0.5802  0.0719  0.3260
  672TIP3    H123651  -0.028   4.344   7.720  0.6347  0.0894 -0.1122
  672TIP3    H223652   0.086   4.397   7.805  0.3427  0.6316 -0.0562
  673TIP3   OH223653   6.468   0.495   7.938  0.0445  0.5738  0.9155
  673TIP3    H123654   6.444   0.432   7.870 -1.5399  0.9067  1.1355
  673TIP3    H223655   6.462   0.446   8.020 -0.6412  0.8490  1.0366
  674TIP3   OH223656   6.601   3.773   7.766 -0.0545  0.0794 -0.3737
  674TIP3    H123657   6.621   3.794   7.674  0.6175 -1.8626 -0.7199
  674TIP3    H223658   6.562   3.686   7.763 -0.0806  0.0062  1.1808
  675TIP3   OH223659   3.836   5.271   6.307 -0.2518 -0.1936 -0.3395
  675TIP3    H123660   3.819   5.177   6.306  3.3754 -1.0116 -1.8050
  675TIP3    H223661   3.882   5.286   6.389 -3.1637  0.9844  1.2259
  676TIP3   OH223662   3.344   4.561   1.542 -0.0248 -0.6122 -0.0683
  676TIP3    H123663   3.329   4.483   1.488 -0.8351 -0.3173 -0.2876
  676TIP3    H223664   3.258   4.580   1.580  0.5271 -0.7866  1.2992
  677TIP3   OH223665   0.045   4.794   7.244 -0.1309  0.7619 -0.0278
  677TIP3    H123666   0.005   4.878   7.263 -2.3821  0.4660 -2.7947
  677TIP3    H223667  -0.027   4.731   7.250  0.2722 -0.1554 -2.8963
  678TIP3   OH223668   6.013   3.546   7.215 -0.2083 -0.3459 -0.7376
  678TIP3    H123669   6.094   3.539   7.265 -0.4264  1.7815  0.0229
  678TIP3    H223670   6.028   3.494   7.136  1.4168 -0.9793 -0.0392
  679TIP3   OH223671   2.813   3.116   1.040  0.3052  0.6337 -0.2614
  679TIP3    H123672   2.739   3.127   1.100 -0.6608 -0.8211 -1.1095
  679TIP3    H223673   2.847   3.204   1.026 -1.1620  1.3123  0.2938
  680TIP3   OH223674   5.609   5.263   7.985  0.2378  0.1435  0.1429
  680TIP3    H123675   5.565   5.300   7.908 -1.3036 -1.9356 -0.0650
  680TIP3    H223676   5.569   5.308   8.060 -0.5658 -0.0527 -0.1597
  681TIP3   OH223677   3.311   4.143   7.797 -0.2476  0.6557  0.0578
  681TIP3    H123678   3.233   4.098   7.830  1.1031 -1.1024  1.0687
  681TIP3    H223679   3.368   4.152   7.873  1.8050 -0.9345 -1.1738
  682TIP3   OH223680   2.745   0.688   7.254 -0.4841 -0.0743 -0.2305
  682TIP3    H123681   2.707   0.611   7.213  0.1747 -0.5042 -0.0352
  682TIP3    H223682   2.792   0.655   7.330 -0.7092  0.5873  0.2138
  683TIP3   OH223683   7.080   7.044   7.946 -0.1940  0.1394 -0.1834
  683TIP3    H123684   7.032   7.079   8.021  0.0223 -0.7564  0.3955
  683TIP3    H223685   7.025   7.064   7.870 -1.2550 -0.4246  0.4115
  684TIP3   OH223686   4.142   2.521   1.791  0.0829 -0.4475 -0.5389
  684TIP3    H123687   4.183   2.434   1.783  2.3103  0.6192 -1.7959
  684TIP3    H223688   4.201   2.579   1.742 -1.2658  1.8145  0.3955
  685TIP3   OH223689   2.836   4.823   1.345  0.7454 -0.0948  0.8737
  685TIP3    H123690   2.854   4.772   1.424  1.5556 -1.7004 -0.2965
  685TIP3    H223691   2.918   4.866   1.323  0.7711 -0.3723  0.4102
  686TIP3   OH223692   4.333   3.888   6.677 -0.4390  0.2721  0.1171
  686TIP3    H123693   4.417   3.849   6.702  0.0286  1.1121 -0.1069
  686TIP3    H223694   4.293   3.912   6.760 -0.0957  0.5841  0.1984
  687TIP3   OH223695   7.050   5.155   8.201 -0.3516  0.0414 -0.5141
  687TIP3    H123696   7.100   5.083   8.239  0.6769 -0.0860 -2.0191
  687TIP3    H223697   7.027   5.211   8.276  1.8468 -0.0189  0.2631
  688TIP3   OH223698   4.244   2.426   1.052  0.1944 -0.3611  0.2078
  688TIP3    H123699   4.154   2.458   1.063  1.0536  2.3028  0.2584
  688TIP3    H223700   4.237   2.357   0.987 -1.5728  1.9493 -2.2888
  689TIP3   OH223701   2.921   7.058   2.187  0.5143 -0.2161  0.0052
  689TIP3    H123702   2.895   6.966   2.188 -1.0756  0.1332 -1.8267
  689TIP3    H223703   2.993   7.061   2.123 -0.2057 -0.0370 -0.8097
  690TIP3   OH223704   5.823   4.204   0.045  0.4587  0.0284  0.4648
  690TIP3    H123705   5.791   4.166   0.127  0.5596  1.5461  1.2426
  690TIP3    H223706   5.889   4.268   0.072 -0.4584  1.5238 -0.7064
  691TIP3   OH223707   6.820   4.910   0.254  0.2617  0.2293 -0.1475
  691TIP3    H123708   6.908   4.876   0.236  0.2786  0.3728 -0.3416
  691TIP3    H223709   6.791   4.862   0.331  2.4181  3.5067  3.0106
  692TIP3   OH223710   1.832   2.320   7.207  0.1918  0.0185 -0.4657
  692TIP3    H123711   1.765   2.358   7.264 -0.3586 -0.6159 -0.6743
  692TIP3    H223712   1.854   2.237   7.249 -0.4863 -0.6244 -1.3590
  693TIP3   OH223713   2.381   6.375   6.636 -0.0030  0.6828  0.2936
  693TIP3    H123714   2.418   6.420   6.561 -1.8041  0.8269 -0.5504
  693TIP3    H223715   2.437   6.400   6.710  2.5555 -0.4264 -1.1385
  694TIP3   OH223716   0.264   5.361   0.874  0.0804  0.2938  0.5187
  694TIP3    H123717   0.211   5.309   0.935 -0.2065  0.4901  0.4374
  694TIP3    H223718   0.279   5.302   0.800 -0.9884  0.6094  0.0308
  695TIP3   OH223719   2.594   6.568   0.454 -0.3321  0.1986 -0.0192
  695TIP3    H123720   2.652   6.630   0.497  0.7208 -0.4314 -0.5008
  695TIP3    H223721   2.608   6.581   0.360  0.2525 -1.0668 -0.1258
  696TIP3   OH223722   6.708   6.735   7.315 -0.0253 -0.9182 -0.1995
  696TIP3    H123723   6.653   6.788   7.257 -1.2049 -1.2662  0.5913
  696TIP3    H223724   6.750   6.672   7.256 -1.7179 -1.6967 -0.6313
  697TIP3   OH223725   1.541   3.756   0.964  0.0403  0.1526 -0.0289
  697TIP3    H123726   1.458   3.712   0.983 -0.6645  0.5113 -2.0098
  697TIP3    H223727   1.598   3.685   0.932 -0.0589  0.1660 -0.2387
  698TIP3   OH223728   3.510   5.984   0.793  0.4335  0.4433  0.7190
  698TIP3    H123729   3.538   5.893   0.797 -0.5541  0.1195  0.3339
  698TIP3    H223730   3.573   6.025   0.733  0.4121 -0.1525  0.2838
  699TIP3   OH223731   6.938   5.309   0.283 -0.4059 -0.0270  0.0369
  699TIP3    H123732   6.971   5.376   0.223  0.7297 -2.8103 -2.7587
  699TIP3    H223733   7.010   5.295   0.344 -0.2420  0.6019 -0.0066
  700TIP3   OH223734   6.192   1.512   6.866  0.6468  0.0018 -0.7758
  700TIP3    H123735   6.203   1.607   6.866 -0.5660  0.1814 -2.1037
  700TIP3    H223736   6.221   1.485   6.779  1.5671 -0.9392 -0.1948
  701TIP3   OH223737   1.363   2.673   0.210  0.1968 -0.4519 -0.2387
  701TIP3    H123738   1.310   2.594   0.198 -0.2638  0.0089 -1.3472
  701TIP3    H223739   1.303   2.737   0.248  0.0879 -0.1007 -0.9807
  702TIP3   OH223740   0.750   5.000   0.725 -0.5174  0.5853  0.2145
  702TIP3    H123741   0.685   4.932   0.741  1.4737 -1.5557 -0.1683
  702TIP3    H223742   0.720   5.043   0.645 -1.7909  0.1296  0.4195
  703TIP3   OH223743   0.796   2.471   8.078 -0.2088  0.0913 -0.3315
  703TIP3    H123744   0.838   2.520   8.149 -1.1430 -0.7171  0.8107
  703TIP3    H223745   0.755   2.396   8.121 -0.2922 -0.7570 -1.8125
  704TIP3   OH223746   4.336   6.057   0.086 -0.4196  0.0323 -0.2579
  704TIP3    H123747   4.326   6.016   0.001  1.7242 -3.5508  0.9865
  704TIP3    H223748   4.265   6.021   0.139 -0.5654  0.6754 -0.0022
  705TIP3   OH223749   1.182   1.829   0.841 -0.2622  0.0004  0.8264
  705TIP3    H123750   1.232   1.905   0.811  1.0398  0.2250  3.2823
  705TIP3    H223751   1.247   1.760   0.850 -1.4041 -1.4456 -1.1732
  706TIP3   OH223752   2.911   3.395   0.743 -0.1448 -0.6758  0.1427
  706TIP3    H123753   2.875   3.341   0.813  0.5425  0.1436  1.1480
  706TIP3    H223754   2.841   3.457   0.722  0.3755  0.4760  1.6276
  707TIP3   OH223755   5.703   3.820   0.347 -0.0876 -0.4588 -0.2018
  707TIP3    H123756   5.763   3.749   0.367  0.7691  0.8341  2.1105
  707TIP3    H223757   5.624   3.801   0.398 -0.5316 -0.6012 -0.9160
  708TIP3   OH223758   3.737   3.083   7.831 -0.5286 -0.3741  0.6899
  708TIP3    H123759   3.738   2.992   7.801 -1.2185 -0.8773  2.1256
  708TIP3    H223760   3.744   3.134   7.750  1.0420 -1.6823 -0.0774
  709TIP3   OH223761   5.947   0.240   7.918 -0.2704 -0.2064  0.0057
  709TIP3    H123762   5.908   0.240   8.005  0.0695 -0.2822  0.1613
  709TIP3    H223763   5.930   0.152   7.884 -2.4110  0.5055 -0.9323
  710TIP3   OH223764   4.869   0.261   0.846 -0.5644 -0.3524  0.6105
  710TIP3    H123765   4.893   0.349   0.873  0.4884 -0.9314  1.6360
  710TIP3    H223766   4.932   0.238   0.779 -1.1504 -0.1548 -0.0227
  711TIP3   OH223767   2.611   0.515   7.030  0.2375 -0.0260  0.0198
  711TIP3    H123768   2.683   0.494   6.971 -0.7378  1.7388 -1.9176
  711TIP3    H223769   2.532   0.493   6.981 -0.5962 -0.3171  1.4388
  712TIP3   OH223770   0.086   1.825   7.747 -0.5189  0.0247 -0.2027
  712TIP3    H123771   0.127   1.853   7.828 -1.1810  0.1490  0.0974
  712TIP3    H223772   0.018   1.890   7.730  1.2441  1.4511 -2.2272
  713TIP3   OH223773   4.617   5.137   0.483 -0.8579 -0.5516  0.1745
  713TIP3    H123774   4.693   5.087   0.454 -0.6586 -0.4802  0.5603
  713TIP3    H223775   4.588   5.185   0.406  1.6520  2.2649  0.7517
  714TIP3   OH223776   1.871   1.198   7.002 -0.5891 -0.0836 -0.1607
  714TIP3    H123777   1.807   1.130   7.027 -0.1931 -1.2700 -2.1717
  714TIP3    H223778   1.879   1.190   6.907  1.5068  0.9857 -0.1323
  715TIP3   OH223779   1.327   1.851   1.674  0.5146  0.3752  0.2102
  715TIP3    H123780   1.309   1.801   1.594 -0.3650 -0.3704  0.8447
  715TIP3    H223781   1.422   1.856   1.678  0.5738  0.4099 -0.8751
  716TIP3   OH223782   0.626   1.070   0.523 -0.4440  0.1772  0.0718
  716TIP3    H123783   0.565   1.104   0.457 -0.4501  1.9602  0.9542
  716TIP3    H223784   0.569   1.038   0.593 -0.4133 -0.9353 -0.3904
  717TIP3   OH223785   2.853   4.777   2.083 -0.1263 -0.2486 -0.2980
  717TIP3    H123786   2.895   4.842   2.140 -2.2883  1.5410 -0.6104
  717TIP3    H223787   2.922   4.751   2.022  1.0036  1.2930  0.2539
  718TIP3   OH223788   3.181   2.062   0.044  0.1688  0.3907  0.3884
  718TIP3    H123789   3.134   2.113  -0.022  0.3678  0.0195 -0.0488
  718TIP3    H223790   3.112   2.017   0.092  0.0580 -0.1864 -0.2793
  719TIP3   OH223791   4.252   5.222   1.069 -0.1910 -0.0878 -0.1995
  719TIP3    H123792   4.157   5.229   1.077 -0.0954 -0.1249  1.2030
  719TIP3    H223793   4.279   5.175   1.148  0.9535 -0.4442 -0.7847
  720TIP3   OH223794   3.668   3.551   6.170 -0.0302 -0.5944  0.6294
  720TIP3    H123795   3.747   3.529   6.120 -1.1061 -0.0994 -1.4259
  720TIP3    H223796   3.700   3.584   6.253  1.9654  0.3723 -0.4620
  721TIP3   OH223797   1.291   5.054   8.176  0.1073 -0.1866 -0.5593
  721TIP3    H123798   1.351   5.063   8.250 -0.6061  0.7200 -0.0557
  721TIP3    H223799   1.247   4.970   8.190  1.2016 -0.8301 -0.9054
  722TIP3   OH223800   3.899   6.558   6.746 -0.0603  0.3542 -0.0458
  722TIP3    H123801   3.861   6.577   6.661 -2.1676 -1.8700  0.3003
  722TIP3    H223802   3.871   6.631   6.801 -3.0322 -0.5888 -0.1163
  723TIP3   OH223803   5.931   2.415   6.565 -0.2560  0.3765 -0.0866
  723TIP3    H123804   5.938   2.353   6.492 -0.3828  0.6416 -0.3253
  723TIP3    H223805   5.918   2.500   6.523 -1.6299  0.3649  0.2639
  724TIP3   OH223806   0.784   3.591   6.648 -0.0728  0.4758  0.1700
  724TIP3    H123807   0.758   3.521   6.708  0.6670 -0.6778 -0.8152
  724TIP3    H223808   0.858   3.555   6.599 -0.0337  1.7456 -0.7568
  725TIP3   OH223809   1.870   6.269   0.094 -0.1026  0.6259  0.1381
  725TIP3    H123810   1.872   6.354   0.051  1.7746  0.1295 -0.8538
  725TIP3    H223811   1.779   6.239   0.084  0.1181  0.7178 -3.2030
  726TIP3   OH223812   6.658   0.430   1.583 -0.1033 -0.1454  0.2332
  726TIP3    H123813   6.587   0.430   1.519 -1.6915 -1.2596  1.9260
  726TIP3    H223814   6.731   0.472   1.537 -2.4946  3.2632 -0.8180
  727TIP3   OH223815   5.314   5.130   8.011 -0.0420  0.0281  0.3681
  727TIP3    H123816   5.311   5.214   8.056 -0.9284 -0.5692  1.4854
  727TIP3    H223817   5.283   5.067   8.076 -1.5888 -0.8515 -1.1265
  728TIP3   OH223818   3.097   1.922   7.073 -0.1401  0.4030 -0.6908
  728TIP3    H123819   3.087   1.998   7.130  0.2844 -0.0272 -0.0269
  728TIP3    H223820   3.058   1.850   7.123 -0.2483  0.1188 -1.1780
  729TIP3   OH223821   6.424   0.370   1.374 -0.2724 -0.4377  0.5550
  729TIP3    H123822   6.399   0.284   1.340  0.4761 -1.0628  1.5399
  729TIP3    H223823   6.386   0.373   1.462  3.0598 -1.5121  2.1987
  730TIP3   OH223824   0.115   6.430   2.006 -0.2404 -0.1989  0.3618
  730TIP3    H123825   0.041   6.482   2.036 -0.3510  0.9318 -1.7170
  730TIP3    H223826   0.139   6.468   1.921  2.2778 -0.9598  0.6406
  731TIP3   OH223827   2.458   4.649   0.171 -0.6085 -0.2240  0.7544
  731TIP3    H123828   2.371   4.670   0.136 -1.3199 -1.7280  1.4911
  731TIP3    H223829   2.452   4.672   0.264  0.7051  2.1680  0.3013
  732TIP3   OH223830   2.179   3.830   1.058  0.2117 -0.0157  0.5924
  732TIP3    H123831   2.140   3.797   1.139 -0.3433 -0.5294  0.1274
  732TIP3    H223832   2.272   3.835   1.077  0.3297 -1.8257  0.7140
  733TIP3   OH223833   2.433   2.174   7.114 -0.1840  0.4614 -0.1684
  733TIP3    H123834   2.441   2.111   7.186  0.3511  1.2385  0.4718
  733TIP3    H223835   2.513   2.227   7.118 -1.0209  1.7866 -0.0795
  734TIP3   OH223836   0.184   5.892   6.458  0.4491  0.3208 -0.5395
  734TIP3    H123837   0.167   5.816   6.513  0.6410  0.6481 -0.0214
  734TIP3    H223838   0.250   5.942   6.506  0.8760  0.4322 -1.2322
  735TIP3   OH223839   1.241   3.402   1.898 -0.0343 -0.1456 -0.4540
  735TIP3    H123840   1.204   3.410   1.986 -1.5091  1.7631 -1.1638
  735TIP3    H223841   1.326   3.360   1.911 -0.1669  0.1809  1.8879
  736TIP3   OH223842   1.289   1.720   0.012 -0.3697  0.4277 -0.3347
  736TIP3    H123843   1.297   1.677   0.097 -0.2785  1.2454  0.0761
  736TIP3    H223844   1.373   1.704  -0.031 -0.0237  0.8859  0.1497
  737TIP3   OH223845   5.919   4.759   6.749 -0.0835 -1.1093  0.4224
  737TIP3    H123846   5.940   4.814   6.825  0.7695  1.4709 -1.5236
  737TIP3    H223847   5.987   4.692   6.749  2.3692  1.1977 -0.1371
  738TIP3   OH223848   4.224   0.723   1.440  0.0919 -0.3181  0.3686
  738TIP3    H123849   4.281   0.648   1.427  1.2155  0.5201  0.2571
  738TIP3    H223850   4.186   0.710   1.527  0.2887 -0.9893  0.3565
  739TIP3   OH223851   2.298   5.670   0.673 -0.2734  0.3260  0.2809
  739TIP3    H123852   2.389   5.654   0.650 -0.0082  1.8712  0.1459
  739TIP3    H223853   2.293   5.656   0.767 -0.0594 -0.3647  0.1989
  740TIP3   OH223854   1.398   2.621   6.633 -0.4134  0.1529 -0.5161
  740TIP3    H123855   1.419   2.710   6.662 -1.7425  0.0486  0.8855
  740TIP3    H223856   1.332   2.633   6.565  0.2639  0.2650 -1.1671
  741TIP3   OH223857   0.916   2.189   0.195  0.2780 -0.7768  0.8577
  741TIP3    H123858   0.907   2.094   0.207  0.7822 -1.1431 -1.2017
  741TIP3    H223859   0.827   2.222   0.202  0.0034 -1.4990  0.9272
  742TIP3   OH223860   2.388   6.133   6.492  0.3809 -0.3031  0.0664
  742TIP3    H123861   2.364   6.219   6.458  2.0492  0.0580 -0.2856
  742TIP3    H223862   2.444   6.095   6.424 -1.4627 -2.3057 -0.4493
  743TIP3   OH223863   4.737   1.107   7.797  0.0161 -0.0768  0.7240
  743TIP3    H123864   4.726   1.019   7.761 -0.5598  0.1459  0.3569
  743TIP3    H223865   4.753   1.163   7.721 -1.5772  0.4579  0.7461
  744TIP3   OH223866   1.244   4.564   7.729 -0.0149 -0.0935  0.2078
  744TIP3    H123867   1.156   4.525   7.727  0.4281 -1.1327  0.5666
  744TIP3    H223868   1.232   4.645   7.780 -0.5718 -0.7416  1.1511
  745TIP3   OH223869   6.263   0.319   2.621 -0.3261 -0.8551  0.3739
  745TIP3    H123870   6.311   0.246   2.661  0.1416  0.3657  2.1836
  745TIP3    H223871   6.321   0.349   2.551  0.2914 -1.1315  0.7490
  746TIP3   OH223872   4.782   2.811   7.798 -0.8331  0.1161 -0.0222
  746TIP3    H123873   4.696   2.834   7.764 -0.0118 -0.1120 -2.4887
  746TIP3    H223874   4.843   2.868   7.750  0.7072 -2.6935 -1.7299
  747TIP3   OH223875   0.639   2.149   0.920  0.4176 -0.5934  0.6953
  747TIP3    H123876   0.621   2.217   0.984  1.1571  0.0892  0.1904
  747TIP3    H223877   0.554   2.109   0.903 -0.4274  1.6070 -0.5954
  748TIP3   OH223878   1.293   5.004   6.206  0.0891  0.3588 -0.0234
  748TIP3    H123879   1.363   5.068   6.217  1.2541 -0.8863  0.0584
  748TIP3    H223880   1.244   5.035   6.130  0.2915  1.6349  0.3499
  749TIP3   OH223881   2.704   5.677   0.414 -0.5485  0.6973  0.1735
  749TIP3    H123882   2.773   5.742   0.420  2.2744 -2.0846  0.5064
  749TIP3    H223883   2.696   5.658   0.320 -0.0599  0.2606  0.2168
  750TIP3   OH223884   4.405   4.195   6.052 -0.0861 -0.7376 -0.3060
  750TIP3    H123885   4.366   4.242   5.978 -0.5082 -0.6880 -0.0560
  750TIP3    H223886   4.450   4.263   6.102 -1.6926 -0.3436  0.7146
  751TIP3   OH223887   2.725   3.785   0.383  0.3405 -0.3074  0.5755
  751TIP3    H123888   2.768   3.702   0.363  0.6331  0.1552 -0.8030
  751TIP3    H223889   2.774   3.850   0.333 -0.7273  0.4988  0.5500
  752TIP3   OH223890   5.696   6.597   0.980 -0.1066  0.4812  0.3431
  752TIP3    H123891   5.658   6.646   1.053  1.0482  1.8977  0.0490
  752TIP3    H223892   5.633   6.526   0.963 -2.7906  2.7899 -0.2748
  753TIP3   OH223893   5.790   5.147   2.083  0.4544 -0.5553  0.0893
  753TIP3    H123894   5.799   5.221   2.143  0.2016 -1.9813  1.9572
  753TIP3    H223895   5.739   5.182   2.010  1.7082  1.5249  0.1477
  754TIP3   OH223896   4.575   6.114   1.698 -1.1186 -0.6153  0.1277
  754TIP3    H123897   4.578   6.129   1.793 -1.5308 -0.0998  0.0630
  754TIP3    H223898   4.665   6.091   1.675 -0.7491  0.4790  0.4460
  755TIP3   OH223899   3.332   3.297   6.445  0.2623 -0.3531  0.0374
  755TIP3    H123900   3.275   3.227   6.413  1.3921 -2.1218  1.6634
  755TIP3    H223901   3.284   3.337   6.517 -0.5477  0.8688 -1.1372
  756TIP3   OH223902   1.381   2.046   7.478  0.5118 -0.2966 -0.4119
  756TIP3    H123903   1.327   2.014   7.406 -1.6679  0.8366  0.6370
  756TIP3    H223904   1.443   1.975   7.494 -1.2663 -2.0867 -1.0576
  757TIP3   OH223905   5.851   1.826   1.319 -0.5268  0.0768 -0.5467
  757TIP3    H123906   5.764   1.840   1.283 -1.0056 -0.9508  0.1600
  757TIP3    H223907   5.906   1.890   1.275 -1.7247  1.0544 -0.6797
  758TIP3   OH223908   5.180   4.466   8.248 -0.3901 -0.3723 -0.1100
  758TIP3    H123909   5.253   4.405   8.261 -1.0886 -1.4600 -1.1322
  758TIP3    H223910   5.141   4.476   8.335  0.3174 -0.6285  0.2369
  759TIP3   OH223911   0.932   6.968   1.786 -0.6050 -1.3672 -0.1631
  759TIP3    H123912   0.937   6.983   1.691 -0.4185 -0.2826  0.0040
  759TIP3    H223913   0.978   6.885   1.800  1.1012 -0.5798 -0.7981
  760TIP3   OH223914   7.011   5.225   6.584 -0.2265 -0.3121  0.4316
  760TIP3    H123915   6.925   5.265   6.576  0.5682  1.6892  1.2576
  760TIP3    H223916   7.028   5.222   6.678 -0.3168 -2.9028  0.4531
  761TIP3   OH223917   4.329   4.785   6.268  0.0102 -0.1182 -0.1453
  761TIP3    H123918   4.311   4.810   6.177 -0.2996  1.7624  0.3918
  761TIP3    H223919   4.257   4.823   6.318  0.0853 -1.2832  0.8881
  762TIP3   OH223920   3.508   2.094   1.592 -0.4972 -0.0613 -0.0648
  762TIP3    H123921   3.488   2.101   1.686 -1.9149 -0.8546 -0.2842
  762TIP3    H223922   3.602   2.073   1.589  0.0616  1.9594  1.0861
  763TIP3   OH223923   4.356   4.864   0.866  0.6700 -0.5163  0.0383
  763TIP3    H123924   4.307   4.795   0.911 -0.9316  0.9539  0.6822
  763TIP3    H223925   4.294   4.898   0.801  0.9893  1.0522  0.5191
  764TIP3   OH223926   0.317   6.026   6.693 -0.3570  0.2347  0.1645
  764TIP3    H123927   0.259   6.045   6.767  0.5676 -1.2308  1.3272
  764TIP3    H223928   0.375   6.101   6.688 -1.1173  0.8358  0.2193
  765TIP3   OH223929   6.682   5.935   6.035 -0.0074 -0.6079  0.0471
  765TIP3    H123930   6.598   5.935   5.990  0.1350 -0.4891 -0.2194
  765TIP3    H223931   6.735   5.998   5.987 -0.2416  0.4217  1.0958
  766TIP3   OH223932   5.164   3.177   7.880  0.2296  0.3984  0.2891
  766TIP3    H123933   5.221   3.199   7.806  0.4376 -2.2482 -0.4135
  766TIP3    H223934   5.204   3.100   7.920 -2.1764 -0.8314  0.5027
  767TIP3   OH223935   0.953   4.494   0.709 -0.2344  0.2260 -0.0544
  767TIP3    H123936   1.007   4.521   0.635  0.1136  0.2913  0.2234
  767TIP3    H223937   0.880   4.555   0.709  0.2053  0.7540  0.1706
  768TIP3   OH223938   6.271   4.528   0.564 -0.3923  0.2535 -0.1607
  768TIP3    H123939   6.242   4.604   0.513  0.6656  1.2306  0.6220
  768TIP3    H223940   6.208   4.523   0.637 -1.1113 -0.3112 -0.8136
  769TIP3   OH223941   6.284   1.806   1.519  0.3368  0.0919  0.2330
  769TIP3    H123942   6.235   1.723   1.513 -1.9461  1.4586 -1.3983
  769TIP3    H223943   6.329   1.800   1.604  0.0901 -2.6953  0.2846
  770TIP3   OH223944   2.634   5.846   1.354  0.0283  0.5235  0.4544
  770TIP3    H123945   2.581   5.825   1.278  0.0569  0.8216  0.3481
  770TIP3    H223946   2.657   5.762   1.393  2.9961  0.0706 -1.8667
  771TIP3   OH223947   4.590   5.541   6.500  0.0041  0.2281 -0.5261
  771TIP3    H123948   4.603   5.622   6.549 -2.0113 -0.2129  0.8703
  771TIP3    H223949   4.544   5.569   6.420  0.4802  0.5844 -0.6831
  772TIP3   OH223950   1.684   1.273   7.387 -0.4971 -0.1607  0.1682
  772TIP3    H123951   1.609   1.246   7.334 -0.0103  0.2985 -0.7783
  772TIP3    H223952   1.757   1.219   7.354 -0.2065  0.0784  0.4155
  773TIP3   OH223953   6.779   2.775   0.527 -0.6209  0.0585 -0.1797
  773TIP3    H123954   6.838   2.766   0.453  1.5233 -0.0564  1.4487
  773TIP3    H223955   6.775   2.869   0.544 -0.5282  0.0352 -0.0195
  774TIP3   OH223956   5.025   5.296   7.285 -0.4425 -0.0626 -0.3622
  774TIP3    H123957   5.118   5.278   7.275  0.0979  1.6716  1.0239
  774TIP3    H223958   4.985   5.209   7.293  1.1502 -0.8183 -0.1331
  775TIP3   OH223959   2.937   1.293   0.286  0.3513  0.2532  0.3648
  775TIP3    H123960   2.853   1.275   0.245  0.5160 -0.1970  0.2152
  775TIP3    H223961   2.993   1.322   0.214  0.4998 -0.0541  0.3546
  776TIP3   OH223962   3.760   5.442   0.756 -1.0044  0.0501  0.2124
  776TIP3    H123963   3.709   5.396   0.689 -0.1346  1.6815 -1.6611
  776TIP3    H223964   3.838   5.389   0.767 -0.0007  0.9389 -1.9399
  777TIP3   OH223965   2.137   4.663   7.764 -0.3167 -0.0718 -0.4839
  777TIP3    H123966   2.106   4.658   7.855 -2.8465  0.8291 -1.2201
  777TIP3    H223967   2.215   4.718   7.769 -1.9509  2.3211  0.8886
  778TIP3   OH223968   5.498   2.099   6.898  0.1239 -0.7025  0.9205
  778TIP3    H123969   5.491   2.164   6.968 -1.5350 -1.4593  1.5182
  778TIP3    H223970   5.420   2.044   6.909 -1.7676  0.7688 -3.1714
  779TIP3   OH223971   4.572   3.401   1.008  0.3760 -0.1485  1.0199
  779TIP3    H123972   4.630   3.428   1.078 -0.7411  0.0190  1.9095
  779TIP3    H223973   4.582   3.306   1.004  0.4637 -0.1541  1.3828
  780TIP3   OH223974   3.756   2.779   2.242 -0.3096 -0.0757  0.5341
  780TIP3    H123975   3.818   2.712   2.270 -0.8189 -1.6538 -1.8387
  780TIP3    H223976   3.672   2.749   2.276 -0.4892 -0.5182 -0.2732
  781TIP3   OH223977   2.308   0.169   1.554  0.0071 -0.1200 -0.3712
  781TIP3    H123978   2.288   0.248   1.605 -0.4419 -0.2802 -0.2957
  781TIP3    H223979   2.396   0.185   1.519  0.5713 -0.2603  0.9322
  782TIP3   OH223980   6.489   3.581   7.047 -0.0406 -0.6299  0.2620
  782TIP3    H123981   6.417   3.636   7.016 -1.7680 -1.6924  2.0980
  782TIP3    H223982   6.564   3.606   6.994 -1.8146  0.3913 -1.9072
  783TIP3   OH223983   5.101   6.754   7.540  0.3485 -0.1498 -0.6807
  783TIP3    H123984   5.188   6.752   7.579 -0.2087 -0.7845  0.6044
  783TIP3    H223985   5.044   6.716   7.607 -0.6670 -1.2755 -2.1238
  784TIP3   OH223986   1.565   1.467   0.000  0.0700 -0.0031 -0.0877
  784TIP3    H123987   1.573   1.536   0.067  0.8146 -2.2621  2.3198
  784TIP3    H223988   1.488   1.417   0.026 -0.8984  0.2769 -2.2283
  785TIP3   OH223989   2.725   5.559   7.384  0.0113 -0.8468  0.2029
  785TIP3    H123990   2.720   5.611   7.464  0.6571  0.8948 -0.8078
  785TIP3    H223991   2.646   5.582   7.335  1.1275  0.6713 -1.0304
  786TIP3   OH223992   4.001   7.052   7.844  0.0657 -0.3003  0.6768
  786TIP3    H123993   4.057   7.128   7.828  0.6655 -0.8139  0.2749
  786TIP3    H223994   3.941   7.080   7.913 -0.6654  1.0152 -0.4591
  787TIP3   OH223995   4.394   6.860   6.976  0.0861 -0.5346  0.0430
  787TIP3    H123996   4.429   6.946   6.955 -0.4872 -0.5331 -1.0051
  787TIP3    H223997   4.334   6.875   7.049 -1.4865  0.3387 -1.3318
  788TIP3   OH223998   5.437   3.092   7.919 -0.7315 -0.0629  0.8016
  788TIP3    H123999   5.402   3.008   7.889  2.0732 -1.3584  0.7998
  788TIP3    H224000   5.495   3.120   7.847 -0.7804  1.3159  1.2790
  789TIP3   OH224001   0.379   4.965   1.947 -0.2546 -0.1181 -0.0430
  789TIP3    H124002   0.368   4.943   1.854 -1.8622  0.2733  0.0414
  789TIP3    H224003   0.294   4.950   1.986  0.0907  0.8564  1.1499
  790TIP3   OH224004   4.481   4.275   7.860 -0.2862  0.3262  0.3715
  790TIP3    H124005   4.570   4.308   7.848  0.0799 -0.1081  1.7211
  790TIP3    H224006   4.452   4.315   7.942 -0.6787 -0.9256  0.8528
  791TIP3   OH224007   0.320   3.233   7.610  0.0425  0.3968 -0.5283
  791TIP3    H124008   0.394   3.285   7.582 -0.5762  1.4286 -0.3042
  791TIP3    H224009   0.249   3.256   7.550 -0.4119  0.2871 -0.0519
  792TIP3   OH224010   4.089   2.613   1.237 -0.1707 -0.3536  0.3942
  792TIP3    H124011   4.072   2.702   1.205 -1.8654 -0.8418 -0.1390
  792TIP3    H224012   4.028   2.601   1.310  1.5317 -0.3579  1.9038
  793TIP3   OH224013   4.566   5.296   7.076  0.0409 -0.1147 -0.3216
  793TIP3    H124014   4.579   5.251   7.159 -0.3708 -1.0632 -0.7545
  793TIP3    H224015   4.653   5.330   7.054 -0.0803  1.1803  1.0471
  794TIP3   OH224016   1.406   6.210   6.065  0.1879 -0.0852  0.2789
  794TIP3    H124017   1.479   6.265   6.093  0.9614 -0.2012 -1.3981
  794TIP3    H224018   1.328   6.254   6.099  0.7190  2.4040 -1.4307
  795TIP3   OH224019   5.238   6.873   7.845 -0.4051  0.5228 -0.3401
  795TIP3    H124020   5.179   6.908   7.779  0.9590  0.3559 -1.7238
  795TIP3    H224021   5.221   6.925   7.923 -0.5933  2.2097 -1.4492
  796TIP3   OH224022   1.214   4.018   8.117  0.2500  0.0293 -0.3170
  796TIP3    H124023   1.148   4.035   8.185  0.4082 -1.6730  0.3166
  796TIP3    H224024   1.296   4.008   8.166  0.6386  0.2688 -0.9145
  797TIP3   OH224025   1.932   3.949   7.524  0.6876  0.1417  0.0724
  797TIP3    H124026   1.944   4.044   7.536 -1.5490  0.6141 -0.8825
  797TIP3    H224027   1.863   3.942   7.458  1.9832 -2.1902 -1.1916
  798TIP3   OH224028   0.502   2.414   1.744  0.2582 -0.1152 -0.0922
  798TIP3    H124029   0.558   2.421   1.821 -0.5613  0.1732  0.4874
  798TIP3    H224030   0.450   2.335   1.759 -0.5567  0.4436  0.0995
  799TIP3   OH224031   2.093   4.197   0.465 -0.2952  0.3573  0.0890
  799TIP3    H124032   2.144   4.168   0.541  0.9604  0.1396 -0.8084
  799TIP3    H224033   2.046   4.118   0.436 -1.9228  0.7553  1.4478
  800TIP3   OH224034   4.929   5.950   7.091 -0.3817  0.9240  0.1447
  800TIP3    H124035   4.851   5.995   7.121  0.4051  1.7795  0.9801
  800TIP3    H224036   4.980   6.017   7.045  1.1888  1.1923  2.1089
  801TIP3   OH224037   2.024   3.656   8.153 -0.0084 -0.1053  0.4258
  801TIP3    H124038   2.045   3.713   8.080 -0.0316 -0.8137 -0.1407
  801TIP3    H224039   2.026   3.567   8.117  0.1507 -0.4846  1.3129
  802TIP3   OH224040   2.574   1.121   1.420 -0.2146  0.4054 -0.3649
  802TIP3    H124041   2.654   1.163   1.390  0.6536 -1.0851 -0.2275
  802TIP3    H224042   2.599   1.076   1.501 -0.9899 -0.6602 -0.6893
  803TIP3   OH224043   1.298   1.538   0.203 -0.5493 -0.1820  0.1246
  803TIP3    H124044   1.270   1.482   0.275  0.5342 -0.4034  0.3839
  803TIP3    H224045   1.297   1.480   0.126 -4.3241  0.6539 -0.6864
  804TIP3   OH224046   1.044   4.627   1.422  0.0852 -0.2283  0.2059
  804TIP3    H124047   1.026   4.586   1.506  0.0105 -0.5790  0.0176
  804TIP3    H224048   1.127   4.673   1.435 -1.1405  1.8437  1.2427
  805TIP3   OH224049   0.521   4.663   5.785  0.1568 -0.3161  0.5881
  805TIP3    H124050   0.531   4.574   5.821  0.1215  0.0150  1.4417
  805TIP3    H224051   0.471   4.650   5.704 -2.5492 -0.8276  2.1925
  806TIP3   OH224052   1.447   4.029   0.539 -0.6682  0.1829  0.3042
  806TIP3    H124053   1.404   4.043   0.455 -1.7144 -2.3233  0.3278
  806TIP3    H224054   1.538   4.009   0.516 -1.0257 -0.8502 -0.3194
  807TIP3   OH224055   1.165   5.933   0.388 -0.0740  0.1983  0.0414
  807TIP3    H124056   1.154   6.000   0.455 -0.7881 -0.6305  0.7674
  807TIP3    H224057   1.231   5.969   0.328 -0.9738  1.8487  0.0082
  808TIP3   OH224058   2.582   0.229   6.833 -0.1588 -0.2015 -0.5639
  808TIP3    H124059   2.657   0.187   6.875 -0.2817  1.4078  1.4240
  808TIP3    H224060   2.519   0.158   6.820  0.2256 -0.9615  1.2931
  809TIP3   OH224061   2.489   2.617   1.014 -0.7719 -0.1146  0.1653
  809TIP3    H124062   2.414   2.625   0.955  0.0701  0.7519 -0.8391
  809TIP3    H224063   2.564   2.641   0.960  0.4201 -2.2789  0.7608
  810TIP3   OH224064   0.536   4.402   7.433  0.5058 -0.1058  0.3769
  810TIP3    H124065   0.567   4.318   7.398 -0.5200  0.2319 -1.4975
  810TIP3    H224066   0.598   4.466   7.400 -0.8082  0.2940 -1.5530
  811TIP3   OH224067   4.486   6.869   8.236 -0.2590  0.1274  0.1010
  811TIP3    H124068   4.488   6.956   8.274 -1.0793 -0.2257  0.9914
  811TIP3    H224069   4.393   6.846   8.230 -0.0809 -1.9718  3.0617
  812TIP3   OH224070   6.388   5.174   1.046  0.5685  0.0119 -0.0014
  812TIP3    H124071   6.302   5.206   1.074  0.7661  0.0281  0.6033
  812TIP3    H224072   6.417   5.237   0.979  1.0007  1.1826  1.2387
  813TIP3   OH224073   0.958   1.083   0.775 -0.0769 -0.1103 -0.3769
  813TIP3    H124074   0.988   1.002   0.817  1.7337  0.8480  0.2937
  813TIP3    H224075   0.957   1.062   0.681  1.4417 -0.6312 -0.3132
  814TIP3   OH224076   1.126   1.859   7.891  0.0130 -0.3729 -0.4676
  814TIP3    H124077   1.166   1.946   7.886  0.9655 -0.8339 -1.1288
  814TIP3    H224078   1.037   1.872   7.859  1.0855 -0.1729 -3.7076
  815TIP3   OH224079   0.889   4.615   1.899 -0.4879 -0.0633  0.2421
  815TIP3    H124080   0.958   4.550   1.883 -1.8323 -1.5001  0.0039
  815TIP3    H224081   0.924   4.670   1.969  1.6569  0.4557 -1.1430
  816TIP3   OH224082   6.218   2.436   7.623 -0.2958  0.1403 -0.1014
  816TIP3    H124083   6.199   2.494   7.549  0.6459 -0.4059 -0.7947
  816TIP3    H224084   6.276   2.369   7.587 -1.5743 -1.4222  0.5947
  817TIP3   OH224085   6.625   6.699   7.956 -0.0496 -0.2142 -0.2285
  817TIP3    H124086   6.642   6.663   8.043 -0.1100 -0.3375 -0.2662
  817TIP3    H224087   6.572   6.776   7.972 -1.6471 -1.2649 -0.2575
  818TIP3   OH224088   1.272   7.014   7.331 -0.2134  0.4779 -0.9382
  818TIP3    H124089   1.238   7.085   7.278 -0.3123  0.4167 -0.9569
  818TIP3    H224090   1.364   7.036   7.346 -1.0364  2.4795  2.0740
  819TIP3   OH224091   4.731   6.120   6.622 -0.4256 -0.6531  0.1188
  819TIP3    H124092   4.803   6.117   6.559 -0.5799  0.8944 -0.1590
  819TIP3    H224093   4.775   6.125   6.707 -0.2156 -2.9849  0.2118
  820TIP3   OH224094   3.132   2.982   0.323  0.1354 -0.0669  0.6569
  820TIP3    H124095   3.136   3.077   0.331 -2.5523  0.0844  0.8939
  820TIP3    H224096   3.189   2.962   0.249  0.2737  1.7897  0.2156
  821TIP3   OH224097   2.405   6.416   7.800  0.1206  0.4771  0.2860
  821TIP3    H124098   2.388   6.510   7.792 -0.3477  0.3984  0.3232
  821TIP3    H224099   2.496   6.410   7.829  0.0748  0.9279  0.5261
  822TIP3   OH224100   5.018   4.270   7.751  0.1610 -0.1452  0.2021
  822TIP3    H124101   5.070   4.345   7.724  0.2329 -0.1184  0.4128
  822TIP3    H224102   5.013   4.277   7.847  1.1314 -1.0428  0.3302
  823TIP3   OH224103   5.989   3.879   6.654  0.3778 -0.3107 -0.0163
  823TIP3    H124104   5.961   3.860   6.744 -1.0454 -0.1225 -0.4100
  823TIP3    H224105   6.084   3.865   6.656  0.0416 -3.1156  0.8199
  824TIP3   OH224106   0.460   4.079   0.618  0.4511 -0.8191  0.4904
  824TIP3    H124107   0.477   3.993   0.656  0.4975  0.0126  2.5065
  824TIP3    H224108   0.365   4.091   0.628  0.4558 -0.6006  0.2808
  825TIP3   OH224109   3.071   6.260   7.175 -0.2784 -0.4709 -0.3412
  825TIP3    H124110   3.038   6.170   7.180  1.6564 -1.1921  0.1597
  825TIP3    H224111   3.098   6.271   7.084 -0.7505 -0.3047 -0.4623
  826TIP3   OH224112   6.434   4.084   6.215 -0.2727 -0.1623 -0.1790
  826TIP3    H124113   6.507   4.024   6.231 -0.4796 -0.8482 -1.7071
  826TIP3    H224114   6.449   4.118   6.127 -1.7808 -0.3129 -0.5303
  827TIP3   OH224115   1.931   6.487   6.552 -0.7174  0.4263 -0.2677
  827TIP3    H124116   1.996   6.555   6.568 -1.4344  1.2257 -0.6764
  827TIP3    H224117   1.848   6.526   6.578 -1.1423 -0.2997 -0.4904
  828TIP3   OH224118   4.808   2.872   8.205 -0.3501 -0.6337  0.5215
  828TIP3    H124119   4.801   2.914   8.119 -0.1835 -0.5177  0.5636
  828TIP3    H224120   4.777   2.783   8.191 -1.5816 -0.2351  0.6312
  829TIP3   OH224121   5.019   2.681   6.783  0.2583 -0.0191 -0.1455
  829TIP3    H124122   5.051   2.718   6.866 -0.3080 -2.7510  1.4078
  829TIP3    H224123   4.932   2.648   6.803 -0.4606  0.4496 -2.2499
  830TIP3   OH224124   5.348   5.359   0.148 -0.0440 -0.4169 -0.3158
  830TIP3    H124125   5.368   5.265   0.152  0.0081 -0.3856  0.3917
  830TIP3    H224126   5.260   5.366   0.186  0.2380 -0.1042  0.2983
  831TIP3   OH224127   5.313   6.271   1.670 -0.2913 -0.1571  0.4797
  831TIP3    H124128   5.356   6.189   1.694  0.6463  0.2289  0.1479
  831TIP3    H224129   5.220   6.255   1.688 -0.0715 -1.1476  0.8032
  832TIP3   OH224130   2.869   0.487   6.444  0.7054  0.3914  0.6192
  832TIP3    H124131   2.881   0.449   6.357 -2.1767 -0.7476  0.6219
  832TIP3    H224132   2.785   0.533   6.439  0.2180 -0.1205  2.9048
  833TIP3   OH224133   3.489   5.771   2.205  0.1230  0.1104 -0.1808
  833TIP3    H124134   3.493   5.788   2.300 -0.5303 -0.1516 -0.1040
  833TIP3    H224135   3.433   5.694   2.197  0.5963 -0.1734 -0.7506
  834TIP3   OH224136   4.510   6.274   0.647 -0.0805  0.2229 -0.2384
  834TIP3    H124137   4.447   6.344   0.664  0.6294  0.6729  0.6755
  834TIP3    H224138   4.489   6.243   0.559 -1.4419  0.4855 -0.0259
  835TIP3   OH224139   3.328   0.860   1.456  0.0399  0.2421  0.3840
  835TIP3    H124140   3.258   0.898   1.509 -0.9748 -0.9168 -0.0905
  835TIP3    H224141   3.349   0.777   1.499 -1.2738 -1.0582 -1.3283
  836TIP3   OH224142   6.200   6.406   5.924  0.5103 -0.5421  0.0389
  836TIP3    H124143   6.125   6.349   5.943  0.4658 -1.1081 -1.6954
  836TIP3    H224144   6.270   6.345   5.898  0.9243  0.1117 -0.3993
  837TIP3   OH224145   0.546   4.392   5.866 -0.4399  0.4895  0.5767
  837TIP3    H124146   0.491   4.393   5.788 -1.0243 -1.4259  0.9109
  837TIP3    H224147   0.504   4.327   5.924  1.2761  0.1466  1.4978
  838TIP3   OH224148   3.749   1.505   5.876 -0.0610  0.1519  0.3954
  838TIP3    H124149   3.785   1.465   5.955  0.7282  0.2333  0.0915
  838TIP3    H224150   3.655   1.510   5.892  0.2160  1.3681  1.8856
  839TIP3   OH224151   2.014   5.187   0.157 -0.1196 -0.5138 -0.5258
  839TIP3    H124152   2.026   5.281   0.144 -1.0918 -0.4812 -1.2630
  839TIP3    H224153   2.096   5.148   0.125  0.5173  0.0990  0.2957
  840TIP3   OH224154   3.793   5.378   1.408  0.6447 -0.3284 -0.0851
  840TIP3    H124155   3.746   5.376   1.491 -0.4224  0.7785 -0.6337
  840TIP3    H224156   3.878   5.339   1.428 -0.4190 -2.2837  0.9670
  841TIP3   OH224157   6.010   5.830   8.263 -0.2484  0.8538 -0.0699
  841TIP3    H124158   5.995   5.752   8.317 -2.0737  1.3117  0.1577
  841TIP3    H224159   6.018   5.902   8.326  0.3473  1.0078 -0.3176
  842TIP3   OH224160   3.205   4.512   7.331 -0.0560  0.3359  0.0471
  842TIP3    H124161   3.274   4.451   7.357 -1.2355 -0.8898  0.4383
  842TIP3    H224162   3.243   4.599   7.347  0.8454 -0.3003  1.7491
  843TIP3   OH224163   2.519   2.666   0.548  0.2944 -0.0048 -0.2251
  843TIP3    H124164   2.614   2.655   0.551  0.0922 -1.7926  1.2181
  843TIP3    H224165   2.502   2.743   0.602  0.8578 -0.2484  0.3092
  844TIP3   OH224166   6.687   3.697   6.835  0.8820  0.3359 -1.0125
  844TIP3    H124167   6.754   3.648   6.882  0.1308 -0.2631 -0.5464
  844TIP3    H224168   6.693   3.786   6.869  0.4835 -0.0432  0.0795
  845TIP3   OH224169   2.325   6.637   7.448 -0.2384 -0.6928  0.6501
  845TIP3    H124170   2.297   6.582   7.375  1.9026 -0.6852 -0.2464
  845TIP3    H224171   2.276   6.719   7.437  0.5033 -0.4668 -1.1617
  846TIP3   OH224172   5.580   4.330   0.954  0.7673 -0.4887  0.3916
  846TIP3    H124173   5.556   4.380   0.876  1.7905 -0.2990  0.1761
  846TIP3    H224174   5.532   4.372   1.025  0.6813  0.0433  0.0259
  847TIP3   OH224175   3.284   5.706   0.554  0.4011 -0.1069 -0.5071
  847TIP3    H124176   3.209   5.651   0.575  0.8602 -1.6445 -2.5398
  847TIP3    H224177   3.338   5.705   0.633 -2.6026  2.9172  1.9184
  848TIP3   OH224178   6.230   3.515   8.259 -0.0918  0.1590  0.5400
  848TIP3    H124179   6.160   3.452   8.275  0.0038 -0.2171 -0.4380
  848TIP3    H224180   6.311   3.465   8.274  0.0401 -0.5737 -2.1227
  849TIP3   OH224181   0.756   1.527   6.481  0.3468  0.2307 -0.6809
  849TIP3    H124182   0.828   1.464   6.470 -0.6789 -1.1696  0.2460
  849TIP3    H224183   0.746   1.535   6.576 -0.9248  0.1400 -0.7894
  850TIP3   OH224184   0.789   4.742   7.002  0.5464 -0.5273 -0.2481
  850TIP3    H124185   0.697   4.730   7.028  0.2748 -0.2286 -1.0657
  850TIP3    H224186   0.785   4.769   6.911  1.4308  0.0747 -0.1143
  851TIP3   OH224187   5.978   2.334   7.787 -0.8230  0.3391 -0.6285
  851TIP3    H124188   5.993   2.239   7.789  1.8464  0.6938  1.5702
  851TIP3    H224189   6.043   2.368   7.727 -0.4905  0.9268  0.0481
  852TIP3   OH224190   1.680   5.515   7.304 -0.2614  0.3145  0.3352
  852TIP3    H124191   1.668   5.469   7.387  1.2340  1.8502  1.4707
  852TIP3    H224192   1.594   5.552   7.284 -0.4318  0.7067  1.7026
  853TIP3   OH224193   5.257   1.040   1.730 -0.2495  0.0639  0.2939
  853TIP3    H124194   5.196   0.973   1.762 -0.9087  0.7257  0.4567
  853TIP3    H224195   5.201   1.102   1.683  0.5224 -0.1945 -1.0334
  854TIP3   OH224196   6.777   3.690   8.282  0.7197  0.0676 -0.1144
  854TIP3    H124197   6.749   3.687   8.190  0.3033 -0.4577  0.0248
  854TIP3    H224198   6.790   3.598   8.306 -2.8931 -0.2011  1.4470
  855TIP3   OH224199   4.607   2.223   2.343  0.0053 -0.0548 -0.1932
  855TIP3    H124200   4.666   2.292   2.311  0.0102  0.2599  0.4825
  855TIP3    H224201   4.662   2.168   2.398 -0.1854 -0.1310 -0.0787
  856TIP3   OH224202   5.644   6.891   2.014 -0.6867  0.3169 -0.6826
  856TIP3    H124203   5.561   6.918   1.975  0.2006  0.1725 -2.8244
  856TIP3    H224204   5.704   6.962   1.994 -0.7235  1.5592  2.9117
  857TIP3   OH224205   1.075   0.068   0.145  0.1933  0.3196  0.3215
  857TIP3    H124206   0.985   0.100   0.151 -0.2506 -0.4215 -1.7644
  857TIP3    H224207   1.076  -0.010   0.201 -0.9516 -0.6352 -0.9379
  858TIP3   OH224208   2.636   4.707   7.604 -0.2480  0.5030 -0.3476
  858TIP3    H124209   2.703   4.677   7.543 -1.4973 -0.8106 -1.1424
  858TIP3    H224210   2.684   4.755   7.671  1.7693 -2.0520  0.1925
  859TIP3   OH224211   1.511   0.457   0.081 -0.1681  0.3554 -0.2339
  859TIP3    H124212   1.439   0.400   0.106 -0.3595  0.5920 -0.2392
  859TIP3    H224213   1.474   0.545   0.085  0.9062  0.7574  2.6134
  860TIP3   OH224214   0.539   7.031   0.035 -0.2806  0.1977  0.3269
  860TIP3    H124215   0.517   7.002   0.124  0.5732 -0.6824  0.2702
  860TIP3    H224216   0.531   6.952  -0.019  0.8410  0.3287 -0.0626
  861TIP3   OH224217   6.031   5.109   6.520  0.0837 -0.1621 -0.2837
  861TIP3    H124218   6.047   5.181   6.458 -0.9446 -2.0021 -2.8921
  861TIP3    H224219   6.113   5.060   6.520  1.3116  1.6418  2.6317
  862TIP3   OH224220   6.736   6.637   0.403 -0.2506  0.1038 -0.0780
  862TIP3    H124221   6.642   6.618   0.401 -0.5905  1.4877  1.0339
  862TIP3    H224222   6.777   6.551   0.401 -1.5987 -0.6149  0.9334
  863TIP3   OH224223   3.985   5.368   6.054  1.1916 -0.2927 -0.0523
  863TIP3    H124224   3.931   5.356   5.976 -2.8554 -0.4765  2.4972
  863TIP3    H224225   4.000   5.280   6.087 -2.0918 -0.1753  2.2355
  864TIP3   OH224226   1.627   4.139   8.167 -0.1194 -0.3291  0.2486
  864TIP3    H124227   1.719   4.113   8.169  0.0160  0.1411  0.1916
  864TIP3    H224228   1.626   4.230   8.197 -0.3990  0.1159 -1.0161
  865TIP3   OH224229   2.775   0.596   8.157 -0.4996 -0.1521 -0.2695
  865TIP3    H124230   2.798   0.506   8.133 -1.3503 -1.0937  2.1598
  865TIP3    H224231   2.859   0.642   8.156  0.1424 -1.2739 -0.3836
  866TIP3   OH224232   7.008   3.233   7.253 -1.3143  0.2375 -0.5524
  866TIP3    H124233   7.067   3.272   7.188 -0.4127  0.8813  0.6010
  866TIP3    H224234   6.942   3.301   7.268 -0.6348  0.7313  0.3115
  867TIP3   OH224235   3.503   4.869   8.191 -0.1746 -0.2067 -0.2492
  867TIP3    H124236   3.474   4.815   8.117  0.5001 -1.6894  0.5271
  867TIP3    H224237   3.537   4.949   8.151  1.1935 -1.4250 -1.6412
  868TIP3   OH224238   5.717   4.193   1.171 -0.0355 -0.4038  0.4805
  868TIP3    H124239   5.687   4.108   1.202  0.4881 -0.2336  1.4884
  868TIP3    H224240   5.659   4.214   1.098 -0.5547 -1.3431  0.6110
  869TIP3   OH224241   3.626   0.297   1.674 -0.3572 -0.0707 -0.2010
  869TIP3    H124242   3.581   0.350   1.740 -1.0173  0.6420 -1.1844
  869TIP3    H224243   3.563   0.228   1.651 -0.4309  0.1185 -0.5910
  870TIP3   OH224244   0.917   5.062   7.005 -0.8778  0.0540 -0.5967
  870TIP3    H124245   0.979   5.053   6.933 -1.4031  0.4663 -1.1097
  870TIP3    H224246   0.914   5.156   7.022 -0.2152 -0.1045  0.4545
  871TIP3   OH224247   2.408   7.040   7.105  0.0289  0.3796  0.1589
  871TIP3    H124248   2.475   6.974   7.120 -1.2372 -1.0734 -0.3341
  871TIP3    H224249   2.420   7.103   7.176 -0.3571 -1.7519  2.2494
  872TIP3   OH224250   0.969   2.272   7.964 -0.2662 -0.2204  0.6793
  872TIP3    H124251   0.935   2.361   7.964  0.1301 -0.0588 -0.6915
  872TIP3    H224252   0.894   2.218   7.992 -1.1413  0.3218 -0.5386
  873TIP3   OH224253   2.776   2.923   6.300  0.4640 -0.2877  0.0384
  873TIP3    H124254   2.819   2.934   6.385  1.0885  0.3840 -0.3590
  873TIP3    H224255   2.829   2.857   6.255  0.2226 -0.5308  0.1068
  874TIP3   OH224256   5.601   2.918   6.703  0.8038 -0.4929 -0.0418
  874TIP3    H124257   5.655   2.842   6.724 -0.0817 -2.0135 -2.8046
  874TIP3    H224258   5.656   2.974   6.649  1.2333  0.5701  1.4347
  875TIP3   OH224259   0.268   1.705   0.906  0.3984 -0.9571 -0.9007
  875TIP3    H124260   0.254   1.641   0.836 -2.9069 -1.7356  0.2981
  875TIP3    H224261   0.216   1.781   0.881  0.1514 -0.7732  0.1301
  876TIP3   OH224262   0.386   4.877   7.302 -0.2869  1.0637 -0.3513
  876TIP3    H124263   0.352   4.847   7.387  0.9132  0.3160 -0.1064
  876TIP3    H224264   0.437   4.955   7.324 -1.3813  1.8881 -0.6478
  877TIP3   OH224265   3.194   3.214   7.940  0.0847  0.1421  0.5033
  877TIP3    H124266   3.219   3.207   7.848  1.6688 -1.0753  0.9760
  877TIP3    H224267   3.196   3.124   7.972  2.0887  0.7669  2.3378
  878TIP3   OH224268   6.478   4.133   2.194 -0.0569 -0.3352  0.0695
  878TIP3    H124269   6.392   4.093   2.201 -1.0378  1.5315 -0.5292
  878TIP3    H224270   6.540   4.061   2.205 -1.6878 -1.7730  0.1513
  879TIP3   OH224271   3.737   3.680   1.643  0.0360  0.1702  0.0878
  879TIP3    H124272   3.722   3.722   1.727  0.6272  0.5140  0.0237
  879TIP3    H224273   3.794   3.741   1.595 -0.0641 -0.1530 -0.4488
  880TIP3   OH224274   0.083   5.960   1.176  0.5011  0.2684  0.1440
  880TIP3    H124275   0.111   6.024   1.111 -0.1466  1.6381  1.1595
  880TIP3    H224276   0.039   5.891   1.125 -3.5444  3.1414 -0.7787
  881TIP3   OH224277   4.795   1.904   0.212 -0.1384  0.0481  0.2281
  881TIP3    H124278   4.821   1.815   0.237 -0.2034  0.0179  0.1882
  881TIP3    H224279   4.859   1.931   0.147 -0.5957 -0.2804 -0.3715
  882TIP3   OH224280   3.059   5.342   6.219 -0.7057 -0.5493  0.4890
  882TIP3    H124281   3.123   5.271   6.219  0.8846  0.8011  1.8179
  882TIP3    H224282   3.110   5.420   6.198 -2.3485  0.2712 -0.5853
  883TIP3   OH224283   6.397   4.941   7.759  0.2557 -0.4469  0.1433
  883TIP3    H124284   6.456   5.016   7.751  0.1920 -0.3294  0.7400
  883TIP3    H224285   6.452   4.865   7.741  0.8198 -0.4113  1.5586
  884TIP3   OH224286   0.203   4.380   6.909 -0.5950 -0.0293 -0.2897
  884TIP3    H124287   0.167   4.426   6.985  0.7071 -0.9425  0.9234
  884TIP3    H224288   0.285   4.342   6.940  0.3001  0.0860 -2.3359
  885TIP3   OH224289   2.718   5.890   6.501  0.0103 -0.2172 -0.5518
  885TIP3    H124290   2.783   5.871   6.568 -0.9098 -0.3950  0.3201
  885TIP3    H224291   2.636   5.854   6.536 -1.2759  2.8597 -0.0852
  886TIP3   OH224292   6.468   6.438   7.058  0.5589  0.0277  0.3161
  886TIP3    H124293   6.484   6.386   7.137  1.7284 -0.0250  0.0613
  886TIP3    H224294   6.377   6.465   7.066  0.1162 -1.5015  0.7754
  887TIP3   OH224295   1.837   4.637   7.738 -0.6845 -0.2689 -0.0491
  887TIP3    H124296   1.910   4.663   7.794  1.1447 -1.1953 -1.8657
  887TIP3    H224297   1.817   4.715   7.686 -0.6988 -0.1328  0.1613
  888TIP3   OH224298   1.318   6.156   6.807  0.5553  0.4331  0.3840
  888TIP3    H124299   1.283   6.073   6.774 -0.1227  1.4755 -1.6939
  888TIP3    H224300   1.411   6.155   6.782  0.0280  1.2615 -1.8964
  889TIP3   OH224301   1.479   5.670   6.728  0.1344  0.0804 -0.3600
  889TIP3    H124302   1.524   5.593   6.693  0.7422  0.8179 -1.2671
  889TIP3    H224303   1.469   5.728   6.652 -1.9979  0.1296 -0.1101
  890TIP3   OH224304   6.458   4.673   1.348  0.0502 -0.4876  0.0441
  890TIP3    H124305   6.369   4.704   1.335 -0.0531 -0.2207  1.2851
  890TIP3    H224306   6.460   4.585   1.309 -0.7030 -0.4221 -0.1378
  891TIP3   OH224307   6.534   5.796   1.685 -0.7258  0.3462 -0.1829
  891TIP3    H124308   6.518   5.889   1.703 -4.0404  0.1916 -1.4932
  891TIP3    H224309   6.465   5.750   1.732  1.0464 -1.5524  0.7033
  892TIP3   OH224310   1.214   1.207   7.064 -0.2140  0.5202  0.1178
  892TIP3    H124311   1.158   1.250   7.000 -1.6714  1.5275  2.0022
  892TIP3    H224312   1.227   1.119   7.029  0.1294  1.4074 -2.1760
  893TIP3   OH224313   0.732   7.012   6.597  0.0420 -0.0817 -0.9483
  893TIP3    H124314   0.826   7.020   6.609 -0.0313 -1.3546  1.0171
  893TIP3    H224315   0.706   7.094   6.555  2.0745  0.0428 -2.1016
  894TIP3   OH224316   5.618   3.835   6.195 -0.1698  0.3625  0.0602
  894TIP3    H124317   5.691   3.780   6.166  0.8173  0.9319  1.3720
  894TIP3    H224318   5.623   3.913   6.140 -1.0965 -0.4658 -1.2677
  895TIP3   OH224319   3.490   0.323   0.558  0.6046 -0.6640 -0.4987
  895TIP3    H124320   3.586   0.329   0.549  0.5952 -0.4275 -0.4613
  895TIP3    H224321   3.473   0.231   0.574  0.8671 -0.6373 -0.0509
  896TIP3   OH224322   4.046   2.769   7.752  0.9814 -0.1138 -0.2181
  896TIP3    H124323   4.003   2.855   7.752  2.0735  0.5138 -2.1890
  896TIP3    H224324   4.048   2.744   7.660  0.1492 -2.5884  0.3741
  897TIP3   OH224325   5.227   0.808   7.985  0.1407 -0.1506  0.8407
  897TIP3    H124326   5.272   0.849   8.058 -2.0524  2.6518  0.7620
  897TIP3    H224327   5.286   0.821   7.910 -0.0312  2.0666  1.0379
  898TIP3   OH224328   3.263   6.032   1.350  0.1234  0.4139 -0.1013
  898TIP3    H124329   3.246   6.107   1.406 -2.7190 -1.2643  1.4767
  898TIP3    H224330   3.225   6.056   1.265 -1.2350  0.5736  0.5384
  899TIP3   OH224331   0.604   2.295   7.566 -0.6469 -0.8139  0.2313
  899TIP3    H124332   0.592   2.265   7.656 -0.2725 -1.4101  0.0842
  899TIP3    H224333   0.657   2.374   7.574  1.4341 -2.1657  0.3940
  900TIP3   OH224334   3.965   4.496   7.796  0.7592 -0.2961 -0.0802
  900TIP3    H124335   3.934   4.457   7.878 -0.4422  0.7868  0.0185
  900TIP3    H224336   3.958   4.425   7.732 -3.2483  0.0679 -0.3415
  901TIP3   OH224337   2.032   6.279   6.925 -0.8153 -0.0538 -0.3743
  901TIP3    H124338   1.954   6.327   6.952 -1.4021 -0.6876 -0.9124
  901TIP3    H224339   2.093   6.347   6.895 -1.5322  0.3765 -0.8697
  902TIP3   OH224340   7.059   1.465   1.678  0.3154 -0.5394  0.6008
  902TIP3    H124341   7.026   1.518   1.750  3.2549 -0.3568  1.9431
  902TIP3    H224342   7.019   1.379   1.692  0.5748 -0.4180  2.3013
  903TIP3   OH224343   5.940   2.234   6.375 -0.0619 -0.1789  0.1056
  903TIP3    H124344   5.935   2.278   6.290 -0.2046 -1.8839 -0.8191
  903TIP3    H224345   5.999   2.160   6.360  1.0870  0.3161  1.9065
  904TIP3   OH224346   6.341   1.128   6.646  0.1738 -0.0090  0.0381
  904TIP3    H124347   6.348   1.109   6.552 -1.4538 -0.7129  0.0296
  904TIP3    H224348   6.286   1.206   6.650  0.9172  0.5143  0.4004
  905TIP3   OH224349   5.594   3.150   7.664  0.2509 -0.8297 -0.6793
  905TIP3    H124350   5.635   3.134   7.580  1.0319 -0.4893 -0.3724
  905TIP3    H224351   5.661   3.129   7.729 -0.1089 -0.4250 -0.1586
  906TIP3   OH224352   1.338   6.320   0.832 -0.4907  0.2279  0.0333
  906TIP3    H124353   1.399   6.337   0.904  1.8816  0.2517 -1.8568
  906TIP3    H224354   1.341   6.399   0.778 -1.5531 -0.1165 -0.5689
  907TIP3   OH224355   5.244   3.275   1.576 -0.3562 -0.1817 -0.3056
  907TIP3    H124356   5.222   3.361   1.542  1.5839 -0.2421 -1.9094
  907TIP3    H224357   5.244   3.285   1.671  1.1520  1.9682 -0.4729
  908TIP3   OH224358   3.437   2.460   6.724  0.0127 -0.4174  0.1671
  908TIP3    H124359   3.428   2.555   6.723 -1.3223 -0.5161 -0.9748
  908TIP3    H224360   3.434   2.435   6.632  2.0515 -1.4597  0.3342
  909TIP3   OH224361   6.607   2.543   0.839  0.0150  0.0327 -0.6701
  909TIP3    H124362   6.544   2.535   0.767  1.1331  0.4238 -1.7238
  909TIP3    H224363   6.639   2.633   0.833 -1.5279  0.8403  1.7721
  910TIP3   OH224364   0.357   3.296   1.784  0.2713 -0.0694 -0.0726
  910TIP3    H124365   0.346   3.388   1.759  0.5295  0.1514  0.6081
  910TIP3    H224366   0.451   3.287   1.800  0.2992 -0.5486 -0.4813
  911TIP3   OH224367   6.628   2.472   6.765  0.2096 -0.3970 -0.2578
  911TIP3    H124368   6.599   2.391   6.807 -1.2572  0.6617  0.8749
  911TIP3    H224369   6.608   2.460   6.673  0.1539 -1.3924 -0.1215
  912TIP3   OH224370   1.404   6.461   1.341  0.0152  0.6104  0.5341
  912TIP3    H124371   1.420   6.432   1.431 -2.1658 -1.3146  0.4204
  912TIP3    H224372   1.316   6.499   1.344  0.4850  1.8432 -0.5435
  913TIP3   OH224373   1.288   6.388   6.645 -0.0902 -0.5070 -0.0591
  913TIP3    H124374   1.346   6.346   6.582  0.4302 -0.2690  0.2558
  913TIP3    H224375   1.280   6.325   6.716 -0.4612 -0.6632 -0.2353
  914TIP3   OH224376   6.499   2.202   7.186  0.3970 -0.0180  0.1699
  914TIP3    H124377   6.541   2.272   7.137  0.2748 -0.3362 -0.3975
  914TIP3    H224378   6.535   2.121   7.149 -1.0123 -0.3108 -0.6447
  915TIP3   OH224379   5.901   3.232   1.835  0.6627 -0.7269  0.4114
  915TIP3    H124380   5.921   3.141   1.860 -2.0163 -1.0630  1.6583
  915TIP3    H224381   5.947   3.285   1.900  0.2692 -1.3079  1.1806
  916TIP3   OH224382   6.319   5.131   6.100  0.3784 -0.1024  0.2118
  916TIP3    H124383   6.249   5.153   6.038  1.2161 -0.6659 -0.9691
  916TIP3    H224384   6.299   5.042   6.130 -0.4956  0.4779  1.4594
  917TIP3   OH224385   6.910   6.989   1.691 -0.2219  0.2091 -0.9446
  917TIP3    H124386   6.962   6.983   1.771 -0.3273 -2.7335 -0.9735
  917TIP3    H224387   6.877   7.079   1.689  1.2207  0.8563  1.3634
  918TIP3   OH224388   2.092   2.612   1.779 -0.0045 -0.2642  0.1073
  918TIP3    H124389   2.120   2.636   1.690 -0.5439  2.5271  0.5902
  918TIP3    H224390   2.044   2.689   1.810  0.0260 -1.2277  2.7671
  919TIP3   OH224391   1.994   4.462   0.132  0.1608 -0.2860 -0.2343
  919TIP3    H124392   2.067   4.509   0.093 -0.5657  0.4542 -0.7370
  919TIP3    H224393   1.972   4.512   0.210  1.0633 -1.2883  0.7001
  920TIP3   OH224394   1.562   1.143   8.152  0.1246 -0.0074  0.0629
  920TIP3    H124395   1.470   1.148   8.125  0.1039  1.2378  0.2734
  920TIP3    H224396   1.609   1.193   8.085  1.3668 -4.3395 -2.6867
  921TIP3   OH224397   3.192   5.481   8.221  0.1033 -0.3248 -0.0029
  921TIP3    H124398   3.152   5.511   8.303 -0.0297  1.2174 -0.5875
  921TIP3    H224399   3.233   5.560   8.185  0.8702 -1.1656 -1.0107
  922TIP3   OH224400   5.425   0.171   0.197  0.1684  0.0152 -0.0443
  922TIP3    H124401   5.395   0.237   0.135 -0.5624 -0.1471  0.1188
  922TIP3    H224402   5.438   0.093   0.144 -0.6227 -0.1719  0.0189
  923TIP3   OH224403   4.218   5.048   0.239 -0.5305  1.1001  0.0289
  923TIP3    H124404   4.167   5.127   0.256 -2.0342 -0.2941  2.6210
  923TIP3    H224405   4.161   4.976   0.266  0.5722 -0.9858 -2.7178
  924TIP3   OH224406   2.871   4.758   6.217  0.3165  0.2379  0.3565
  924TIP3    H124407   2.928   4.831   6.191  0.6564 -0.6419 -1.5402
  924TIP3    H224408   2.929   4.682   6.220 -0.8618 -0.9315 -2.8707
  925TIP3   OH224409   2.018   0.076   0.506  0.0593  0.0528  0.1844
  925TIP3    H124410   1.980   0.153   0.547 -2.0249 -1.4560  1.2611
  925TIP3    H224411   1.961   0.057   0.431 -1.0807 -1.9018  1.4644
  926TIP3   OH224412   2.314   0.023   8.207  0.0603  0.3634  0.0480
  926TIP3    H124413   2.369   0.029   8.286  0.8630 -0.5110 -0.4304
  926TIP3    H224414   2.362   0.073   8.141  0.0393 -0.0152 -0.2488
  927TIP3   OH224415   2.792   3.725   6.916  0.1679 -0.4233  0.4177
  927TIP3    H124416   2.774   3.723   7.010  0.4505  1.9908  0.5727
  927TIP3    H224417   2.719   3.677   6.878 -0.8370 -0.0439  1.7700
  928TIP3   OH224418   0.528   3.523   6.103  0.3643  0.2385 -0.1404
  928TIP3    H124419   0.437   3.539   6.128 -0.5162  0.1922 -2.9627
  928TIP3    H224420   0.569   3.609   6.102 -0.2435  0.5222 -0.9100
  929TIP3   OH224421   0.729   0.539   6.335 -0.2540  0.0977 -0.1664
  929TIP3    H124422   0.650   0.514   6.384  0.8697  0.8705  2.1830
  929TIP3    H224423   0.771   0.455   6.315  0.4377 -0.2392  2.3526
  930TIP3   OH224424   3.387   5.610   6.893  0.4069 -0.0015  0.5871
  930TIP3    H124425   3.377   5.541   6.958  1.1078 -0.1914  0.5109
  930TIP3    H224426   3.413   5.564   6.813  1.5350  0.3776  0.7051
  931TIP3   OH224427   3.398   3.059   7.809  0.0172 -1.0724  0.2231
  931TIP3    H124428   3.426   2.989   7.868 -0.2006 -0.5871  0.9120
  931TIP3    H224429   3.400   3.019   7.722  0.2539 -1.8243  0.5652
  932TIP3   OH224430   5.572   0.751   0.244 -0.1892  0.9222  0.1765
  932TIP3    H124431   5.626   0.811   0.192  0.2586 -0.5923 -1.1778
  932TIP3    H224432   5.553   0.678   0.185  2.0774 -1.9618  2.6519
  933TIP3   OH224433   5.751   1.338   2.178  0.1544  0.5407 -0.0772
  933TIP3    H124434   5.793   1.410   2.130 -1.2633  0.2988 -1.7926
  933TIP3    H224435   5.692   1.298   2.114 -1.1388 -0.4165  1.6336
  934TIP3   OH224436   6.485   0.219   8.076  0.4730  0.4543 -0.3192
  934TIP3    H124437   6.500   0.214   8.170  0.3070  0.4597 -0.2927
  934TIP3    H224438   6.391   0.207   8.066  0.5045  0.3417 -0.4930
  935TIP3   OH224439   1.052   3.752   6.331  0.2188  0.8601 -0.1086
  935TIP3    H124440   1.091   3.818   6.387 -0.8799  0.7769  0.7888
  935TIP3    H224441   0.979   3.797   6.288  0.9311  0.8782 -1.3774
  936TIP3   OH224442   1.341   0.529   0.526  0.1687  0.6752 -0.1704
  936TIP3    H124443   1.424   0.497   0.491 -0.3008 -0.0553 -0.6423
  936TIP3    H224444   1.283   0.533   0.449 -1.0136 -1.3624  0.5439
  937TIP3   OH224445   2.717   1.296   7.926  0.2836 -0.1632  0.0790
  937TIP3    H124446   2.746   1.386   7.910 -0.5498 -0.0285 -0.7895
  937TIP3    H224447   2.796   1.244   7.921  0.5759  0.3459 -0.9521
  938TIP3   OH224448   4.218   3.731   0.938  0.1616 -0.3289  0.3521
  938TIP3    H124449   4.222   3.825   0.958  2.2589 -0.3869  0.4455
  938TIP3    H224450   4.177   3.727   0.852  0.2609  0.7144  0.2398
  939TIP3   OH224451   5.660   3.804   0.035 -0.1551  0.5015  0.2429
  939TIP3    H124452   5.729   3.871   0.028  1.0329 -0.6151  0.7878
  939TIP3    H224453   5.664   3.776   0.127  0.4076 -1.3679 -0.3195
  940TIP3   OH224454   4.258   4.700   5.715 -0.5453  0.2993 -0.1286
  940TIP3    H124455   4.252   4.615   5.671 -0.7921  0.5505 -0.5890
  940TIP3    H224456   4.351   4.714   5.729 -0.4383  0.3795 -0.8969
  941TIP3   OH224457   2.989   0.960   2.463  0.2996 -0.1402 -0.0728
  941TIP3    H124458   3.073   0.920   2.443  0.0019 -0.0912 -1.5462
  941TIP3    H224459   2.940   0.893   2.510  0.7972 -0.5166 -0.0909
  942TIP3   OH224460   3.801   6.876   7.719  0.3079  0.0081  0.3465
  942TIP3    H124461   3.822   6.921   7.637  2.4938 -0.1758  0.7435
  942TIP3    H224462   3.859   6.915   7.783  1.4740 -2.5428  0.9672
  943TIP3   OH224463   3.630   4.302   6.809  0.0585 -0.6381 -0.1197
  943TIP3    H124464   3.708   4.265   6.768 -0.1191  0.0403 -1.1022
  943TIP3    H224465   3.658   4.328   6.896  0.6647 -1.3288 -0.1020
  944TIP3   OH224466   0.891   2.286   1.776  0.2589 -0.6390 -0.6469
  944TIP3    H124467   0.927   2.214   1.828  0.1674 -0.2795 -0.0704
  944TIP3    H224468   0.860   2.349   1.841 -1.7104 -1.0604 -1.1092
  945TIP3   OH224469   6.903   2.547   1.754  0.4972 -0.1720 -0.4369
  945TIP3    H124470   6.922   2.490   1.680  2.8927 -0.5577  0.3641
  945TIP3    H224471   6.987   2.588   1.775 -0.6663  1.9153  0.4671
  946TIP3   OH224472   0.361   2.910   6.829 -0.3630 -0.2718  0.0906
  946TIP3    H124473   0.367   3.003   6.805  0.0073 -0.5193 -0.8403
  946TIP3    H224474   0.283   2.879   6.783 -0.0949 -0.5747 -0.1662
  947TIP3   OH224475   5.669   3.946   7.415 -0.1932 -0.1772  0.8287
  947TIP3    H124476   5.728   3.874   7.392 -0.4161  0.1264 -0.7685
  947TIP3    H224477   5.592   3.932   7.361 -0.3684  1.0847  0.7217
  948TIP3   OH224478   6.256   3.458   7.315  0.0985  0.5137 -0.3566
  948TIP3    H124479   6.265   3.397   7.242 -2.0550 -0.5550  0.1775
  948TIP3    H224480   6.341   3.501   7.321  2.5014 -3.7467  0.3897
  949TIP3   OH224481   5.851   4.580   5.515 -0.5423 -0.0356  0.6085
  949TIP3    H124482   5.789   4.630   5.567 -0.6680 -0.5774  0.9835
  949TIP3    H224483   5.809   4.570   5.430 -1.2240 -0.8854  1.0332
  950TIP3   OH224484   0.718   4.104   8.164 -0.1567  0.0547  0.3049
  950TIP3    H124485   0.745   4.059   8.084 -0.2915 -0.1119  0.3520
  950TIP3    H224486   0.742   4.196   8.150 -1.4050  0.2783 -0.4888
  951TIP3   OH224487   1.667   6.581   1.367 -0.7433 -0.5428 -0.6258
  951TIP3    H124488   1.691   6.543   1.283  0.1742  0.3145 -0.7764
  951TIP3    H224489   1.572   6.572   1.372 -0.6873 -1.6236 -1.2358
  952TIP3   OH224490   0.601   0.334   0.353 -0.0600 -0.3421 -0.0305
  952TIP3    H124491   0.625   0.267   0.416  1.1046 -0.5044 -0.6168
  952TIP3    H224492   0.505   0.335   0.353 -0.0738 -0.8356  1.1971
  953TIP3   OH224493   3.670   0.476   0.990  0.1946  0.0064 -0.3758
  953TIP3    H124494   3.708   0.563   0.976 -0.0986  0.5516  1.8722
  953TIP3    H224495   3.602   0.469   0.924 -1.4713  2.5627  0.9129
  954TIP3   OH224496   0.652   5.329   0.887 -0.0161  0.0933  0.2616
  954TIP3    H124497   0.583   5.351   0.824 -0.0589 -2.1255 -0.5242
  954TIP3    H224498   0.610   5.269   0.948  0.1358  1.8964  2.2723
  955TIP3   OH224499   0.778   6.320   7.582 -0.3823 -0.2419  0.6256
  955TIP3    H124500   0.709   6.387   7.583 -0.0653  0.0988  1.8432
  955TIP3    H224501   0.777   6.285   7.493 -0.8784  1.0546  0.0980
  956TIP3   OH224502   5.069   3.426   0.368 -0.0713  0.2661  0.6369
  956TIP3    H124503   5.020   3.387   0.440 -1.4025 -1.5746 -1.1627
  956TIP3    H224504   5.149   3.372   0.361 -1.1124 -1.1885 -0.7652
  957TIP3   OH224505   2.623   3.690   7.997 -0.5218 -0.4513  0.4112
  957TIP3    H124506   2.635   3.782   8.022  0.4904 -0.7148  0.9142
  957TIP3    H224507   2.591   3.694   7.907 -1.3426  0.4148  0.7185
  958TIP3   OH224508   3.474   0.550   6.590 -0.1144  0.1772  0.5645
  958TIP3    H124509   3.428   0.492   6.529 -0.4948 -1.5262  2.3600
  958TIP3    H224510   3.542   0.495   6.630  0.2972  1.2943  1.4777
  959TIP3   OH224511   4.790   1.149   6.961  0.3323  0.4005 -0.1608
  959TIP3    H124512   4.705   1.190   6.978  0.7952  0.9830  0.8849
  959TIP3    H224513   4.853   1.211   6.998  1.2170 -0.0179 -0.9354
  960TIP3   OH224514   1.780   6.812   8.141 -0.1135  0.0169  0.3083
  960TIP3    H124515   1.705   6.810   8.200 -1.2834 -0.5267 -1.1218
  960TIP3    H224516   1.854   6.785   8.195 -0.7152  1.5977  2.0234
  961TIP3   OH224517   5.586   4.710   0.441 -0.5979  0.1921  0.1248
  961TIP3    H124518   5.596   4.696   0.347  0.0878 -2.2335  0.4865
  961TIP3    H224519   5.642   4.786   0.460  1.6663 -1.0930 -1.0060
  962TIP3   OH224520   6.653   3.481   1.864  0.0099  0.5589  0.0772
  962TIP3    H124521   6.628   3.450   1.951  0.3079  1.6054  0.5544
  962TIP3    H224522   6.572   3.481   1.814 -0.3502  0.8599  0.6480
  963TIP3   OH224523   0.227   2.677   7.624  0.2872  0.2339 -0.1480
  963TIP3    H124524   0.283   2.744   7.586  0.4019 -0.3496 -1.0315
  963TIP3    H224525   0.288   2.609   7.655  0.1021 -0.3095 -0.9321
  964TIP3   OH224526   5.051   2.640   7.823  0.7398 -0.0997 -0.2395
  964TIP3    H124527   4.966   2.612   7.787  1.0977 -1.8151  0.1702
  964TIP3    H224528   5.065   2.727   7.786 -1.4033  0.4265  0.0319
  965TIP3   OH224529   4.311   1.112   1.035  0.3330 -0.0338 -0.4639
  965TIP3    H124530   4.343   1.199   1.009 -1.3872  1.3437  1.6811
  965TIP3    H224531   4.296   1.067   0.952  0.4106  2.0344 -1.6877
  966TIP3   OH224532   0.353   4.011   6.798 -0.3273 -0.4169  0.1366
  966TIP3    H124533   0.281   4.065   6.765  1.4254  0.9736 -1.6585
  966TIP3    H224534   0.407   3.993   6.721  0.8551 -2.0762  1.2847
  967TIP3   OH224535   4.097   3.387   1.518  0.7470  0.1403 -0.0876
  967TIP3    H124536   4.157   3.319   1.548  0.6350  0.0545 -0.0545
  967TIP3    H224537   4.135   3.469   1.549  0.3633  0.0164  0.7643
  968TIP3   OH224538   1.231   4.331   7.299 -0.2134  0.1216  0.1455
  968TIP3    H124539   1.310   4.276   7.299 -0.4652 -0.2424  0.0553
  968TIP3    H224540   1.256   4.408   7.349 -0.1805 -0.5517  1.1974
  969TIP3   OH224541   6.132   1.160   7.207  0.1457  0.2820 -0.4554
  969TIP3    H124542   6.174   1.098   7.149  1.3226  1.5105 -0.9745
  969TIP3    H224543   6.124   1.240   7.155 -1.4335  0.5594  0.1505
  970TIP3   OH224544   6.537   2.483   6.170 -0.3498 -0.5527  0.1915
  970TIP3    H124545   6.542   2.565   6.120 -0.1267 -0.3491  0.5449
  970TIP3    H224546   6.479   2.504   6.243  0.6286 -0.3722  0.9235
  971TIP3   OH224547   3.501   0.943   1.256  0.5828  0.3578  0.5324
  971TIP3    H124548   3.422   0.947   1.311  1.7596 -0.2828  2.3722
  971TIP3    H224549   3.495   0.858   1.211  0.8150 -0.3118  1.7023
  972TIP3   OH224550   5.490   6.405   0.851 -0.7011  0.2624 -0.6494
  972TIP3    H124551   5.446   6.382   0.769 -1.9636  2.8414 -0.7795
  972TIP3    H224552   5.436   6.366   0.919  0.3770 -1.9311 -0.9499
  973TIP3   OH224553   4.321   1.826   7.868 -0.5176 -0.0005 -0.5501
  973TIP3    H124554   4.242   1.774   7.851 -0.4558 -1.6308  3.1907
  973TIP3    H224555   4.294   1.889   7.935  1.0501  0.2402 -0.1117
  974TIP3   OH224556   4.417   0.562   7.815  0.2501  0.4802  0.7642
  974TIP3    H124557   4.464   0.586   7.735  0.1595 -0.8684  0.2843
  974TIP3    H224558   4.324   0.567   7.790  0.2192  0.1872  0.8199
  975TIP3   OH224559   3.516   6.514   0.934 -0.0593 -0.0251  0.1686
  975TIP3    H124560   3.487   6.592   0.981 -1.0780 -1.5176  2.1505
  975TIP3    H224561   3.451   6.447   0.955  0.7852 -1.4530 -1.4575
  976TIP3   OH224562   1.720   0.224   6.924 -0.6718  0.6133  0.4891
  976TIP3    H124563   1.729   0.128   6.930  1.4653  0.6576 -0.6818
  976TIP3    H224564   1.649   0.237   6.861 -1.9090 -0.1475  1.6742
  977TIP3   OH224565   3.565   6.848   6.058 -0.1334 -0.1421  0.5623
  977TIP3    H124566   3.554   6.791   6.135  0.9567 -3.1758 -1.3527
  977TIP3    H224567   3.477   6.856   6.021 -0.5586  0.8368  1.7113
  978TIP3   OH224568   1.583   3.602   6.758  0.2764  0.3432  0.1736
  978TIP3    H124569   1.513   3.628   6.698  0.9366  0.2758 -0.6421
  978TIP3    H224570   1.614   3.684   6.795  0.1203  0.4202  0.1359
  979TIP3   OH224571   1.922   4.377   7.676  0.1993 -0.1844  0.0055
  979TIP3    H124572   1.894   4.467   7.694  0.8199 -0.0104  0.1303
  979TIP3    H224573   1.904   4.329   7.757  0.0293 -0.1348 -0.0028
  980TIP3   OH224574   6.976   1.942   7.582  0.4681 -0.9076 -0.2787
  980TIP3    H124575   7.032   1.956   7.506 -0.3195 -1.9011 -1.0674
  980TIP3    H224576   6.895   1.988   7.560  0.0723 -1.5799 -0.2532
  981TIP3   OH224577   1.916   4.474   7.149  0.9298  0.6284  0.5063
  981TIP3    H124578   1.846   4.503   7.090  1.2172 -1.7222 -1.1182
  981TIP3    H224579   1.896   4.515   7.233 -0.9125  2.0809 -0.5691
  982TIP3   OH224580   0.188   1.172   1.747  0.1474 -0.7862  0.4594
  982TIP3    H124581   0.102   1.204   1.722 -0.8651 -1.6701  2.6197
  982TIP3    H224582   0.173   1.083   1.779  1.9932 -1.2642  0.1446
  983TIP3   OH224583   1.280   5.890   6.760  0.3626  0.3765 -0.2177
  983TIP3    H124584   1.237   5.854   6.682  1.2317  2.4645 -1.7515
  983TIP3    H224585   1.361   5.841   6.767 -0.0339 -0.2903 -0.2044
  984TIP3   OH224586   3.616   5.221   1.265  0.2446 -0.1898 -0.5224
  984TIP3    H124587   3.670   5.288   1.307  1.0625 -1.1386 -0.0155
  984TIP3    H224588   3.658   5.206   1.180 -0.3842  0.4753 -0.9574
  985TIP3   OH224589   0.185   3.369   7.172 -0.9100  0.8051 -0.6006
  985TIP3    H124590   0.216   3.458   7.157 -2.3083  1.3369 -0.4311
  985TIP3    H224591   0.162   3.336   7.084 -0.1818  0.5089 -0.6917
  986TIP3   OH224592   5.352   2.224   1.223  0.1437 -0.1612 -0.6130
  986TIP3    H124593   5.352   2.227   1.318 -0.6911 -0.1587 -0.6043
  986TIP3    H224594   5.283   2.286   1.197 -0.0842 -0.6425 -1.1907
  987TIP3   OH224595   3.289   6.533   7.392 -0.6327  0.1439  0.2606
  987TIP3    H124596   3.319   6.595   7.326 -1.4678 -0.4646 -0.7150
  987TIP3    H224597   3.247   6.588   7.459  1.0496  0.8437  0.7829
  988TIP3   OH224598   1.718   2.101   0.472 -0.1869  0.2731 -0.3638
  988TIP3    H124599   1.697   2.017   0.513  0.0129 -0.1915 -1.1915
  988TIP3    H224600   1.639   2.124   0.423 -0.2992  0.6577 -0.0155
  989TIP3   OH224601   5.262   1.373   0.157 -0.0327  0.5132 -0.3307
  989TIP3    H124602   5.273   1.285   0.121  0.0547  1.4898 -2.9386
  989TIP3    H224603   5.181   1.369   0.208 -0.4452 -0.8997 -1.0459
  990TIP3   OH224604   3.372   5.804   7.145  0.4302  0.3026 -0.5205
  990TIP3    H124605   3.463   5.821   7.169  1.1105 -3.0923 -0.2255
  990TIP3    H224606   3.351   5.721   7.188 -2.3192  0.2177 -1.8347
  991TIP3   OH224607   3.800   0.406   0.199  0.7164  0.0602  0.5795
  991TIP3    H124608   3.868   0.409   0.265  0.5941  0.9590  0.6652
  991TIP3    H224609   3.761   0.493   0.199 -0.2631 -0.3624  0.3514
  992TIP3   OH224610   4.973   4.146   6.487 -0.3248 -0.1642 -0.0755
  992TIP3    H124611   4.929   4.131   6.404 -2.6906 -0.3983  1.1419
  992TIP3    H224612   4.936   4.228   6.520  2.1674  1.1121 -0.1725
  993TIP3   OH224613   0.874   2.624   6.123 -0.6001 -0.0514  0.3275
  993TIP3    H124614   0.827   2.696   6.165  1.0440  0.5127  1.2737
  993TIP3    H224615   0.920   2.664   6.049  0.1232 -0.1739  0.7069
  994TIP3   OH224616   4.792   6.087   7.513 -0.2073  0.4320  0.0167
  994TIP3    H124617   4.787   5.999   7.550 -2.4100  0.1940 -0.7009
  994TIP3    H224618   4.805   6.144   7.589  1.2886 -0.4927  0.4815
  995TIP3   OH224619   3.534   1.059   8.148 -0.1378  0.1207 -0.2266
  995TIP3    H124620   3.526   0.989   8.083 -0.7086  2.1756 -2.5029
  995TIP3    H224621   3.592   1.023   8.215 -0.3323 -2.4771 -1.3421
  996TIP3   OH224622   1.660   6.790   0.105  0.2897 -0.4361 -0.0998
  996TIP3    H124623   1.634   6.822   0.191  0.0497 -1.2415  0.1302
  996TIP3    H224624   1.752   6.765   0.116  0.6704  0.6992 -0.4411
  997TIP3   OH224625   2.943   7.043   1.103  0.1732 -0.0843 -0.5057
  997TIP3    H124626   2.933   6.967   1.159 -0.3859  0.4846  0.1867
  997TIP3    H224627   2.864   7.095   1.117  0.6361  0.7337 -0.7865
  998TIP3   OH224628   6.746   1.077   7.253  0.0512 -0.3231  0.1269
  998TIP3    H124629   6.784   0.990   7.260  2.1632  0.4404 -0.7608
  998TIP3    H224630   6.768   1.106   7.164 -0.5480  1.1265  0.4137
  999TIP3   OH224631   5.584   3.615   0.948 -0.3244  0.1678 -0.2718
  999TIP3    H124632   5.642   3.548   0.984  2.3145  1.4571 -1.7946
  999TIP3    H224633   5.611   3.696   0.992 -1.8646  0.6580 -0.1459
 1000TIP3   OH224634   0.838   1.350   0.330 -0.2159 -0.0911  0.1133
 1000TIP3    H124635   0.828   1.359   0.235 -0.0067 -2.1701 -0.1508
 1000TIP3    H224636   0.767   1.402   0.367 -1.2247 -0.4508 -1.2337
 1001TIP3   OH224637   6.579   6.235   0.875  0.0201 -0.2474 -0.2020
 1001TIP3    H124638   6.584   6.275   0.788  2.2394 -0.4729 -0.2290
 1001TIP3    H224639   6.628   6.294   0.931 -4.0070  1.6514  1.7378
 1002TIP3   OH224640   0.563   2.226   7.852  0.2898  0.1159 -0.1249
 1002TIP3    H124641   0.608   2.193   7.929  0.4180  0.6833  0.0529
 1002TIP3    H224642   0.470   2.214   7.871  0.2514  1.5227  0.7340
 1003TIP3   OH224643   4.583   3.315   7.952  0.2223  0.3789  0.3452
 1003TIP3    H124644   4.643   3.309   7.878  0.8313 -0.2210  0.8746
 1003TIP3    H224645   4.524   3.387   7.930  1.4283  1.2976  0.0318
 1004TIP3   OH224646   6.092   2.996   6.270  0.0670 -0.1137 -0.0122
 1004TIP3    H124647   6.158   2.953   6.216  0.8123  1.7934 -0.6917
 1004TIP3    H224648   6.127   3.083   6.287 -1.5062  0.3628  1.0882
 1005TIP3   OH224649   0.580   0.716   1.246 -0.0889 -0.1468  0.4785
 1005TIP3    H124650   0.656   0.671   1.282 -0.4451 -0.5202  0.7642
 1005TIP3    H224651   0.610   0.747   1.160  0.5279  0.1130  0.7779
 1006TIP3   OH224652   6.596   4.475   7.894  0.1323  0.1207  0.5031
 1006TIP3    H124653   6.541   4.477   7.972  0.1390 -3.3546  0.7621
 1006TIP3    H224654   6.555   4.408   7.838  1.8841  0.2924 -1.0759
 1007TIP3   OH224655   2.793   5.341   8.210 -0.5129 -0.7001  0.6242
 1007TIP3    H124656   2.873   5.327   8.260 -0.7855 -0.9666  0.9958
 1007TIP3    H224657   2.724   5.343   8.277 -0.8730 -0.9641  0.2634
 1008TIP3   OH224658   3.197   6.083   7.678 -0.0031  0.0138  0.0562
 1008TIP3    H124659   3.115   6.131   7.689  0.4520  0.5812  1.1340
 1008TIP3    H224660   3.218   6.092   7.585 -0.9440  0.2084 -0.1471
 1009TIP3   OH224661   3.655   4.974   7.751  0.1485  0.1146  0.0754
 1009TIP3    H124662   3.707   4.893   7.750  0.1446  0.1072 -1.1589
 1009TIP3    H224663   3.613   4.977   7.665 -2.4172 -0.1772  1.2357
 1010TIP3   OH224664   6.846   2.072   6.843 -0.0863  1.0035 -1.1869
 1010TIP3    H124665   6.854   2.103   6.934  1.1902 -3.1596  0.3534
 1010TIP3    H224666   6.937   2.060   6.814 -0.3683 -2.0880 -1.1496
 1011TIP3   OH224667   0.499   3.502   6.430 -0.0101 -0.2843  0.1821
 1011TIP3    H124668   0.430   3.496   6.363 -0.0850 -1.2297  0.3375
 1011TIP3    H224669   0.556   3.428   6.411  0.2428 -0.2617  0.8652
 1012TIP3   OH224670   4.945   5.058   0.020  0.1711 -0.2708  0.5164
 1012TIP3    H124671   4.912   4.981  -0.025  0.6389  0.0159 -0.3476
 1012TIP3    H224672   4.886   5.071   0.093 -1.8169  0.3648 -1.1007
 1013TIP3   OH224673   5.081   3.514   1.641  0.1425 -0.1861 -0.0600
 1013TIP3    H124674   5.017   3.457   1.682 -0.7552 -1.1587 -2.6161
 1013TIP3    H224675   5.130   3.552   1.714 -1.5983 -1.4395  1.8572
 1014TIP3   OH224676   4.091   6.469   6.934  0.5971  0.2620  0.1125
 1014TIP3    H124677   4.011   6.467   6.881 -0.4471 -1.5264  1.6095
 1014TIP3    H224678   4.145   6.536   6.894 -1.8532  1.9039 -0.6758
 1015TIP3   OH224679   3.585   2.226   7.521  0.1009 -0.1480  0.3443
 1015TIP3    H124680   3.640   2.151   7.497  0.3644  0.2902 -0.4600
 1015TIP3    H224681   3.551   2.258   7.438  0.2830  0.8444  0.6377
 1016TIP3   OH224682   3.207   0.959   8.037  0.2395  0.6785 -0.3428
 1016TIP3    H124683   3.281   0.975   7.978  0.6549  0.8750  0.2203
 1016TIP3    H224684   3.166   0.880   8.003  0.4484  0.8118 -0.9193
 1017TIP3   OH224685   1.029   6.421   5.529 -0.0829  0.3921 -0.6714
 1017TIP3    H124686   1.039   6.332   5.563 -1.7915  0.3482 -0.2181
 1017TIP3    H224687   1.105   6.433   5.472 -0.4274 -1.7913 -1.6824
 1018TIP3   OH224688   6.856   1.801   5.672  0.6055  0.6085 -0.0778
 1018TIP3    H124689   6.844   1.709   5.694  0.6404  0.4820 -0.5783
 1018TIP3    H224690   6.928   1.830   5.728  0.9942  0.1722 -0.3462
 1019TIP3   OH224691   3.288   4.894   7.301 -0.4307 -0.0389  0.2994
 1019TIP3    H124692   3.261   4.849   7.381  0.5840 -0.8663  0.1814
 1019TIP3    H224693   3.381   4.911   7.312 -0.1908 -0.5278 -0.8859
 1020TIP3   OH224694   0.727   0.194   1.025 -0.1982  0.2085  0.1208
 1020TIP3    H124695   0.734   0.213   0.931 -0.2837  2.7523  0.5597
 1020TIP3    H224696   0.652   0.135   1.032  0.1628 -0.4840 -1.4423
 1021TIP3   OH224697   1.112   6.337   1.543 -0.2924 -0.1695 -0.3437
 1021TIP3    H124698   1.122   6.401   1.614 -1.4195  0.9019 -1.1139
 1021TIP3    H224699   1.146   6.381   1.465 -1.4471 -0.3436 -0.9664
 1022TIP3   OH224700   4.628   2.590   0.634  0.5122 -0.6046  0.1502
 1022TIP3    H124701   4.557   2.545   0.589  1.2124 -3.1500  1.3901
 1022TIP3    H224702   4.593   2.610   0.721  0.7908 -0.3580  0.2079
 1023TIP3   OH224703   4.943   4.960   1.196  0.2195 -0.2179 -0.0363
 1023TIP3    H124704   4.964   4.935   1.286 -2.3292 -1.8480  0.1928
 1023TIP3    H224705   4.938   5.056   1.199 -2.0384 -0.2974  2.1716
 1024TIP3   OH224706   0.741   1.753   7.579 -0.5348 -0.1495 -0.3789
 1024TIP3    H124707   0.799   1.815   7.534  1.1847 -1.7994 -0.5980
 1024TIP3    H224708   0.682   1.721   7.510 -0.5459  0.2689 -0.5636
 1025TIP3   OH224709   3.042   1.345   1.353  0.5150 -0.3396 -0.8129
 1025TIP3    H124710   3.070   1.254   1.344  2.1008  0.1689 -1.3517
 1025TIP3    H224711   3.030   1.376   1.264  0.4298  0.1085 -0.6484
 1026TIP3   OH224712   1.695   4.925   7.321  0.1609 -0.1119  0.0584
 1026TIP3    H124713   1.600   4.920   7.312 -0.0371  0.3137  1.6450
 1026TIP3    H224714   1.719   5.008   7.281  0.0951 -0.9422 -1.7953
 1027TIP3   OH224715   1.613   4.219   0.347 -0.5171 -0.0792  0.2841
 1027TIP3    H124716   1.607   4.296   0.403  0.9746 -0.9687  1.7557
 1027TIP3    H224717   1.696   4.229   0.301  0.5614 -1.5966  1.7997
 1028TIP3   OH224718   1.119   6.174   1.764 -0.3439 -0.2344  0.2777
 1028TIP3    H124719   1.181   6.110   1.800  2.3828  1.3926 -1.1629
 1028TIP3    H224720   1.157   6.200   1.680 -3.5796  0.1867 -1.1898
 1029TIP3   OH224721   2.256   1.961   0.565  0.4535 -0.0722  0.6429
 1029TIP3    H124722   2.255   1.926   0.654  1.3263 -0.1311  0.6390
 1029TIP3    H224723   2.177   1.926   0.524  0.4803 -0.7232  1.1371
 1030TIP3   OH224724   6.425   5.279   7.678  0.1466 -0.0787  0.2386
 1030TIP3    H124725   6.493   5.288   7.611  0.2558  1.4219  0.5247
 1030TIP3    H224726   6.466   5.310   7.759 -0.7283  0.4194  0.5014
 1031TIP3   OH224727   5.499   0.842   7.765 -0.0530 -0.0401  0.4604
 1031TIP3    H124728   5.497   0.747   7.755  0.7703  0.0184 -0.3413
 1031TIP3    H224729   5.581   0.859   7.812  0.5657  0.3832 -0.7520
 1032TIP3   OH224730   4.708   2.308   7.956  0.0317 -0.2724 -0.5584
 1032TIP3    H124731   4.621   2.273   7.936 -0.6831  0.9710  0.2803
 1032TIP3    H224732   4.744   2.248   8.021 -0.8868  0.1078  0.3266
 1033TIP3   OH224733   5.516   5.168   7.393 -0.1721  0.0901 -0.6461
 1033TIP3    H124734   5.528   5.103   7.462  1.3777  0.1518 -0.8110
 1033TIP3    H224735   5.578   5.238   7.415 -2.3933  1.9598 -0.0008
 1034TIP3   OH224736   6.299   6.160   0.920  0.0147  0.5576 -0.1791
 1034TIP3    H124737   6.257   6.246   0.920  0.9913  1.0661 -1.4585
 1034TIP3    H224738   6.385   6.175   0.880  0.9334 -0.6833  1.2523
 1035TIP3   OH224739   3.786   2.711   0.675 -0.0339 -0.4024 -0.2567
 1035TIP3    H124740   3.817   2.783   0.620  1.3834 -0.9448 -0.1919
 1035TIP3    H224741   3.774   2.638   0.614  2.3390 -1.2500  0.2206
 1036TIP3   OH224742   3.758   5.567   6.709 -0.1208  0.0512 -0.6163
 1036TIP3    H124743   3.846   5.605   6.718 -0.8462  1.6702  0.1342
 1036TIP3    H224744   3.740   5.570   6.615  1.0009 -1.2723 -0.9087
 1037TIP3   OH224745   5.333   6.000   7.017  0.0679 -0.4818 -0.2746
 1037TIP3    H124746   5.409   5.953   7.052  0.5206 -0.6912 -1.4914
 1037TIP3    H224747   5.279   6.020   7.094  2.9900  2.7996  1.1863
 1038TIP3   OH224748   0.815   6.113   0.479  0.2702 -0.0391 -0.1735
 1038TIP3    H124749   0.887   6.093   0.419  0.6260  1.7875 -0.4351
 1038TIP3    H224750   0.762   6.177   0.431  0.3861  1.2252  1.3251
 1039TIP3   OH224751   3.384   6.563   0.301 -0.4305 -0.1805 -0.0204
 1039TIP3    H124752   3.401   6.468   0.305 -1.3913 -0.3548  0.1751
 1039TIP3    H224753   3.471   6.602   0.294 -0.0415 -1.1013 -0.5653
 1040TIP3   OH224754   4.118   2.929   6.871 -0.1930 -0.1127  0.6993
 1040TIP3    H124755   4.152   2.984   6.941  0.9171 -2.1761  1.9101
 1040TIP3    H224756   4.121   2.840   6.907 -2.8825 -0.9069 -0.7520
 1041TIP3   OH224757   2.655   3.720   6.491  0.4843  0.4773  0.0628
 1041TIP3    H124758   2.622   3.699   6.403  0.7389  0.0799  0.0581
 1041TIP3    H224759   2.576   3.725   6.545  0.3893 -0.1750 -0.0080
 1042TIP3   OH224760   4.867   6.511   6.651 -0.2619  0.1177 -0.6433
 1042TIP3    H124761   4.909   6.564   6.584  1.1096  1.5075  1.1838
 1042TIP3    H224762   4.774   6.532   6.645  0.0825  1.6507 -0.9101
 1043TIP3   OH224763   5.109   3.895   0.785  0.2822 -0.3642 -0.4667
 1043TIP3    H124764   5.134   3.803   0.791 -2.3491 -1.0640  1.0833
 1043TIP3    H224765   5.157   3.937   0.857 -1.3979 -1.3225  1.2955
 1044TIP3   OH224766   3.489   0.604   7.970 -0.0747 -0.2603 -0.1522
 1044TIP3    H124767   3.443   0.543   8.028  0.3559  0.5211  1.0551
 1044TIP3    H224768   3.551   0.549   7.922  3.0256 -0.4921  3.5799
 1045TIP3   OH224769   6.838   3.936   6.695  0.6025  0.2774 -0.5848
 1045TIP3    H124770   6.871   3.848   6.713  0.9142  0.6279  0.6796
 1045TIP3    H224771   6.885   3.964   6.617  0.9845 -0.4269 -0.6176
 1046TIP3   OH224772   6.064   1.622   7.887 -0.0072 -0.0650  0.0007
 1046TIP3    H124773   6.077   1.548   7.828  2.2161  1.2466 -1.3201
 1046TIP3    H224774   6.150   1.639   7.923 -0.5805  1.5182  0.7123
 1047TIP3   OH224775   4.706   6.448   1.532  0.1371 -0.6933  0.3412
 1047TIP3    H124776   4.674   6.363   1.504 -2.5140 -0.0832  1.2171
 1047TIP3    H224777   4.669   6.460   1.619 -2.6134  2.7229 -1.0310
 1048TIP3   OH224778   3.049   4.617   1.986  0.1483  0.1457  0.1104
 1048TIP3    H124779   3.047   4.589   2.078  2.3688  0.4552  0.3022
 1048TIP3    H224780   3.102   4.551   1.942 -2.5870 -1.1696 -1.4601
 1049TIP3   OH224781   1.400   5.329   8.052 -0.8860  0.1111 -0.0126
 1049TIP3    H124782   1.389   5.247   8.098 -3.6140  0.0329 -0.6495
 1049TIP3    H224783   1.413   5.394   8.121 -2.1822 -0.3926  0.7489
 1050TIP3   OH224784   4.259   6.362   1.777  0.2474 -0.3600  0.2438
 1050TIP3    H124785   4.276   6.333   1.866 -0.7661  1.6256  1.1311
 1050TIP3    H224786   4.342   6.398   1.747 -0.0936  1.6535  1.5172
 1051TIP3   OH224787   0.270   3.592   1.260  0.3213  0.0308  0.1861
 1051TIP3    H124788   0.178   3.574   1.278  0.4196 -0.9419 -0.2276
 1051TIP3    H224789   0.313   3.583   1.345  0.3465 -1.6508  0.0250
 1052TIP3   OH224790   0.217   0.160   7.876  0.0723  0.3320 -0.0365
 1052TIP3    H124791   0.223   0.170   7.971  0.2836 -0.9522  0.0900
 1052TIP3    H224792   0.138   0.108   7.862 -0.9925  2.0350 -0.6923
 1053TIP3   OH224793   7.074   3.783   7.217  0.6028 -0.4066 -0.3905
 1053TIP3    H124794   7.143   3.731   7.176  0.7248 -1.7676  1.3874
 1053TIP3    H224795   7.116   3.819   7.296 -0.2542  0.1258 -0.1666
 1054TIP3   OH224796   5.957   5.659   7.891  0.2461  0.2203 -0.0880
 1054TIP3    H124797   5.969   5.650   7.796  0.5325  0.7842 -0.1121
 1054TIP3    H224798   6.040   5.628   7.928  0.3716  0.5961 -0.0550
 1055TIP3   OH224799   0.690   0.873   2.060 -0.3699 -0.0308 -0.2850
 1055TIP3    H124800   0.765   0.902   2.111 -0.0887  0.0211 -0.7202
 1055TIP3    H224801   0.728   0.828   1.984 -0.7995 -1.5705  0.3870
 1056TIP3   OH224802   0.667   1.474   6.755  0.1127 -0.2045  0.3855
 1056TIP3    H124803   0.671   1.381   6.730  0.1130 -0.6605  1.9696
 1056TIP3    H224804   0.585   1.481   6.804 -0.7567  1.0352 -1.1718
 1057TIP3   OH224805   5.211   1.891   0.328 -0.2053  0.2984 -0.2833
 1057TIP3    H124806   5.265   1.829   0.278 -0.4569  0.8954 -1.3187
 1057TIP3    H224807   5.193   1.962   0.266 -1.0546  0.7534  0.4729
 1058TIP3   OH224808   4.228   3.770   2.219  0.5118 -0.4078  0.0015
 1058TIP3    H124809   4.213   3.864   2.228  0.7854 -0.3623 -0.0176
 1058TIP3    H224810   4.322   3.759   2.230  0.3107 -0.8507  1.4873
 1059TIP3   OH224811   3.295   0.977   0.287  0.0027 -0.4333 -0.3024
 1059TIP3    H124812   3.282   1.015   0.200 -0.9274  1.3468  0.5703
 1059TIP3    H224813   3.297   0.882   0.272  0.2320 -0.1446 -2.2946
 1060TIP3   OH224814   0.360   0.839   7.838  0.0656  0.2641  0.8437
 1060TIP3    H124815   0.271   0.825   7.871  0.1200 -0.3519  0.7233
 1060TIP3    H224816   0.348   0.898   7.763 -0.3587 -0.7375  0.1084
 1061TIP3   OH224817   6.729   1.089   7.530 -0.0940 -0.4500  0.7051
 1061TIP3    H124818   6.718   1.066   7.438  0.5499 -1.9085  0.9493
 1061TIP3    H224819   6.810   1.140   7.532 -0.8880  0.8622  0.2978
 1062TIP3   OH224820   6.725   3.515   0.326 -0.0780  0.1703  0.1399
 1062TIP3    H124821   6.788   3.493   0.257 -0.4639 -0.0277 -0.1522
 1062TIP3    H224822   6.745   3.454   0.397 -1.8742 -2.0392 -1.0786
 1063TIP3   OH224823   1.749   6.494   1.107 -0.2821  0.1271  0.2846
 1063TIP3    H124824   1.760   6.577   1.060  0.5970 -0.4146 -0.5164
 1063TIP3    H224825   1.807   6.433   1.061  0.1496 -0.5826  1.7105
 1064TIP3   OH224826   4.441   4.519   0.907  0.1308 -0.5545  0.0839
 1064TIP3    H124827   4.432   4.425   0.926  0.8432 -0.9590 -1.3990
 1064TIP3    H224828   4.357   4.557   0.932 -0.6435 -1.8231 -0.4846
 1065TIP3   OH224829   1.513   3.209   1.281 -0.1700 -0.4288 -0.2227
 1065TIP3    H124830   1.418   3.199   1.291 -0.6586  3.5011  0.5722
 1065TIP3    H224831   1.548   3.195   1.369 -0.2135 -0.3193 -0.1877
 1066TIP3   OH224832   6.200   1.702   0.490 -0.4368  0.2844 -0.2029
 1066TIP3    H124833   6.121   1.686   0.541  0.7754  0.1610  1.7169
 1066TIP3    H224834   6.256   1.626   0.506  0.6943  1.0631 -0.2701
 1067TIP3   OH224835   6.700   0.784   7.105  0.7803 -1.0780 -0.0319
 1067TIP3    H124836   6.696   0.701   7.151 -2.2003 -0.7114  0.5603
 1067TIP3    H224837   6.716   0.761   7.014 -2.3333 -2.5914 -0.3148
 1068TIP3   OH224838   5.128   1.571   1.274 -0.1867 -0.0465 -0.4721
 1068TIP3    H124839   5.080   1.638   1.323 -2.4227 -1.7798 -0.1747
 1068TIP3    H224840   5.102   1.586   1.183  1.8367  1.4317 -0.8861
 1069TIP3   OH224841   2.733   6.792   1.070  0.0584 -0.2882 -0.4310
 1069TIP3    H124842   2.658   6.813   1.125  1.3436 -0.1126  1.3414
 1069TIP3    H224843   2.706   6.817   0.981 -3.2133 -3.3774 -0.4933
 1070TIP3   OH224844   1.046   3.575   7.006  0.3655 -0.1444  0.0945
 1070TIP3    H124845   1.118   3.616   6.959  0.9288 -0.5924  0.5527
 1070TIP3    H224846   1.011   3.644   7.062  0.5203  0.0409 -0.0374
 1071TIP3   OH224847   4.533   5.898   2.020 -0.7663  0.0253  0.0198
 1071TIP3    H124848   4.439   5.894   2.033 -0.7390 -1.2946 -0.0604
 1071TIP3    H224849   4.553   5.824   1.963  0.2731  0.5007 -0.2682
 1072TIP3   OH224850   6.880   7.081   1.283 -0.2270 -0.0952 -0.2695
 1072TIP3    H124851   6.829   7.143   1.231  0.9022 -0.9560 -2.5176
 1072TIP3    H224852   6.949   7.134   1.323  0.6232  0.1944 -2.0289
 1073TIP3   OH224853   1.565   6.584   6.637 -0.3795 -0.1150 -0.0239
 1073TIP3    H124854   1.599   6.495   6.646  0.8321  0.3364 -0.0830
 1073TIP3    H224855   1.640   6.636   6.610 -0.7816  1.1848  1.2789
 1074TIP3   OH224856   5.136   1.648   8.030  0.6482 -0.1321  0.3893
 1074TIP3    H124857   5.100   1.562   8.006 -3.5691  1.8239 -1.3678
 1074TIP3    H224858   5.097   1.667   8.115  1.0356  0.3359  0.4663
 1075TIP3   OH224859   0.539   1.776   7.005 -0.7833 -0.6287  0.0453
 1075TIP3    H124860   0.502   1.689   6.993  0.4246 -1.1563 -0.0549
 1075TIP3    H224861   0.633   1.764   6.987 -0.7384  0.8711 -0.8243
 1076TIP3   OH224862   3.976   3.911   8.257 -0.0996  0.4742  0.3651
 1076TIP3    H124863   3.894   3.951   8.230  0.3734  0.6998 -0.8295
 1076TIP3    H224864   4.029   3.984   8.289 -0.2584  0.3689  0.8773
 1077TIP3   OH224865   1.983   3.420   7.664 -0.6203  1.0085 -0.3810
 1077TIP3    H124866   1.914   3.391   7.604 -0.7666 -0.2103  0.3473
 1077TIP3    H224867   2.029   3.489   7.616  0.0445 -0.7562 -2.4002
 1078TIP3   OH224868   7.065   5.039   0.366  0.0728 -0.3539 -0.0359
 1078TIP3    H124869   7.147   5.080   0.338  0.2228  0.0165  0.9302
 1078TIP3    H224870   6.998   5.102   0.342  0.3723  0.9241  2.2254
 1079TIP3   OH224871   1.922   6.817   0.336 -0.3805  0.4107 -0.1006
 1079TIP3    H124872   1.907   6.908   0.313 -0.2239  1.0216  2.0478
 1079TIP3    H224873   1.857   6.798   0.404 -0.9136 -1.3247 -1.0240
 1080TIP3   OH224874   6.520   3.682   0.630  0.4652  0.0595  0.4759
 1080TIP3    H124875   6.496   3.678   0.537  2.5519 -0.1484 -0.0920
 1080TIP3    H224876   6.436   3.676   0.676 -0.7261  1.4659 -1.3900
 1081TIP3   OH224877   1.552   2.395   7.943 -0.4493 -0.0438  0.2466
 1081TIP3    H124878   1.626   2.427   7.994 -0.5327  0.0474  0.3092
 1081TIP3    H224879   1.530   2.311   7.983  1.7573 -1.7376 -1.8027
 1082TIP3   OH224880   4.410   2.560   6.606  0.2131 -0.0237  0.0540
 1082TIP3    H124881   4.461   2.620   6.551  1.1169 -0.6757  0.1558
 1082TIP3    H224882   4.408   2.478   6.557 -3.9376  0.8939 -1.7637
 1083TIP3   OH224883   6.271   3.755   6.965  0.0922  0.2387 -0.3673
 1083TIP3    H124884   6.281   3.762   6.870  0.7239 -0.2000 -0.3375
 1083TIP3    H224885   6.273   3.845   6.996  2.8124  0.3146 -0.4987
 1084TIP3   OH224886   0.100   5.321   7.485  0.1906 -0.4170 -0.6797
 1084TIP3    H124887   0.165   5.264   7.444  1.2617  0.5990 -0.4659
 1084TIP3    H224888   0.144   5.406   7.491 -0.4569 -0.1747  1.2373
 1085TIP3   OH224889   5.840   5.854   8.053 -0.3291 -0.5038 -0.2650
 1085TIP3    H124890   5.866   5.790   7.987 -2.0308 -2.3596  0.7639
 1085TIP3    H224891   5.902   5.841   8.125 -0.4333 -0.6959 -0.2121
 1086TIP3   OH224892   1.726   0.780   7.887  0.0337  0.7730 -0.1685
 1086TIP3    H124893   1.693   0.695   7.859  2.3879 -0.6631  1.1416
 1086TIP3    H224894   1.670   0.804   7.961  0.2120 -0.3034  0.3240
 1087TIP3   OH224895   0.223   2.108   6.164 -0.3198  0.1470  0.4155
 1087TIP3    H124896   0.228   2.195   6.204 -0.9266  0.0665  0.6674
 1087TIP3    H224897   0.219   2.048   6.239  2.0476 -0.2557  0.3131
 1088TIP3   OH224898   4.133   2.503   8.022  0.0864 -0.0025  0.3953
 1088TIP3    H124899   4.136   2.588   8.068  0.2995  1.2024 -1.7075
 1088TIP3    H224900   4.217   2.497   7.978 -0.5610 -0.5191 -0.8144
 1089TIP3   OH224901   6.326   6.017   6.707  0.1011 -0.0314 -0.4460
 1089TIP3    H124902   6.413   6.055   6.695 -0.0024  0.0742 -0.8693
 1089TIP3    H224903   6.340   5.923   6.696 -0.2228  0.1482 -2.9124
 1090TIP3   OH224904   5.266   0.740   7.132  0.3122 -0.2377  0.2097
 1090TIP3    H124905   5.301   0.715   7.217 -0.7510  1.9057  1.3332
 1090TIP3    H224906   5.263   0.658   7.083 -0.7454 -1.8962  2.8326
 1091TIP3   OH224907   2.714   1.949   7.752 -0.0583  0.6408 -0.2159
 1091TIP3    H124908   2.786   1.965   7.812  0.7453  0.5094 -1.1319
 1091TIP3    H224909   2.639   1.932   7.809  0.4378  1.5762  0.7495
 1092TIP3   OH224910   6.606   3.233   1.263 -0.3779  0.2628 -0.3416
 1092TIP3    H124911   6.522   3.205   1.226 -0.4117 -1.2904  0.7983
 1092TIP3    H224912   6.589   3.242   1.356  1.1523 -2.1560  0.2738
 1093TIP3   OH224913   0.089   0.476   8.064 -1.3042  0.6429 -0.0303
 1093TIP3    H124914   0.150   0.502   7.995 -2.3503  1.0536 -0.8100
 1093TIP3    H224915   0.013   0.441   8.018 -1.7251  0.2544  0.9301
 1094TIP3   OH224916   4.036   3.107   1.407 -0.1419 -0.4671  0.4692
 1094TIP3    H124917   4.014   3.048   1.334 -2.0405  0.3600  0.3207
 1094TIP3    H224918   3.955   3.115   1.457  1.0264 -0.6989  2.4839
 1095TIP3   OH224919   4.015   5.382   6.479 -0.3694  0.3802 -0.5434
 1095TIP3    H124920   4.046   5.473   6.474 -2.7098  1.2317 -1.3118
 1095TIP3    H224921   4.073   5.340   6.542  1.7026  1.9961 -1.2441
 1096TIP3   OH224922   1.266   1.975   0.105 -0.0848 -0.2273 -0.6706
 1096TIP3    H124923   1.289   1.893   0.062  0.7507  0.9486 -2.6015
 1096TIP3    H224924   1.218   2.025   0.038 -0.6524  0.8360  0.4841
 1097TIP3   OH224925   5.992   6.265   7.777 -0.0056  0.1237  0.0908
 1097TIP3    H124926   5.972   6.216   7.857  2.0306 -0.5187  0.2642
 1097TIP3    H224927   5.978   6.201   7.707 -0.3466  0.2377  0.0537
 1098TIP3   OH224928   5.979   2.451   7.353  0.3798 -0.0351 -0.2455
 1098TIP3    H124929   5.935   2.376   7.313 -1.9155  0.9350  0.2891
 1098TIP3    H224930   6.023   2.415   7.430  1.6084 -1.2568 -1.4855
 1099TIP3   OH224931   0.189   2.583   0.702 -0.1586  0.0279  0.2661
 1099TIP3    H124932   0.129   2.603   0.774 -0.2863 -0.5132  0.3132
 1099TIP3    H224933   0.132   2.577   0.625  0.2792  3.6276 -0.5107
 1100TIP3   OH224934   5.614   0.336   0.580 -0.2324  0.1215  0.0348
 1100TIP3    H124935   5.626   0.402   0.648  0.0095 -0.8565  0.9632
 1100TIP3    H224936   5.578   0.385   0.506  1.2946  1.5531  0.1848
 1101TIP3   OH224937   4.182   6.232   6.737 -0.1163 -0.1022  0.1883
 1101TIP3    H124938   4.230   6.268   6.811  2.2649  0.6686 -1.5794
 1101TIP3    H224939   4.185   6.301   6.671 -1.0356 -1.2202 -1.0793
 1102TIP3   OH224940   5.961   1.378   1.616 -0.1548 -0.5309 -0.3204
 1102TIP3    H124941   5.898   1.388   1.544 -3.0530 -0.9335  1.9723
 1102TIP3    H224942   5.973   1.283   1.624  0.1753 -0.4870 -0.2749
 1103TIP3   OH224943   6.449   1.285   7.493 -0.1932 -0.0616  0.2714
 1103TIP3    H124944   6.526   1.254   7.541  0.2081 -0.6284 -0.7145
 1103TIP3    H224945   6.430   1.370   7.533  0.3944 -0.3061  1.1298
 1104TIP3   OH224946   1.038   5.591   0.624  0.1252 -0.2893  0.1496
 1104TIP3    H124947   0.991   5.657   0.572  0.6900 -1.1311 -1.4972
 1104TIP3    H224948   1.108   5.640   0.666 -0.3663  0.4286  0.1517
 1105TIP3   OH224949   5.363   0.447   7.748  0.0030 -0.0520  0.5506
 1105TIP3    H124950   5.356   0.460   7.654 -1.3048  0.1083  0.6515
 1105TIP3    H224951   5.457   0.447   7.765  0.2623 -0.2256 -0.7651
 1106TIP3   OH224952   3.972   5.863   0.613  0.0079  0.1160 -0.5928
 1106TIP3    H124953   3.988   5.795   0.678 -0.9271  2.1231  1.9113
 1106TIP3    H224954   3.877   5.859   0.597 -0.3225  1.6528  0.6910
 1107TIP3   OH224955   4.012   4.253   1.332 -0.1938  0.4437 -0.2192
 1107TIP3    H124956   3.968   4.235   1.415 -0.9112  0.8913 -0.4924
 1107TIP3    H224957   3.956   4.317   1.288 -0.4690 -0.6610 -1.5799
 1108TIP3   OH224958   0.705   5.579   1.221 -0.0363 -0.1172 -0.5801
 1108TIP3    H124959   0.791   5.621   1.220  0.2779 -0.6021  1.7052
 1108TIP3    H224960   0.723   5.487   1.205 -0.0441 -0.3177  0.5174
 1109TIP3   OH224961   4.847   2.408   0.972 -0.3011 -0.0362  0.0189
 1109TIP3    H124962   4.762   2.374   1.002  0.4762  0.1456  2.6654
 1109TIP3    H224963   4.839   2.503   0.982  0.1644 -0.0090  0.1362
 1110TIP3   OH224964   1.434   5.093   0.671 -0.6657  0.4264 -0.1904
 1110TIP3    H124965   1.467   5.144   0.746  0.6955 -1.0832  0.3032
 1110TIP3    H224966   1.513   5.060   0.628 -1.4429  0.8679 -2.0534
 1111TIP3   OH224967   6.391   5.400   1.564  0.3256  0.2698  0.0931
 1111TIP3    H124968   6.417   5.322   1.514  0.9734  0.6602 -0.1919
 1111TIP3    H224969   6.469   5.422   1.616  0.0535  0.5668  0.3743
 1112TIP3   OH224970   3.664   0.431   7.811 -0.2431 -0.6532 -0.0565
 1112TIP3    H124971   3.708   0.469   7.735 -0.6084  1.0421  0.5305
 1112TIP3    H224972   3.599   0.371   7.774 -0.1726 -0.1259 -1.0812
 1113TIP3   OH224973   0.010   0.914   6.569 -0.5609 -0.0523  0.2131
 1113TIP3    H124974  -0.081   0.937   6.551 -0.4887 -2.2212 -4.4092
 1113TIP3    H224975   0.007   0.825   6.602 -0.1376 -0.2136 -0.1635
 1114TIP3   OH224976   1.575   2.556   0.085 -0.6734  1.0338  0.4127
 1114TIP3    H124977   1.602   2.516   0.168  0.8433  2.2994  0.5794
 1114TIP3    H224978   1.496   2.605   0.106  0.0320  1.8322  1.2712
 1115TIP3   OH224979   4.861   6.475   7.073 -0.2370 -0.2026 -0.3528
 1115TIP3    H124980   4.898   6.387   7.070  0.8666  0.0504  2.4568
 1115TIP3    H224981   4.875   6.510   6.985  0.6229 -2.2860 -1.1227
 1116TIP3   OH224982   4.928   3.400   0.143 -0.2189  0.2133  0.4941
 1116TIP3    H124983   4.984   3.421   0.217 -0.4513 -0.6581  0.9264
 1116TIP3    H224984   4.966   3.321   0.105  0.3242  1.0571 -0.7705
 1117TIP3   OH224985   5.275   4.718   0.021  0.1444  0.1365  0.4860
 1117TIP3    H124986   5.337   4.684   0.086  1.3059 -1.4301 -1.3091
 1117TIP3    H224987   5.231   4.639  -0.013 -1.5376  1.0601  0.4121
 1118TIP3   OH224988   5.743   3.067   6.541 -0.2033  0.2992  0.1431
 1118TIP3    H124989   5.729   3.039   6.450 -0.7161  2.2807 -0.4400
 1118TIP3    H224990   5.838   3.078   6.548  0.0490 -1.7275  0.4799
 1119TIP3   OH224991   0.947   1.259   1.613 -0.0993 -0.6720 -0.0599
 1119TIP3    H124992   1.022   1.215   1.651  0.5442 -0.6342 -1.2441
 1119TIP3    H224993   0.958   1.248   1.518 -2.5839 -2.3575 -0.2580
 1120TIP3   OH224994   2.935   6.713   1.259 -0.0328 -0.0528  0.1087
 1120TIP3    H124995   2.874   6.733   1.188  0.9093 -1.4210 -1.1644
 1120TIP3    H224996   2.880   6.694   1.335 -1.1495 -0.3024 -0.7419
 1121TIP3   OH224997   5.551   6.481   7.679 -0.3429 -0.1095 -0.1607
 1121TIP3    H124998   5.559   6.404   7.623  0.1908 -0.5411  0.4967
 1121TIP3    H224999   5.614   6.466   7.749 -0.4568  0.7847  0.1400
 1122TIP3   OH225000   3.078   2.529   7.161  0.0182 -0.4327  0.5954
 1122TIP3    H125001   2.984   2.513   7.160 -0.2574  1.0350 -0.1419
 1122TIP3    H225002   3.098   2.560   7.072  1.6570 -2.9788 -0.0447
 1123TIP3   OH225003   5.603   2.153   1.601  0.3356 -0.3198  0.1463
 1123TIP3    H125004   5.640   2.127   1.516 -0.4947 -0.3338 -0.2213
 1123TIP3    H225005   5.596   2.070   1.649 -1.0492 -0.6331 -0.5273
 1124TIP3   OH225006   6.537   1.602   7.159  0.0957  0.5879 -0.2375
 1124TIP3    H125007   6.545   1.509   7.180 -0.3926  0.8562  1.1962
 1124TIP3    H225008   6.621   1.624   7.117  0.4774 -0.3342  0.0220
 1125TIP3   OH225009   0.440   1.969   8.066 -0.1422 -0.5991 -0.0963
 1125TIP3    H125010   0.449   1.918   8.147 -0.8953 -0.1230  0.2985
 1125TIP3    H225011   0.527   1.965   8.025  0.5759  0.0586  1.2841
 1126TIP3   OH225012   4.503   6.264   0.381  0.2592  0.0478  0.4007
 1126TIP3    H125013   4.497   6.318   0.302 -0.4794  0.5482  0.7910
 1126TIP3    H225014   4.542   6.182   0.351  0.8378  0.5709 -0.3103
 1127TIP3   OH225015   5.322   3.232   0.524  0.2613  0.6985 -0.3661
 1127TIP3    H125016   5.357   3.288   0.455 -0.6987  0.6020 -0.9519
 1127TIP3    H225017   5.299   3.150   0.479 -2.9126  1.5486 -0.5447
 1128TIP3   OH225018   3.916   6.715   0.527  0.3478 -0.1569  0.4272
 1128TIP3    H125019   3.952   6.747   0.444 -0.5125  0.6525  0.3424
 1128TIP3    H225020   3.992   6.686   0.577  0.7964 -1.7951 -1.0953
 1129TIP3   OH225021   1.850   3.009   0.670  0.2768  0.3016 -0.2410
 1129TIP3    H125022   1.919   2.964   0.719 -0.5467  1.5900  2.3290
 1129TIP3    H225023   1.884   3.098   0.660  0.5297  0.0070 -2.3603
 1130TIP3   OH225024   2.171   6.860   6.180  0.4101  0.8239  0.0434
 1130TIP3    H125025   2.113   6.898   6.115  1.1985 -0.2947 -1.3708
 1130TIP3    H225026   2.198   6.776   6.143  0.0420 -0.3834  2.3054
 1131TIP3   OH225027   5.425   0.156   6.273  0.4218 -0.2620 -0.5212
 1131TIP3    H125028   5.359   0.223   6.290  0.9992 -0.3417  2.6834
 1131TIP3    H225029   5.507   0.205   6.267  0.4941 -0.4510 -1.1269
 1132TIP3   OH225030   0.221   2.794   0.382 -0.1949  0.2990 -0.4924
 1132TIP3    H125031   0.184   2.715   0.421  0.1660  0.5483  0.3635
 1132TIP3    H225032   0.257   2.844   0.456 -0.0618  1.0754 -1.0647
 1133TIP3   OH225033   0.359   4.409   5.679  0.1686 -0.4551  0.3044
 1133TIP3    H125034   0.299   4.422   5.753  0.0732 -1.0102  0.3235
 1133TIP3    H225035   0.338   4.482   5.620  0.8426  0.5029  1.1960
 1134TIP3   OH225036   1.437   5.000   0.396  0.1652  0.1957  0.2261
 1134TIP3    H125037   1.527   5.028   0.414  0.8285 -0.2324 -2.1148
 1134TIP3    H225038   1.415   5.042   0.313 -1.8056  0.2371  0.7247
 1135TIP3   OH225039   5.399   5.854   1.493  0.7412 -0.4246  0.5614
 1135TIP3    H125040   5.394   5.905   1.574 -0.5109 -0.9551  0.8413
 1135TIP3    H225041   5.408   5.920   1.424  1.7931  0.0361  1.1110
 1136TIP3   OH225042   5.098   6.039   7.924  0.1477  0.1272  0.3583
 1136TIP3    H125043   5.086   5.977   7.853  2.0440 -1.2173  1.1256
 1136TIP3    H225044   5.139   6.116   7.883 -0.9512  0.3449 -0.3650
 1137TIP3   OH225045   1.993   3.031   6.271  0.2812 -0.3523  0.2621
 1137TIP3    H125046   2.004   2.947   6.316  4.0472 -0.1385  0.0471
 1137TIP3    H225047   2.082   3.057   6.247 -0.8868  3.0701 -0.9209
 1138TIP3   OH225048   4.859   5.190   7.797 -0.0235 -0.4908 -0.0787
 1138TIP3    H125049   4.826   5.100   7.796  0.8521 -0.8207 -0.8956
 1138TIP3    H225050   4.911   5.196   7.876  1.0221 -1.1376 -0.6921
 1139TIP3   OH225051   1.242   0.637   6.730 -0.0419 -0.2640  0.0127
 1139TIP3    H125052   1.229   0.665   6.639  1.9887 -1.4516 -0.7271
 1139TIP3    H225053   1.211   0.547   6.732 -3.0965  0.6866  1.4215
 1140TIP3   OH225054   1.746   3.192   6.356 -0.1779  0.1604  0.4888
 1140TIP3    H125055   1.803   3.238   6.418 -0.6583 -0.0204  1.0732
 1140TIP3    H225056   1.786   3.105   6.347  3.0365  1.6830 -3.5926
 1141TIP3   OH225057   2.624   6.080   8.207 -0.4436  0.3705 -0.0234
 1141TIP3    H125058   2.688   6.138   8.166 -0.8578  0.9034  0.0670
 1141TIP3    H225059   2.558   6.140   8.243  0.1746 -0.0604  1.8959
 1142TIP3   OH225060   7.041   1.505   7.254  0.4681  0.5378  0.0831
 1142TIP3    H125061   7.077   1.559   7.324  1.6083 -0.0977  0.0059
 1142TIP3    H225062   6.974   1.559   7.214  0.0545  1.0550  1.4214
 1143TIP3   OH225063   5.544   1.323   0.187  0.1757  0.1298 -0.0660
 1143TIP3    H125064   5.564   1.408   0.148  0.2779 -0.5245 -1.5252
 1143TIP3    H225065   5.449   1.313   0.175  0.0929  0.2099  0.4897
 1144TIP3   OH225066   3.836   3.606   8.108 -0.0856 -0.7203 -0.2953
 1144TIP3    H125067   3.844   3.630   8.200  0.1530 -0.7169 -0.3160
 1144TIP3    H225068   3.919   3.564   8.087 -0.5366 -1.6518 -0.2389
 1145TIP3   OH225069   3.927   5.171   7.180 -0.5360 -0.1631 -0.1905
 1145TIP3    H125070   3.840   5.208   7.192  0.2177  1.3309  1.0149
 1145TIP3    H225071   3.918   5.079   7.206 -1.7266  0.0082  0.0363
 1146TIP3   OH225072   3.709   1.015   6.589 -0.0781 -0.5026  0.4865
 1146TIP3    H125073   3.754   1.034   6.507  2.1386  0.5861  1.8484
 1146TIP3    H225074   3.672   0.928   6.577 -0.4977 -0.0592 -1.9174
 1147TIP3   OH225075   2.939   1.036   8.012  0.3924 -0.1997  0.5815
 1147TIP3    H125076   2.884   0.980   8.066  0.8170 -3.0969 -1.7509
 1147TIP3    H225077   3.029   1.016   8.039  0.5944 -1.4846 -0.8990
 1148TIP3   OH225078   4.575   5.689   1.089  0.6191  0.3248 -0.8250
 1148TIP3    H125079   4.503   5.626   1.089  0.5833  0.3216  1.0187
 1148TIP3    H225080   4.541   5.764   1.040 -0.5648  0.2418 -0.1558
 1149TIP3   OH225081   1.350   5.173   6.531 -0.2201 -0.3900 -0.0753
 1149TIP3    H125082   1.380   5.253   6.575 -2.0933  0.6800 -0.6444
 1149TIP3    H225083   1.304   5.203   6.454  2.5553 -2.2134 -2.6776
 1150TIP3   OH225084   0.499   1.362   0.158 -0.4778  0.0891 -0.1866
 1150TIP3    H125085   0.523   1.383   0.068  0.2321  1.6689  0.3407
 1150TIP3    H225086   0.453   1.278   0.152  1.2087 -0.7764 -1.7963
 1151TIP3   OH225087   1.488   2.971   6.496 -0.1078 -0.0853  0.5053
 1151TIP3    H125088   1.416   3.014   6.449 -0.3415  0.1533  1.0783
 1151TIP3    H225089   1.455   2.958   6.585  0.9411  1.0099  1.0845
 1152TIP3   OH225090   5.038   0.566   7.226  0.1855 -0.1267  0.5399
 1152TIP3    H125091   5.056   0.580   7.319  0.4983  1.1056  0.3110
 1152TIP3    H225092   5.009   0.651   7.194  2.2041  0.0672 -0.9540
 1153TIP3   OH225093   0.204   2.212   0.514  0.2744 -0.1727 -0.7796
 1153TIP3    H125094   0.251   2.289   0.544 -0.8834  0.6039 -0.9071
 1153TIP3    H225095   0.204   2.153   0.590 -0.2766  0.6507 -0.1246
 1154TIP3   OH225096   5.753   6.684   7.079 -0.0851  0.5410 -0.0731
 1154TIP3    H125097   5.806   6.738   7.137  0.2687  0.3120 -0.1759
 1154TIP3    H225098   5.705   6.746   7.024 -1.2291  0.7933  1.1490
 1155TIP3   OH225099   3.634   0.382   6.764 -0.1244  0.8211  0.2454
 1155TIP3    H125100   3.553   0.370   6.814 -1.0581  0.6689 -1.2537
 1155TIP3    H225101   3.701   0.392   6.831 -1.3536  0.8319  1.5348
 1156TIP3   OH225102   3.717   5.035   2.230  0.1248 -0.3485 -0.2888
 1156TIP3    H125103   3.632   4.992   2.216 -0.5731  1.0519 -0.4845
 1156TIP3    H225104   3.737   5.074   2.145  0.0276  0.9442  0.2669
 1157TIP3   OH225105   3.566   3.790   0.679 -0.5399  0.4218  0.0450
 1157TIP3    H125106   3.551   3.852   0.751  2.3285 -1.0367  2.1314
 1157TIP3    H225107   3.494   3.728   0.686 -1.1820  1.2112  0.6382
 1158TIP3   OH225108   6.965   6.103   1.296  0.0285 -0.2034  0.2837
 1158TIP3    H125109   7.033   6.063   1.242  0.0662 -0.4154  0.4892
 1158TIP3    H225110   6.885   6.096   1.243 -0.1369 -1.3047  0.6662
 1159TIP3   OH225111   0.268   2.251   1.426  0.1867  0.3812  0.3589
 1159TIP3    H125112   0.264   2.333   1.475  0.8326  0.2426  0.6521
 1159TIP3    H225113   0.179   2.238   1.394 -0.7638 -0.4688  3.0409
 1160TIP3   OH225114   1.561   1.132   6.456  0.4210  0.4286 -0.2287
 1160TIP3    H125115   1.623   1.125   6.528 -2.1408 -0.9438  1.9824
 1160TIP3    H225116   1.573   1.051   6.406  0.7609  0.4359 -0.1640
 1161TIP3   OH225117   0.322   6.268   7.686 -0.0822 -0.0988 -0.0130
 1161TIP3    H125118   0.261   6.340   7.699 -0.0342 -0.1477  0.4833
 1161TIP3    H225119   0.313   6.246   7.593  0.2102  0.8148 -0.2631
 1162TIP3   OH225120   0.416   2.174   7.392 -0.4384  0.2868 -0.1627
 1162TIP3    H125121   0.484   2.222   7.440  1.1049 -2.9801  1.2843
 1162TIP3    H225122   0.455   2.158   7.306  0.8325 -1.7113  0.7153
 1163TIP3   OH225123   2.224   4.484   0.790 -0.3054 -0.2586 -0.1927
 1163TIP3    H125124   2.292   4.419   0.809  0.6579  0.7803  0.0032
 1163TIP3    H225125   2.252   4.563   0.836  0.2252  1.2796 -2.8941
 1164TIP3   OH225126   4.385   3.983   7.404 -0.6358  0.0556 -0.0540
 1164TIP3    H125127   4.417   4.071   7.421 -0.9718  0.7598 -2.7299
 1164TIP3    H225128   4.455   3.940   7.355 -1.6320 -0.1606 -1.3297
 1165TIP3   OH225129   2.880   5.979   6.939 -0.5052 -0.2389 -0.2751
 1165TIP3    H125130   2.967   5.998   6.906 -1.3643  0.3787 -2.3772
 1165TIP3    H225131   2.856   6.056   6.990  0.9074 -1.2761  2.1352
 1166TIP3   OH225132   0.753   4.239   6.113 -0.6653 -0.0595 -0.0004
 1166TIP3    H125133   0.723   4.180   6.044 -0.3525  1.7404 -1.7757
 1166TIP3    H225134   0.848   4.240   6.103 -0.6865  0.9002 -0.1664
 1167TIP3   OH225135   0.888   3.671   5.496  0.0541 -0.6394 -0.0200
 1167TIP3    H125136   0.793   3.674   5.513  0.1365 -0.0426  0.3680
 1167TIP3    H225137   0.912   3.762   5.479  0.5180 -0.8231 -0.3522
 1168TIP3   OH225138   6.088   2.057   7.769  0.0601 -0.4795 -0.0284
 1168TIP3    H125139   6.175   2.059   7.809  0.8294 -0.2919 -1.6019
 1168TIP3    H225140   6.039   1.994   7.821  0.9986 -0.2477  1.1690
 1169TIP3   OH225141   3.517   6.097   6.401 -0.4948 -0.2425  0.0030
 1169TIP3    H125142   3.518   6.060   6.313 -1.4473  2.0797 -1.0692
 1169TIP3    H225143   3.601   6.069   6.440  0.0769 -1.0595 -1.7170
 1170TIP3   OH225144   0.749   5.308   8.091  0.5886  0.1521  0.1409
 1170TIP3    H125145   0.743   5.359   8.172 -0.3465  0.4647 -0.1112
 1170TIP3    H225146   0.732   5.371   8.021 -1.9245 -0.6840 -0.1115
 1171TIP3   OH225147   6.462   2.786   1.314 -0.2059  0.4696 -0.4653
 1171TIP3    H125148   6.381   2.830   1.341  0.9486  2.9977 -0.8518
 1171TIP3    H225149   6.440   2.692   1.317 -1.9675  0.8116  3.2242
 1172TIP3   OH225150   4.582   5.025   7.489 -0.1792 -0.0531  0.2006
 1172TIP3    H125151   4.591   5.097   7.552  1.8419  0.5964 -0.7176
 1172TIP3    H225152   4.594   4.946   7.541  0.8732  0.4490  0.7626
 1173TIP3   OH225153   6.894   6.517   1.257  0.4724  0.2508  0.1236
 1173TIP3    H125154   6.938   6.587   1.305  0.4739  1.1925 -1.2189
 1173TIP3    H225155   6.803   6.547   1.249  0.8990  1.0965 -2.1928
 1174TIP3   OH225156   5.274   4.738   6.632  0.2407 -0.0137  0.2404
 1174TIP3    H125157   5.197   4.795   6.632  0.1219 -0.1706 -0.0140
 1174TIP3    H225158   5.319   4.757   6.714  0.6429  1.0437 -0.2031
 1175TIP3   OH225159   3.045   2.056   0.568  0.3902  0.3151 -0.1207
 1175TIP3    H125160   3.101   2.049   0.491 -1.0770  0.7984 -1.2844
 1175TIP3    H225161   2.969   2.105   0.537 -1.8763 -2.4354  0.6734
 1176TIP3   OH225162   2.054   6.273   1.587 -0.0932  0.5800 -0.1095
 1176TIP3    H125163   1.986   6.322   1.541  1.3570  1.4205 -1.4754
 1176TIP3    H225164   2.059   6.314   1.673  0.1867  2.0283 -0.7806
 1177TIP3   OH225165   5.491   0.572   1.730 -0.7033  0.4826  0.1835
 1177TIP3    H125166   5.467   0.497   1.784  0.4703 -0.2345 -0.2487
 1177TIP3    H225167   5.476   0.648   1.786 -0.0470 -0.2040  1.3292
 1178TIP3   OH225168   1.015   1.340   6.923 -0.0642  0.6785  0.2624
 1178TIP3    H125169   0.975   1.366   6.841 -3.4188  0.4941  1.6753
 1178TIP3    H225170   0.956   1.274   6.959  1.3268  0.6556  2.7661
 1179TIP3   OH225171   3.971   3.100   6.130 -0.0632 -0.3889 -0.1349
 1179TIP3    H125172   4.043   3.067   6.076  0.3918  1.3334 -0.6655
 1179TIP3    H225173   3.962   3.192   6.103 -1.8871 -0.3266  0.5500
 1180TIP3   OH225174   3.292   3.991   0.186  0.1104 -0.3862  0.3137
 1180TIP3    H125175   3.375   3.970   0.142  0.1948  0.7981 -0.1190
 1180TIP3    H225176   3.226   3.945   0.135  0.1667  1.2671 -1.3242
 1181TIP3   OH225177   2.490   4.404   1.896  0.6862 -0.4451  0.5182
 1181TIP3    H125178   2.457   4.427   1.983 -1.0652 -2.4058  0.4619
 1181TIP3    H225179   2.414   4.370   1.850  2.4844 -4.5669  0.0952
 1182TIP3   OH225180   5.605   1.171   6.633  0.4796  0.1472 -0.2319
 1182TIP3    H125181   5.671   1.192   6.568  0.4415 -1.6162 -0.9107
 1182TIP3    H225182   5.631   1.219   6.711  2.8192 -0.7943 -0.3639
 1183TIP3   OH225183   1.397   5.430   7.206 -0.0479  0.0062  0.4666
 1183TIP3    H125184   1.471   5.424   7.145 -1.0275  1.0110 -0.9027
 1183TIP3    H225185   1.332   5.483   7.159 -1.2638 -0.0513  2.0026
 1184TIP3   OH225186   4.131   1.020   1.490 -0.3150  0.2996 -0.5576
 1184TIP3    H125187   4.174   1.079   1.552  1.5508 -0.3455 -1.1435
 1184TIP3    H225188   4.135   0.934   1.532 -3.7321  0.5809  0.6539
 1185TIP3   OH225189   4.649   3.866   0.701  0.0206  0.2561  0.5517
 1185TIP3    H125190   4.656   3.880   0.795 -2.9733 -0.6580  1.0172
 1185TIP3    H225191   4.707   3.793   0.682  0.8058  0.5819  1.6383
 1186TIP3   OH225192   1.541   5.022   6.799 -0.0124 -1.0768 -0.3683
 1186TIP3    H125193   1.552   5.068   6.882  0.6068 -2.0155  0.0857
 1186TIP3    H225194   1.627   5.027   6.757  0.2720 -2.3928  0.0071
 1187TIP3   OH225195   0.216   2.872   1.356  0.4260  0.1197  0.5197
 1187TIP3    H125196   0.249   2.944   1.302  1.6092 -0.7833 -0.0219
 1187TIP3    H225197   0.268   2.797   1.328 -1.0263 -1.0253  0.8206
 1188TIP3   OH225198   4.943   3.863   6.704 -0.4286  0.6660  0.2576
 1188TIP3    H125199   5.027   3.830   6.736  0.3931  0.2993 -2.0852
 1188TIP3    H225200   4.931   3.820   6.619 -2.3693  1.7100 -0.0599
 1189TIP3   OH225201   4.896   1.115   6.690  0.1877  0.3656  0.3847
 1189TIP3    H125202   4.861   1.117   6.779  1.5528 -0.2991  0.9728
 1189TIP3    H225203   4.822   1.136   6.634 -0.4397  2.0099  1.7516
 1190TIP3   OH225204   2.622   1.639   1.411  0.9035 -0.7876  0.0118
 1190TIP3    H125205   2.671   1.715   1.440  0.2170 -0.0863 -0.6046
 1190TIP3    H225206   2.677   1.564   1.432  1.7874 -0.0847  0.2191
 1191TIP3   OH225207   0.640   3.717   5.641 -0.0292 -0.1051 -0.1828
 1191TIP3    H125208   0.686   3.752   5.717  0.1803 -3.3041  1.3225
 1191TIP3    H225209   0.547   3.721   5.665 -0.0639  0.0901 -0.3421
 1192TIP3   OH225210   0.248   5.765   1.707  0.0508  0.3041  0.5316
 1192TIP3    H125211   0.224   5.674   1.687  1.3786 -0.4197  2.0678
 1192TIP3    H225212   0.308   5.790   1.636 -0.5018  0.0788 -0.0258
 1193TIP3   OH225213   1.344   4.767   7.946  0.7265 -0.0138 -0.3333
 1193TIP3    H125214   1.317   4.735   8.032  0.0045  0.0861 -0.5109
 1193TIP3    H225215   1.422   4.716   7.924 -0.8330 -2.3174 -0.9796
 1194TIP3   OH225216   5.384   1.099   7.798  0.0620 -0.0157 -0.1442
 1194TIP3    H125217   5.302   1.091   7.749  0.3687  0.7784 -0.8050
 1194TIP3    H225218   5.432   1.019   7.776  0.4227  0.5745 -1.5890
 1195TIP3   OH225219   0.073   1.544   7.755 -0.9098  0.3165  0.6436
 1195TIP3    H125220  -0.015   1.506   7.768 -0.1749 -1.6864  0.1538
 1195TIP3    H225221   0.057   1.637   7.738 -2.9617 -0.0827  0.1456
 1196TIP3   OH225222   4.578   3.956   7.900 -0.0976  0.0316  0.2264
 1196TIP3    H125223   4.562   4.045   7.933  1.7334  0.3816  0.2599
 1196TIP3    H225224   4.587   3.902   7.978  1.4220  0.3344  0.2855
 1197TIP3   OH225225   1.649   3.551   6.464  0.4021 -0.1659  0.3752
 1197TIP3    H125226   1.657   3.600   6.546  0.4057 -0.6709  0.6775
 1197TIP3    H225227   1.700   3.601   6.401 -0.1245  0.5784  0.5210
 1198TIP3   OH225228   4.136   4.052   2.173 -0.7183 -0.0060  0.3340
 1198TIP3    H125229   4.143   4.148   2.173 -1.1544  0.0296  0.4105
 1198TIP3    H225230   4.178   4.025   2.091 -2.4831  0.4090 -0.7637
 1199TIP3   OH225231   1.528   1.813   7.784 -0.3649 -0.4193 -0.3450
 1199TIP3    H125232   1.613   1.782   7.817 -1.6552 -2.2000  1.5630
 1199TIP3    H225233   1.547   1.847   7.697  2.3662 -0.3986  0.1599
 1200TIP3   OH225234   0.252   6.459   0.049  0.0934  0.4257  0.2994
 1200TIP3    H125235   0.250   6.472  -0.045 -3.3527  1.7846  0.4092
 1200TIP3    H225236   0.164   6.427   0.071  0.0146  2.2884  3.2568
 1201TIP3   OH225237   0.806   5.006   5.971  0.4624  0.5140  0.2734
 1201TIP3    H125238   0.874   5.003   5.904 -0.3244  0.3951 -0.5278
 1201TIP3    H225239   0.735   4.952   5.937 -1.2592  2.9600 -0.3033
 1202TIP3   OH225240   5.192   2.836   0.870  0.4523 -0.3647 -0.4137
 1202TIP3    H125241   5.125   2.822   0.937 -1.4065 -0.0061 -2.1011
 1202TIP3    H225242   5.238   2.752   0.865 -0.6343 -1.0160  0.0052
 1203TIP3   OH225243   2.494   1.115   1.103  0.5386  0.9041  0.2028
 1203TIP3    H125244   2.445   1.141   1.025  1.2077  0.9371 -0.2156
 1203TIP3    H225245   2.434   1.129   1.175  0.2323  1.7958 -0.2121
 1204TIP3   OH225246   2.332   0.076   0.593 -0.6431  0.3691  0.5347
 1204TIP3    H125247   2.330  -0.018   0.576  0.2530  0.3316  0.5821
 1204TIP3    H225248   2.420   0.104   0.568 -0.1324  0.7786  2.5541
 1205TIP3   OH225249   5.857   5.323   0.220  0.1535  0.0360  0.7363
 1205TIP3    H125250   5.797   5.251   0.241  0.7823 -0.9015 -0.5761
 1205TIP3    H225251   5.878   5.310   0.128  2.7231  0.0828  1.2606
 1206TIP3   OH225252   6.842   3.023   7.569  0.0616 -0.0054  0.2808
 1206TIP3    H125253   6.924   2.976   7.553  0.4924  1.1122 -1.0374
 1206TIP3    H225254   6.823   3.067   7.486 -0.3103  2.1100  1.3971
 1207TIP3   OH225255   6.523   3.218   7.422  0.1307  0.4094  0.1131
 1207TIP3    H125256   6.465   3.151   7.387  1.1564 -0.8129  0.6671
 1207TIP3    H225257   6.610   3.195   7.390  0.7703  0.4451  1.7030
 1208TIP3   OH225258   2.012   1.625   7.732  0.3737 -0.2554 -0.6112
 1208TIP3    H125259   1.994   1.634   7.638 -0.7223 -2.2745 -0.6635
 1208TIP3    H225260   2.107   1.623   7.738  0.4760  0.8419 -1.5519
 1209TIP3   OH225261   4.644   3.112   1.048  0.1539 -0.0408  0.1967
 1209TIP3    H125262   4.683   3.036   1.006 -0.9326 -1.3815  1.4686
 1209TIP3    H225263   4.660   3.098   1.142 -2.1385  0.0181  0.6509
 1210TIP3   OH225264   2.367   5.144   6.467 -0.0162 -0.1975  0.4954
 1210TIP3    H125265   2.376   5.049   6.459  0.1885 -0.2159  0.8979
 1210TIP3    H225266   2.454   5.174   6.494 -0.2592  0.0266  1.0467
 1211TIP3   OH225267   6.011   3.854   7.200  0.2337  0.4919  0.2868
 1211TIP3    H125268   5.929   3.874   7.154  0.7511  0.9115 -0.4680
 1211TIP3    H225269   5.996   3.767   7.238 -0.8936  0.9432  0.9353
 1212TIP3   OH225270   3.892   4.797   1.791 -0.4942 -0.4455  0.2267
 1212TIP3    H125271   3.916   4.787   1.884 -0.4230 -2.2494  0.0341
 1212TIP3    H225272   3.972   4.777   1.743 -0.8062 -0.5344 -0.2611
 1213TIP3   OH225273   2.840   5.662   8.212  0.1177  0.7869  0.0709
 1213TIP3    H125274   2.897   5.739   8.214  0.4382  0.5599 -0.1488
 1213TIP3    H225275   2.886   5.600   8.155 -0.7485  0.9060 -0.7794
 1214TIP3   OH225276   4.296   1.229   6.878  0.9747  0.2279 -0.4827
 1214TIP3    H125277   4.296   1.281   6.959 -0.7805  0.9787 -0.9294
 1214TIP3    H225278   4.244   1.152   6.899  0.7217  0.3061 -0.8143
 1215TIP3   OH225279   6.820   4.138   0.989  0.2043 -0.2616  0.4132
 1215TIP3    H125280   6.883   4.069   0.969  0.4054  0.2444 -0.8310
 1215TIP3    H225281   6.874   4.210   1.023  0.3594  0.2432 -0.8363
 1216TIP3   OH225282   2.784   2.637   0.634  0.3595 -0.1034  0.4066
 1216TIP3    H125283   2.866   2.679   0.662 -0.0377  1.8104 -1.1341
 1216TIP3    H225284   2.799   2.613   0.543 -0.4496 -0.7295  0.4300
 1217TIP3   OH225285   1.234   0.468   0.780  0.3678  0.1269  0.2980
 1217TIP3    H125286   1.268   0.512   0.703  2.2762  1.4218  1.7898
 1217TIP3    H225287   1.195   0.538   0.833  2.6137  0.0001  2.2855
 1218TIP3   OH225288   3.223   2.380   0.707  0.1298 -0.3566  0.1291
 1218TIP3    H125289   3.298   2.356   0.652  0.5304 -0.1782  0.5892
 1218TIP3    H225290   3.154   2.402   0.645  0.5784 -0.1567 -0.3067
 1219TIP3   OH225291   5.648   4.841   7.435  0.0287 -0.1524  0.2492
 1219TIP3    H125292   5.655   4.747   7.456 -0.1909 -0.1632  0.2736
 1219TIP3    H225293   5.603   4.879   7.510  0.6389  0.0718  0.5014
 1220TIP3   OH225294   6.429   4.916   0.464 -0.0782  0.0451 -0.2981
 1220TIP3    H125295   6.342   4.938   0.431 -1.2686 -0.8641  1.9530
 1220TIP3    H225296   6.439   4.969   0.543  1.4203  0.1207 -0.5064
 1221TIP3   OH225297   6.732   6.805   6.260  0.3792 -0.0824 -0.1498
 1221TIP3    H125298   6.675   6.750   6.207 -0.5057 -0.4931  1.1712
 1221TIP3    H225299   6.818   6.764   6.254 -0.0142 -0.9216 -0.1518
 1222TIP3   OH225300   5.602   0.094   7.058  0.1292 -0.0976  0.3185
 1222TIP3    H125301   5.599   0.015   7.004 -3.6124 -0.2204  0.4436
 1222TIP3    H225302   5.672   0.147   7.019  1.7452 -2.7558 -0.6932
 1223TIP3   OH225303   5.423   6.494   0.063 -0.2531  0.1408 -0.3427
 1223TIP3    H125304   5.335   6.489   0.026 -0.0891  1.1434 -0.8897
 1223TIP3    H225305   5.421   6.433   0.137 -1.6905  0.8569  0.2441
 1224TIP3   OH225306   3.295   7.080   1.474 -0.1103 -0.0452 -0.1225
 1224TIP3    H125307   3.239   7.158   1.478 -0.0570 -0.0416  0.9138
 1224TIP3    H225308   3.238   7.012   1.439 -0.8356 -0.0833  1.0760
 1225TIP3   OH225309   1.721   5.290   1.591 -0.6802  0.4189  0.7032
 1225TIP3    H125310   1.793   5.349   1.615  1.7284 -1.5355 -1.1780
 1225TIP3    H225311   1.755   5.202   1.610 -2.6018 -0.5902 -0.2541
 1226TIP3   OH225312   4.736   1.512   2.182 -0.0581  0.5110 -0.5471
 1226TIP3    H125313   4.667   1.485   2.243  0.1908  1.8851  0.3913
 1226TIP3    H225314   4.705   1.483   2.096 -1.6489  0.8140 -0.1034
 1227TIP3   OH225315   4.775   3.694   7.769 -0.0742 -0.3087 -0.0258
 1227TIP3    H125316   4.759   3.749   7.845 -1.5558 -0.5311 -0.1471
 1227TIP3    H225317   4.870   3.693   7.759  0.1999 -0.7361  2.1491
 1228TIP3   OH225318   3.045   3.520   0.385 -0.7157  0.3250 -0.4531
 1228TIP3    H125319   3.026   3.554   0.472  1.2933 -0.4221  0.3383
 1228TIP3    H225320   3.135   3.548   0.367 -1.0867  0.4574 -2.2987
 1229TIP3   OH225321   3.279   5.011   7.763 -0.1421 -0.7457 -0.4369
 1229TIP3    H125322   3.284   5.075   7.692  0.4064 -0.4025 -0.1000
 1229TIP3    H225323   3.300   5.061   7.842  1.4824 -1.5587 -0.2955
 1230TIP3   OH225324   1.322   2.128   0.547 -0.2560 -0.4444 -0.8862
 1230TIP3    H125325   1.346   2.043   0.585 -1.9429 -0.7072 -0.3419
 1230TIP3    H225326   1.309   2.110   0.454  0.7686 -0.4636 -1.0400
 1231TIP3   OH225327   0.620   1.584   0.095 -0.3878 -0.1525 -0.1359
 1231TIP3    H125328   0.633   1.672   0.130  0.6502 -0.0233 -0.7985
 1231TIP3    H225329   0.526   1.567   0.107  0.0329 -0.6952  3.9959
 1232TIP3   OH225330   2.610   3.544   0.978 -0.0724 -0.0347  0.2455
 1232TIP3    H125331   2.580   3.590   1.056  0.3337 -1.0201  0.9925
 1232TIP3    H225332   2.677   3.484   1.009  0.0624 -0.4834 -0.8558
 1233TIP3   OH225333   2.139   2.134   1.529  0.3747  0.3101 -0.0678
 1233TIP3    H125334   2.164   2.063   1.470  0.1583  0.0821  0.1102
 1233TIP3    H225335   2.183   2.211   1.495  0.2520  0.1783 -0.5260
 1234TIP3   OH225336   1.385   3.357   6.684  0.1597 -0.5660  0.1807
 1234TIP3    H125337   1.416   3.279   6.731  0.5600  0.0123  0.8845
 1234TIP3    H225338   1.441   3.362   6.606 -0.6119 -1.6193 -0.4728
 1235TIP3   OH225339   2.151   0.724   7.420 -0.2758  0.6136  0.0626
 1235TIP3    H125340   2.238   0.754   7.447  0.7721 -1.9307 -0.2656
 1235TIP3    H225341   2.162   0.698   7.329 -0.4258 -2.7912  0.8908
 1236TIP3   OH225342   4.555   2.855   7.654 -0.7135  0.2773  0.1209
 1236TIP3    H125343   4.591   2.932   7.611  3.1712 -0.6557  1.2919
 1236TIP3    H225344   4.476   2.886   7.697 -0.2136  3.1783 -0.8499
 1237TIP3   OH225345   6.500   6.100   8.247 -0.0449  0.3224  0.2866
 1237TIP3    H125346   6.537   6.031   8.302  1.3799  0.0266 -0.9999
 1237TIP3    H225347   6.459   6.054   8.174  1.8708  0.7854 -1.1734
 1238TIP3   OH225348   3.510   2.492   0.876 -0.1696  0.0036  0.0445
 1238TIP3    H125349   3.444   2.436   0.916 -1.0881 -0.4954 -2.0387
 1238TIP3    H225350   3.470   2.579   0.873 -1.5496 -0.6203 -2.7471
 1239TIP3   OH225351   3.795   2.484   0.938  0.4965 -0.1735 -0.0172
 1239TIP3    H125352   3.817   2.569   0.900 -0.4738 -0.0184 -0.2625
 1239TIP3    H225353   3.707   2.465   0.905  0.3245 -0.8340  0.7944
 1240TIP3   OH225354   0.492   0.449   8.226 -0.3382 -0.2786  0.0105
 1240TIP3    H125355   0.435   0.503   8.282 -0.3418 -0.5195  0.2417
 1240TIP3    H225356   0.487   0.361   8.265  0.4319 -0.2372  0.2162
 1241TIP3   OH225357   4.186   1.552   7.288 -0.4377  0.0821 -0.4337
 1241TIP3    H125358   4.278   1.566   7.310  0.0077 -1.9094 -0.8809
 1241TIP3    H225359   4.144   1.531   7.371 -0.0860 -0.9061 -0.4966
 1242TIP3   OH225360   0.897   2.641   1.819 -0.4501  0.2292 -0.0298
 1242TIP3    H125361   0.909   2.675   1.730 -1.4045  0.9136  0.0934
 1242TIP3    H225362   0.973   2.674   1.867 -0.2747  0.4141 -0.4265
 1243TIP3   OH225363   0.242   6.471   7.085  0.2168 -0.0280 -0.5506
 1243TIP3    H125364   0.176   6.455   7.018 -1.7718 -0.3598  1.3663
 1243TIP3    H225365   0.302   6.533   7.045 -1.1118  0.1107 -2.4785
 1244TIP3   OH225366   6.485   6.283   1.977  0.4541  0.2116 -0.1435
 1244TIP3    H125367   6.500   6.317   2.065  1.3829  1.1059 -0.6233
 1244TIP3    H225368   6.395   6.306   1.957 -0.1006 -0.9199  0.9543
 1245TIP3   OH225369   6.335   6.753   7.352  0.1599 -0.3547 -0.3633
 1245TIP3    H125370   6.367   6.806   7.279  0.4911 -0.5140 -0.3371
 1245TIP3    H225371   6.242   6.741   7.335 -0.9654  3.6656  1.6805
 1246TIP3   OH225372   6.423   3.031   6.376 -0.4251  0.8741  0.0041
 1246TIP3    H125373   6.375   2.998   6.300 -0.4785  1.0893 -0.0562
 1246TIP3    H225374   6.453   2.952   6.421  2.6296  0.6468 -2.1205
 1247TIP3   OH225375   6.893   1.508   6.250 -0.8584 -0.5202  0.0053
 1247TIP3    H125376   6.933   1.466   6.325  1.6410 -1.1344 -1.5421
 1247TIP3    H225377   6.937   1.592   6.243 -1.8160 -0.0204 -0.1814
 1248TIP3   OH225378   6.249   2.909   0.850  0.4998 -0.2337 -0.2381
 1248TIP3    H125379   6.193   2.978   0.884  1.5666 -0.4161  2.0683
 1248TIP3    H225380   6.283   2.944   0.767 -0.0770  1.3885  0.1725
 1249TIP3   OH225381   2.274   5.438   8.221 -0.2767 -0.0712 -0.0990
 1249TIP3    H125382   2.200   5.454   8.163 -0.9634 -1.7845  0.2470
 1249TIP3    H225383   2.317   5.360   8.184  1.1847  0.7194 -0.1191
 1250TIP3   OH225384   6.862   1.498   7.743  0.0635  0.9907 -0.2055
 1250TIP3    H125385   6.795   1.563   7.763  0.9380  1.2048  2.6066
 1250TIP3    H225386   6.826   1.415   7.775  0.9379  1.0696  1.1153
 1251TIP3   OH225387   5.594   2.051   2.240 -0.0099 -0.2695 -0.2844
 1251TIP3    H125388   5.546   1.975   2.208  0.6838 -0.5525 -0.6937
 1251TIP3    H225389   5.652   2.016   2.308  0.0019 -0.0324 -0.1713
 1252TIP3   OH225390   4.809   4.293   0.592  0.2264  0.3463 -0.1198
 1252TIP3    H125391   4.845   4.374   0.627  0.8518  0.1670 -0.3269
 1252TIP3    H225392   4.874   4.263   0.528 -1.2637  1.1128 -2.0983
 1253TIP3   OH225393   0.932   1.024   1.809 -0.1670  0.2927 -0.0823
 1253TIP3    H125394   0.909   0.943   1.856  0.3580  0.5889  0.7058
 1253TIP3    H225395   0.892   1.014   1.723 -0.3635 -0.6792  0.1116
 1254TIP3   OH225396   3.142   2.624   0.874 -0.7121  0.2936 -0.6334
 1254TIP3    H125397   3.104   2.642   0.960  0.1996  0.9742 -0.3480
 1254TIP3    H225398   3.195   2.546   0.887 -1.9189 -0.6229 -1.0180
 1255TIP3   OH225399   0.937   5.912   0.166  0.5005  0.5465 -0.5388
 1255TIP3    H125400   1.012   5.971   0.174 -1.1162  3.3250 -3.6247
 1255TIP3    H225401   0.966   5.846   0.102  0.7745  0.7731 -0.6508
 1256TIP3   OH225402   2.950   0.849   6.155 -0.0284 -0.2803  0.3834
 1256TIP3    H125403   3.015   0.792   6.196  1.2307  1.0068  0.2829
 1256TIP3    H225404   2.969   0.936   6.191 -1.9574  0.0819  0.6287
 1257TIP3   OH225405   3.269   2.896   1.504  0.1507  0.3191  0.2740
 1257TIP3    H125406   3.209   2.871   1.574  0.3528  0.0130  0.3421
 1257TIP3    H225407   3.323   2.966   1.543 -1.0349  1.5409 -0.2222
 1258TIP3   OH225408   5.434   5.486   7.971 -0.2796 -0.6926 -0.0405
 1258TIP3    H125409   5.391   5.569   7.947 -2.1949 -0.4551  3.4984
 1258TIP3    H225410   5.405   5.424   7.904 -0.0413  1.1245 -1.9230
 1259TIP3   OH225411   6.052   6.393   0.125  0.0695 -0.6063 -0.7678
 1259TIP3    H125412   6.123   6.332   0.143 -0.6306 -2.0255 -2.4578
 1259TIP3    H225413   6.016   6.364   0.041 -2.6354 -0.0601  0.0969
 1260TIP3   OH225414   6.340   1.820   0.176 -0.5952  0.1634  0.4511
 1260TIP3    H125415   6.346   1.725   0.167  0.2122  0.3953 -2.5919
 1260TIP3    H225416   6.417   1.853   0.130 -1.7577  2.3259 -0.0610
 1261TIP3   OH225417   2.838   7.071   0.654 -0.0897 -0.1628 -0.5428
 1261TIP3    H125418   2.892   7.094   0.730 -0.3721  0.2369 -0.4613
 1261TIP3    H225419   2.754   7.045   0.692  0.2224 -1.3497 -0.6314
 1262TIP3   OH225420   2.779   0.198   1.159 -0.7391  0.8749 -0.1216
 1262TIP3    H125421   2.702   0.236   1.117 -0.5751  2.6271  1.0432
 1262TIP3    H225422   2.852   0.251   1.129  0.3751 -1.8198 -2.5603
 1263TIP3   OH225423   1.971   3.598   6.928 -0.3434 -0.0453 -0.2958
 1263TIP3    H125424   1.973   3.527   6.863 -0.1750 -0.3673  0.0588
 1263TIP3    H225425   1.900   3.574   6.987  0.4628 -0.5188  0.4946
 1264TIP3   OH225426   1.392   0.036   0.347  0.2848  0.0963 -0.2812
 1264TIP3    H125427   1.457   0.096   0.383 -0.4946  1.5505 -1.1880
 1264TIP3    H225428   1.386   0.060   0.254 -0.6699 -0.8000 -0.4704
 1265TIP3   OH225429   4.930   3.287   5.976 -0.0526 -0.1700  0.3748
 1265TIP3    H125430   4.997   3.226   5.945  0.5712  0.1583  1.0249
 1265TIP3    H225431   4.949   3.369   5.931  0.2948  0.0563  0.9165
 1266TIP3   OH225432   4.035   0.568   6.111  0.2916 -0.0836 -0.4271
 1266TIP3    H125433   4.052   0.551   6.204  0.6370 -0.2621 -0.5212
 1266TIP3    H225434   4.110   0.621   6.083  0.2127 -0.0738 -0.6173
 1267TIP3   OH225435   1.956   2.218   7.510 -0.0526  0.0834  0.2644
 1267TIP3    H125436   2.005   2.197   7.430 -0.6030  0.0010 -0.0549
 1267TIP3    H225437   1.963   2.138   7.563 -0.6061 -0.2745 -0.1770
 1268TIP3   OH225438   3.141   2.260   2.005 -0.0541 -0.0484  0.4380
 1268TIP3    H125439   3.075   2.230   2.068 -0.2158  2.4073  1.5356
 1268TIP3    H225440   3.214   2.199   2.017  0.3187  0.8190  3.7870
 1269TIP3   OH225441   0.884   3.485   6.119  0.0918 -0.4442 -0.2713
 1269TIP3    H125442   0.837   3.539   6.183 -0.3980  0.7308 -1.5834
 1269TIP3    H225443   0.957   3.447   6.169 -1.1893 -0.8862  1.3722
 1270TIP3   OH225444   5.785   2.104   6.927 -1.1063  0.1072 -0.6546
 1270TIP3    H125445   5.831   2.022   6.910 -2.2032 -0.7714  0.4323
 1270TIP3    H225446   5.694   2.086   6.904 -1.5162  0.7460  0.4134
 1271TIP3   OH225447   4.756   3.717   5.818 -0.1526  0.2261 -0.2661
 1271TIP3    H125448   4.801   3.636   5.794  0.3293  0.5633 -0.5259
 1271TIP3    H225449   4.803   3.748   5.896 -1.5178 -0.7079  0.9752
 1272TIP3   OH225450   3.996   4.254   6.322 -0.5219  0.2372 -0.1453
 1272TIP3    H125451   3.996   4.349   6.332  0.3003  0.0727  1.7391
 1272TIP3    H225452   3.907   4.227   6.347 -0.6244  0.4717 -0.2575
 1273TIP3   OH225453   5.873   5.024   8.012 -0.4783  0.1163 -0.3611
 1273TIP3    H125454   5.901   4.994   8.099  0.0672 -1.0913 -0.9282
 1273TIP3    H225455   5.897   5.117   8.011  0.1374 -0.0118  0.5342
 1274TIP3   OH225456   1.697   4.251   7.231 -0.2682  0.1515 -0.0452
 1274TIP3    H125457   1.612   4.293   7.220  0.5727  1.5247 -1.6654
 1274TIP3    H225458   1.760   4.313   7.195  1.4765 -0.7175  1.3341
 1275TIP3   OH225459   1.023   5.588   6.267  0.5222  0.1153  0.8708
 1275TIP3    H125460   0.988   5.572   6.179 -0.2841 -0.2235  1.2381
 1275TIP3    H225461   0.975   5.526   6.323  2.8575 -1.5337  1.1817
 1276TIP3   OH225462   4.848   1.831   6.634 -0.0140  0.0430 -0.2947
 1276TIP3    H125463   4.934   1.873   6.632 -0.7940  1.6798 -1.0539
 1276TIP3    H225464   4.831   1.807   6.543 -0.4628 -0.0745 -0.1830
 1277TIP3   OH225465   2.608   2.354   0.463  0.2762 -0.0827 -0.2034
 1277TIP3    H125466   2.564   2.276   0.429  0.3038 -0.5283  0.7548
 1277TIP3    H225467   2.571   2.366   0.551 -0.2541  1.3977 -0.5901
 1278TIP3   OH225468   1.824   1.181   0.634 -0.1288  0.1177 -0.0929
 1278TIP3    H125469   1.733   1.204   0.616 -0.3006  0.9147  1.5753
 1278TIP3    H225470   1.842   1.219   0.720  2.2022  1.1150 -0.9339
 1279TIP3   OH225471   3.682   5.288   7.133  0.5172 -0.0814  0.5342
 1279TIP3    H125472   3.613   5.255   7.076 -0.1625 -0.6928  1.6704
 1279TIP3    H225473   3.722   5.359   7.083  1.9165 -2.4314 -1.9221
 1280TIP3   OH225474   2.079   1.547   0.051  0.5076 -0.3768  0.3366
 1280TIP3    H125475   2.147   1.491   0.014  0.6745  1.1784 -1.9142
 1280TIP3    H225476   1.998   1.498   0.039  0.6563 -0.2376 -1.5165
 1281TIP3   OH225477   3.672   1.916   6.780 -0.1273 -0.7928 -0.1427
 1281TIP3    H125478   3.637   2.005   6.780 -0.8978 -1.0704  1.2105
 1281TIP3    H225479   3.767   1.927   6.774 -0.2491  0.0888 -0.6053
 1282TIP3   OH225480   4.707   1.692   6.830  0.3930  0.2352 -0.2200
 1282TIP3    H125481   4.741   1.721   6.746 -1.0560 -1.7394 -1.5803
 1282TIP3    H225482   4.698   1.597   6.821 -1.3245  0.1558  1.5699
 1283TIP3   OH225483   2.476   4.104   7.223  0.4196  0.1217 -0.1518
 1283TIP3    H125484   2.525   4.186   7.217  0.7329 -0.1198 -1.2668
 1283TIP3    H225485   2.395   4.122   7.175 -0.8832  0.6847  2.1182
 1284TIP3   OH225486   3.005   0.667   0.967 -0.2586  0.3744  0.3055
 1284TIP3    H125487   2.997   0.666   0.872  2.0358  1.5280  0.0370
 1284TIP3    H225488   2.925   0.710   0.997 -2.0631 -1.9155 -0.8763
 1285TIP3   OH225489   4.644   6.346   6.479 -0.5055 -0.4489 -0.1866
 1285TIP3    H125490   4.735   6.361   6.505  0.2815 -1.6471 -1.9804
 1285TIP3    H225491   4.612   6.279   6.540 -0.0598 -0.2720  0.2457
 1286TIP3   OH225492   1.692   3.171   7.219 -0.2628  0.1261  0.2219
 1286TIP3    H125493   1.611   3.220   7.205 -1.4477 -1.9720 -0.8247
 1286TIP3    H225494   1.671   3.081   7.192  2.0987 -0.7457  0.9872
 1287TIP3   OH225495   3.986   6.172   7.784  0.0830 -0.1249 -0.1185
 1287TIP3    H125496   3.935   6.236   7.735  2.6102  1.9389 -0.2938
 1287TIP3    H225497   4.053   6.224   7.829  0.7032 -2.4256  1.8376
 1288TIP3   OH225498   1.904   5.342   0.381  0.6253  0.0041  0.6185
 1288TIP3    H125499   1.946   5.403   0.441  1.7320  1.0178 -1.0808
 1288TIP3    H225500   1.968   5.271   0.370  0.6359  0.0575  0.3067
 1289TIP3   OH225501   4.429   5.803   0.868 -0.3878 -0.0588  0.8198
 1289TIP3    H125502   4.386   5.828   0.786 -0.7721 -1.2790  0.6351
 1289TIP3    H225503   4.357   5.781   0.927 -0.1353  1.1808  1.6314
 1290TIP3   OH225504   5.154   7.026   8.093 -0.5373  0.2655 -0.0191
 1290TIP3    H125505   5.208   7.081   8.151  0.4719  0.1105 -0.7899
 1290TIP3    H225506   5.071   7.074   8.086 -0.4963  0.5480  1.1297
 1291TIP3   OH225507   1.951   4.628   1.018  0.0336  0.3949  0.1677
 1291TIP3    H125508   2.031   4.575   1.021  0.5521  1.0408 -1.1744
 1291TIP3    H225509   1.964   4.694   1.086 -0.1024 -0.4796  1.0618
 1292TIP3   OH225510   2.246   0.722   1.928 -0.2166 -0.3499 -0.5031
 1292TIP3    H125511   2.267   0.772   2.007  2.5659 -1.3122 -0.5007
 1292TIP3    H225512   2.170   0.669   1.952 -0.8425  1.0307  0.7260
 1293TIP3   OH225513   0.461   2.173   0.110 -0.0526  0.3999  0.4877
 1293TIP3    H125514   0.371   2.180   0.141 -0.0580  0.0812  0.5487
 1293TIP3    H225515   0.511   2.147   0.187  0.4902  2.8534  1.0488
 1294TIP3   OH225516   1.684   3.882   1.385  0.4548 -0.2226 -0.4995
 1294TIP3    H125517   1.700   3.788   1.378  0.3263 -0.1631 -2.1832
 1294TIP3    H225518   1.597   3.889   1.423 -0.1748 -0.8619 -1.7535
 1295TIP3   OH225519   1.123   0.579   6.290 -0.2308  0.6297  0.2743
 1295TIP3    H125520   1.175   0.579   6.209  0.3163  0.3984  0.6220
 1295TIP3    H225521   1.032   0.570   6.260  0.1136 -1.8974 -0.2264
 1296TIP3   OH225522   4.925   2.654   6.243  0.6378  0.3615 -0.5428
 1296TIP3    H125523   4.901   2.746   6.256  1.1979  0.4074  0.2403
 1296TIP3    H225524   4.843   2.611   6.219 -0.1129  0.6546  1.2900
 1297TIP3   OH225525   6.715   2.743   1.171  0.2851  0.1906  0.0105
 1297TIP3    H125526   6.722   2.823   1.224  0.5079  0.5931 -0.6130
 1297TIP3    H225527   6.630   2.707   1.194 -0.0182  0.8551 -0.0211
 1298TIP3   OH225528   4.818   1.068   7.329 -0.6960 -0.0870 -0.1505
 1298TIP3    H125529   4.794   1.069   7.422  0.1612 -1.6474  0.1408
 1298TIP3    H225530   4.837   1.159   7.308  1.3528  0.0513  1.8775
 1299TIP3   OH225531   5.244   0.429   6.541 -0.7367 -0.8982 -0.1934
 1299TIP3    H125532   5.246   0.406   6.448 -1.3695 -0.3591 -0.3519
 1299TIP3    H225533   5.336   0.434   6.567 -0.5500 -0.9062 -0.8307
 1300TIP3   OH225534   4.758   0.253   0.284  0.3231 -0.4087 -0.0415
 1300TIP3    H125535   4.756   0.336   0.237 -1.5568  1.1286  2.4423
 1300TIP3    H225536   4.744   0.187   0.217  0.0286  1.4279 -1.9044
 1301TIP3   OH225537   3.361   5.547   2.198  0.5830 -0.8987  0.5690
 1301TIP3    H125538   3.360   5.478   2.132  1.7647 -1.6733  1.3210
 1301TIP3    H225539   3.426   5.518   2.262  1.4722  1.1597  0.6500
 1302TIP3   OH225540   0.116   6.819   2.075 -0.0245  0.3472  0.5485
 1302TIP3    H125541   0.211   6.810   2.075  0.2270  2.4637  0.1009
 1302TIP3    H225542   0.091   6.807   2.166  1.1614  3.3558  1.4049
 1303TIP3   OH225543   5.014   5.685   7.900 -0.3106  0.3426  0.2773
 1303TIP3    H125544   5.011   5.606   7.847  3.0243 -0.2211  0.6873
 1303TIP3    H225545   4.995   5.756   7.838 -0.0636 -0.5571 -0.8626
 1304TIP3   OH225546   4.936   4.704   7.902 -0.3940 -0.2224  0.0617
 1304TIP3    H125547   4.906   4.624   7.857 -0.7383 -0.2911  0.4095
 1304TIP3    H225548   5.031   4.704   7.889 -0.5341  0.0413 -1.1272
 1305TIP3   OH225549   6.568   1.558   2.218  0.0936  0.3281  0.8752
 1305TIP3    H125550   6.533   1.581   2.304 -0.0550  0.2691  0.8319
 1305TIP3    H225551   6.616   1.476   2.233  1.9123  1.4211  1.3336
 1306TIP3   OH225552   3.490   3.351   7.792  0.0519  0.2288 -0.1860
 1306TIP3    H125553   3.585   3.365   7.801  0.5202 -1.9550 -1.1040
 1306TIP3    H225554   3.476   3.262   7.824 -1.7624  0.6122  0.1796
 1307TIP3   OH225555   5.057   5.002   1.727 -0.0019 -0.1053 -0.1340
 1307TIP3    H125556   4.984   5.063   1.711 -1.3272 -1.6564 -0.3370
 1307TIP3    H225557   5.124   5.029   1.664 -0.6836  0.9090 -0.4739
 1308TIP3   OH225558   4.797   4.926   7.767  0.0822  0.4816  0.6566
 1308TIP3    H125559   4.837   4.857   7.821  1.4258  0.6201 -0.1056
 1308TIP3    H225560   4.762   4.880   7.691 -0.5571  0.4449  0.9736
 1309TIP3   OH225561   2.510   4.323   6.027 -0.3612  0.2182 -0.6535
 1309TIP3    H125562   2.582   4.379   5.997 -0.1573 -0.6796 -1.9099
 1309TIP3    H225563   2.509   4.250   5.965 -0.0121 -1.6840  1.4655
 1310TIP3   OH225564   3.160   4.830   6.690  0.4868 -1.1156 -0.3750
 1310TIP3    H125565   3.091   4.848   6.626 -1.0335 -0.3982  1.3910
 1310TIP3    H225566   3.147   4.739   6.715 -0.5089 -0.7103  0.6827
 1311TIP3   OH225567   0.078   3.648   2.173 -0.2344 -0.2686  0.2648
 1311TIP3    H125568   0.083   3.744   2.174 -1.0304 -0.2149  0.6681
 1311TIP3    H225569   0.169   3.619   2.168  0.2462  0.5026  2.7566
 1312TIP3   OH225570   6.357   0.626   0.712  0.3451  0.2003  0.1087
 1312TIP3    H125571   6.339   0.719   0.727  1.4490  0.3015  0.9100
 1312TIP3    H225572   6.275   0.582   0.736  0.1937  0.8770  0.8846
 1313TIP3   OH225573   6.012   4.212   1.068  0.2249 -0.1327  0.0209
 1313TIP3    H125574   6.092   4.230   1.117  0.6828 -1.1833 -0.3169
 1313TIP3    H225575   5.950   4.279   1.098  0.5140 -0.6576  1.9505
 1314TIP3   OH225576   3.127   6.515   6.732  0.7668 -0.1609 -0.5112
 1314TIP3    H125577   3.064   6.473   6.674  0.7535 -0.9218  0.0340
 1314TIP3    H225578   3.142   6.451   6.801  1.6775  0.2574 -0.3052
 1315TIP3   OH225579   3.937   2.577   1.489  0.2172 -0.2372 -0.2194
 1315TIP3    H125580   3.937   2.633   1.566 -1.0983 -0.1054 -0.2892
 1315TIP3    H225581   3.864   2.516   1.503  0.4973 -0.7647 -0.9647
 1316TIP3   OH225582   6.895   4.470   8.069 -0.1743  0.1633  0.2886
 1316TIP3    H125583   6.914   4.413   8.143 -0.7470 -0.4482 -0.0290
 1316TIP3    H225584   6.824   4.426   8.022  0.5601  0.2364 -0.9469
 1317TIP3   OH225585   0.535   1.317   1.429 -0.1586 -0.2319  0.5519
 1317TIP3    H125586   0.574   1.404   1.436 -2.0215  0.9117 -1.8479
 1317TIP3    H225587   0.600   1.266   1.380 -0.2258  0.7024 -0.5677
 1318TIP3   OH225588   2.985   2.888   8.176 -0.0105  0.4571 -0.5239
 1318TIP3    H125589   2.955   2.862   8.263 -0.1822  0.5637 -0.5511
 1318TIP3    H225590   2.970   2.812   8.121 -0.3302  0.5467 -0.5607
 1319TIP3   OH225591   6.737   0.963   0.657  0.5491  0.1844 -0.6176
 1319TIP3    H125592   6.646   0.976   0.686  0.4849  1.0622 -1.1771
 1319TIP3    H225593   6.735   0.982   0.563  1.1254 -0.7565 -0.8287
 1320TIP3   OH225594   7.030   0.472   1.307  0.7762 -0.4311  0.4259
 1320TIP3    H125595   7.091   0.467   1.380  0.0816 -2.5937  0.9151
 1320TIP3    H225596   6.960   0.529   1.338  0.3587 -1.5332  1.5871
 1321TIP3   OH225597   2.408   6.378   0.511  0.7988 -0.3940  0.1101
 1321TIP3    H125598   2.335   6.431   0.543 -0.5234  0.1388 -3.4140
 1321TIP3    H225599   2.473   6.441   0.481  1.1753 -0.8372 -0.0298
 1322TIP3   OH225600   3.346   5.093   8.002  0.3191 -0.4926  0.6649
 1322TIP3    H125601   3.440   5.091   7.983  0.2028 -1.6137  0.1150
 1322TIP3    H225602   3.341   5.128   8.091  1.0328  2.3493 -0.3086
 1323TIP3   OH225603   6.244   5.051   6.745 -0.2219  0.2643 -0.2758
 1323TIP3    H125604   6.317   5.106   6.773 -1.1683  1.4982 -0.1438
 1323TIP3    H225605   6.274   5.012   6.663  0.7379  0.4168 -0.0125
 1324TIP3   OH225606   6.236   2.085   1.468 -0.0776  0.3142  0.3061
 1324TIP3    H125607   6.242   1.997   1.431  1.5560  0.0460  1.1225
 1324TIP3    H225608   6.184   2.074   1.548 -1.9021  0.5424 -0.8117
 1325TIP3   OH225609   6.081   3.510   6.658  0.7208 -0.2348  0.0136
 1325TIP3    H125610   6.146   3.569   6.620  2.2937 -2.4606 -0.9565
 1325TIP3    H225611   6.053   3.454   6.586  1.2695 -2.3763  1.3708
 1326TIP3   OH225612   3.973   0.675   7.415 -0.0013  0.3965  0.7096
 1326TIP3    H125613   3.937   0.706   7.498 -0.6811  0.8732  0.2491
 1326TIP3    H225614   3.921   0.720   7.348 -0.4265 -1.0462  0.0150
 1327TIP3   OH225615   5.734   4.088   8.098 -0.8262 -0.0763  0.0792
 1327TIP3    H125616   5.793   4.134   8.158 -0.7052  1.6252 -1.2952
 1327TIP3    H225617   5.737   4.138   8.017 -2.7485 -1.0148 -0.6370
 1328TIP3   OH225618   1.065   3.928   1.099  0.0753 -0.1982  0.0962
 1328TIP3    H125619   0.999   3.990   1.131  0.2837  0.0812 -0.0126
 1328TIP3    H225620   1.017   3.871   1.039 -0.5045 -1.2232  1.4617
 1329TIP3   OH225621   2.151   2.279   1.973 -0.3114 -0.4984  0.1063
 1329TIP3    H125622   2.076   2.336   1.992 -1.0898 -0.9045 -1.5575
 1329TIP3    H225623   2.179   2.247   2.059 -0.4664  1.5982  1.0008
 1330TIP3   OH225624   1.501   3.647   1.603  0.3019 -0.0623 -0.3343
 1330TIP3    H125625   1.585   3.690   1.617  0.7997 -0.0876 -2.8054
 1330TIP3    H225626   1.444   3.716   1.570 -0.1657 -0.3893 -0.2249
 1331TIP3   OH225627   2.713   5.250   6.980  0.5278 -0.3167 -0.0993
 1331TIP3    H125628   2.745   5.328   6.935 -1.0432  0.8765  0.7398
 1331TIP3    H225629   2.623   5.239   6.947  0.3517 -1.1083  0.6152
 1332TIP3   OH225630   5.832   2.892   7.260 -0.0231 -0.1342 -0.0806
 1332TIP3    H125631   5.844   2.839   7.181 -2.1035 -1.4090  0.3799
 1332TIP3    H225632   5.846   2.832   7.332  0.9053  0.7922  0.5419
 1333TIP3   OH225633   0.367   0.444   0.938  0.4794 -0.2570 -0.5925
 1333TIP3    H125634   0.308   0.476   1.006 -0.6096  0.4587 -1.8215
 1333TIP3    H225635   0.438   0.508   0.936  0.8937 -0.6664  0.3224
 1334TIP3   OH225636   5.591   1.829   6.390  0.0374 -0.1629  0.2129
 1334TIP3    H125637   5.556   1.827   6.479 -0.5618  0.1916 -0.0082
 1334TIP3    H225638   5.529   1.884   6.341 -0.9218 -2.1745 -0.9730
 1335TIP3   OH225639   4.407   3.589   0.258 -0.4105 -0.3337  0.0644
 1335TIP3    H125640   4.476   3.637   0.305 -0.4861  0.0808 -0.2422
 1335TIP3    H225641   4.439   3.499   0.255 -0.0276 -0.2066  0.2072
 1336TIP3   OH225642   2.023   4.780   1.239 -0.5351 -0.5448 -0.1813
 1336TIP3    H125643   1.980   4.863   1.259  1.0533  0.2375  0.1663
 1336TIP3    H225644   2.046   4.743   1.324 -2.9429 -2.3648 -0.2117
 1337TIP3   OH225645   6.916   6.239   6.460  0.1002  0.4395 -0.0654
 1337TIP3    H125646   6.839   6.294   6.472 -1.6696 -2.2268  1.6786
 1337TIP3    H225647   6.938   6.248   6.367 -2.0952  1.5319 -0.5456
 1338TIP3   OH225648   1.770   6.502   1.967  0.4366 -0.4222  0.1490
 1338TIP3    H125649   1.697   6.556   1.936  0.6297 -0.0997  0.2554
 1338TIP3    H225650   1.843   6.563   1.977  1.6794 -1.2099 -2.9705
 1339TIP3   OH225651   3.234   1.684   0.688  0.3209  0.6254  0.0870
 1339TIP3    H125652   3.247   1.757   0.748  0.0198  0.3083  0.5425
 1339TIP3    H225653   3.272   1.608   0.733  1.1628  0.5950 -0.6270
 1340TIP3   OH225654   3.977   4.957   0.447 -0.1600  0.2454 -0.6573
 1340TIP3    H125655   4.050   4.949   0.508 -2.3052 -1.4377  1.9519
 1340TIP3    H225656   3.989   4.885   0.385  1.4200  1.2316 -1.5396
 1341TIP3   OH225657   7.027   0.197   1.414 -0.0695 -0.6972  0.4167
 1341TIP3    H125658   7.026   0.285   1.377 -0.3444 -0.8606  0.0258
 1341TIP3    H225659   7.118   0.182   1.438  0.4595 -1.1741 -1.6425
 1342TIP3   OH225660   5.436   5.502   0.565  0.1333  0.0618 -0.1885
 1342TIP3    H125661   5.494   5.426   0.560 -0.3319 -0.3089 -0.0526
 1342TIP3    H225662   5.494   5.578   0.560  0.5256 -0.2898 -1.4802
 1343TIP3   OH225663   1.298   5.408   6.833  0.0542 -0.2784 -0.4343
 1343TIP3    H125664   1.379   5.407   6.781  1.3234 -0.2289  1.4534
 1343TIP3    H225665   1.248   5.482   6.798  2.5292  2.1292  0.7738
 1344TIP3   OH225666   4.254   5.417   6.116  0.1206 -0.5731 -0.4975
 1344TIP3    H125667   4.168   5.417   6.074  0.3841  1.2624 -1.1087
 1344TIP3    H225668   4.250   5.487   6.180  0.0352 -2.7603  2.0612
 1345TIP3   OH225669   6.686   6.349   0.246  0.1177  0.0712  0.2847
 1345TIP3    H125670   6.633   6.399   0.184 -0.4532 -2.5570 -1.4815
 1345TIP3    H225671   6.623   6.315   0.310 -0.1636 -1.7010 -0.8797
 1346TIP3   OH225672   0.533   4.867   6.689  0.6848  0.3537  0.2944
 1346TIP3    H125673   0.491   4.789   6.652 -0.7727  0.8103  0.9148
 1346TIP3    H225674   0.468   4.937   6.676  1.0755  0.9985  1.6628
 1347TIP3   OH225675   2.675   3.323   8.263 -0.1107 -0.6258  0.5969
 1347TIP3    H125676   2.605   3.388   8.276 -0.0236 -0.1717 -0.9867
 1347TIP3    H225677   2.750   3.375   8.235  0.4684 -1.2499  0.9885
 1348TIP3   OH225678   5.236   1.587   6.220 -0.3487  0.1677 -0.2880
 1348TIP3    H125679   5.173   1.572   6.150  1.2455 -5.1730 -1.1011
 1348TIP3    H225680   5.314   1.621   6.175 -0.5305  0.3457 -0.4693
 1349TIP3   OH225681   3.730   6.544   7.180  0.3881 -0.2299 -0.5728
 1349TIP3    H125682   3.693   6.561   7.093 -0.4014 -0.8968 -0.3773
 1349TIP3    H225683   3.660   6.499   7.227  0.1906  1.5119  0.9360
 1350TIP3   OH225684   6.887   3.429   0.044 -0.5530 -0.4039 -0.5874
 1350TIP3    H125685   6.903   3.365   0.114 -1.0262 -0.2300 -0.3113
 1350TIP3    H225686   6.812   3.393  -0.004 -1.0529  0.1085 -0.2105
 1351TIP3   OH225687   4.790   0.806   1.439  0.2867 -0.4244 -0.0223
 1351TIP3    H125688   4.741   0.760   1.507 -1.5688  0.3358 -0.7793
 1351TIP3    H225689   4.765   0.898   1.448  0.4526 -0.2166 -1.3572
 1352TIP3   OH225690   2.125   1.383   7.890  0.0408 -0.1517  0.0134
 1352TIP3    H125691   2.063   1.325   7.934  1.0080 -0.8213  0.5281
 1352TIP3    H225692   2.071   1.436   7.832 -1.0510 -0.4878  0.6918
 1353TIP3   OH225693   2.839   6.362   6.774 -0.0631 -0.2042 -0.2812
 1353TIP3    H125694   2.842   6.355   6.870 -2.9269 -1.4297 -0.1581
 1353TIP3    H225695   2.833   6.456   6.757  0.6836  0.0398  0.7290
 1354TIP3   OH225696   0.614   5.306   6.553  0.1871 -0.5308 -0.1685
 1354TIP3    H125697   0.576   5.258   6.627 -1.0301  2.3532  1.2222
 1354TIP3    H225698   0.693   5.347   6.588 -0.3372  0.7757 -0.4726
 1355TIP3   OH225699   2.154   0.611   8.134  0.7274  0.3328 -0.1184
 1355TIP3    H125700   2.101   0.531   8.141  1.2430  0.0254  0.3379
 1355TIP3    H225701   2.128   0.649   8.050  0.5273 -0.3495 -0.3737
 1356TIP3   OH225702   0.241   0.525   0.047 -0.1320 -0.1840 -0.1689
 1356TIP3    H125703   0.192   0.535  -0.035 -0.9297 -1.0748  0.1837
 1356TIP3    H225704   0.173   0.518   0.115  0.5008 -0.7176  0.4169
 1357TIP3   OH225705   6.802   0.184   7.296 -0.4498  0.3237  0.0267
 1357TIP3    H125706   6.834   0.191   7.207  1.1505 -0.6897  0.4893
 1357TIP3    H225707   6.852   0.249   7.345  0.8094 -1.1048  0.7093
 1358TIP3   OH225708   4.208   0.691   0.621  0.7849 -0.1107 -0.1574
 1358TIP3    H125709   4.281   0.706   0.561  0.2323 -2.0678 -1.3864
 1358TIP3    H225710   4.244   0.712   0.708  2.6432 -0.4760 -0.7903
 1359TIP3   OH225711   1.030   5.360   8.066  0.2621  0.1612 -0.4661
 1359TIP3    H125712   1.062   5.270   8.079 -1.8914 -0.4419  1.3487
 1359TIP3    H225713   0.935   5.352   8.069  0.0228  2.6072  0.4580
 1360TIP3   OH225714   6.880   2.379   0.049 -0.1071  0.4551 -0.3110
 1360TIP3    H125715   6.968   2.340   0.041 -1.0398 -2.0867  0.7354
 1360TIP3    H225716   6.872   2.403   0.141 -1.0946 -1.0367  0.0361
 1361TIP3   OH225717   0.237   1.139   7.011 -0.6889  0.0134 -0.1549
 1361TIP3    H125718   0.230   1.050   6.977  0.2733 -0.4166  0.7135
 1361TIP3    H225719   0.176   1.190   6.958 -0.0790 -0.8416 -1.7324
 1362TIP3   OH225720   6.868   3.517   1.668  0.6821 -0.2264 -0.0195
 1362TIP3    H125721   6.838   3.539   1.579  0.5507 -0.3089  0.0037
 1362TIP3    H225722   6.797   3.547   1.725  1.9306  2.4078  0.3194
 1363TIP3   OH225723   5.387   5.485   5.688 -0.0449  0.9166  0.0645
 1363TIP3    H125724   5.415   5.464   5.777  0.7266  1.2966 -0.0848
 1363TIP3    H225725   5.451   5.442   5.631 -1.0986 -0.1616 -0.3434
 1364TIP3   OH225726   1.362   3.982   1.118 -0.0274 -0.4681 -0.0648
 1364TIP3    H125727   1.271   3.990   1.092  0.0851  0.2074 -0.2545
 1364TIP3    H225728   1.393   3.904   1.071 -0.3763 -0.4264 -0.3691
 1365TIP3   OH225729   6.580   4.020   1.069  0.6779 -0.1228  0.2282
 1365TIP3    H125730   6.508   4.015   1.005 -0.0122  2.9774  0.5882
 1365TIP3    H225731   6.652   4.060   1.021  1.5428 -1.4240  0.3994
 1366TIP3   OH225732   4.824   2.043   0.987  0.4625  0.1824 -0.5503
 1366TIP3    H125733   4.856   2.015   1.073 -0.6418 -1.4697 -0.6322
 1366TIP3    H225734   4.897   2.025   0.928  0.1148 -1.7808 -0.4436
 1367TIP3   OH225735   6.403   0.281   6.932 -0.2658 -0.1324 -0.1868
 1367TIP3    H125736   6.423   0.262   7.024 -0.7269  0.2552  0.0000
 1367TIP3    H225737   6.325   0.229   6.913  0.5221 -1.1483 -0.7234
 1368TIP3   OH225738   1.947   0.570   6.507 -0.5568  0.1426  0.0162
 1368TIP3    H125739   2.023   0.524   6.474 -1.3404  0.0456 -1.7636
 1368TIP3    H225740   1.876   0.505   6.505 -1.2670  0.9136 -0.8525
 1369TIP3   OH225741   6.752   3.719   6.519  0.0498 -0.1956 -0.1062
 1369TIP3    H125742   6.697   3.739   6.444  1.3147  2.6062 -0.4027
 1369TIP3    H225743   6.735   3.789   6.582  3.4482  1.0684 -0.3702
 1370TIP3   OH225744   1.888   2.638   2.001 -0.1336  0.2118 -0.4834
 1370TIP3    H125745   1.965   2.584   1.984 -0.3119 -0.6252  1.1867
 1370TIP3    H225746   1.923   2.717   2.042  0.1617  1.6340 -3.2246
 1371TIP3   OH225747   6.222   2.275   7.096  0.3791 -0.2461  0.0748
 1371TIP3    H125748   6.258   2.188   7.082  0.3326 -0.3249  0.4253
 1371TIP3    H225749   6.151   2.282   7.033  1.8497  0.4293 -1.5680
 1372TIP3   OH225750   5.080   6.679   1.704  0.0618 -0.2088 -0.1546
 1372TIP3    H125751   5.027   6.644   1.776  1.0642 -2.3253 -0.3699
 1372TIP3    H225752   5.063   6.620   1.631  0.9622  0.4327 -0.8995
 1373TIP3   OH225753   4.539   3.804   1.304  1.1685  0.1482  0.1090
 1373TIP3    H125754   4.450   3.832   1.327  1.6273  1.2044  0.6595
 1373TIP3    H225755   4.547   3.717   1.343  0.5789  0.2938  0.5786
 1374TIP3   OH225756   6.939   6.839   7.714 -0.8260 -0.4029 -0.1285
 1374TIP3    H125757   6.893   6.764   7.676  1.4736 -1.1296 -1.6787
 1374TIP3    H225758   6.952   6.899   7.641  0.1438  0.0339  0.3760
 1375TIP3   OH225759   7.011   5.753   8.119  0.1781  0.4986  0.1212
 1375TIP3    H125760   7.019   5.823   8.183  0.0951  0.5013  0.1285
 1375TIP3    H225761   7.094   5.705   8.125  0.8605  1.4909 -0.9473
 1376TIP3   OH225762   1.284   4.036   6.752 -0.8705 -0.0591 -0.5488
 1376TIP3    H125763   1.192   4.064   6.745 -0.9195  0.1965  0.7331
 1376TIP3    H225764   1.294   4.013   6.845  0.4349  0.1474 -0.6283
 1377TIP3   OH225765   4.594   1.397   1.290 -0.3484  0.0210 -0.0984
 1377TIP3    H125766   4.558   1.464   1.233  0.5061  0.4025 -0.2090
 1377TIP3    H225767   4.528   1.328   1.292 -1.7384  1.3146  0.8858
 1378TIP3   OH225768   1.791   6.736   6.529  0.2528  0.2927  0.0473
 1378TIP3    H125769   1.873   6.768   6.565 -0.5775  2.1121  0.4221
 1378TIP3    H225770   1.785   6.778   6.443  0.5951 -1.3384 -0.8100
 1379TIP3   OH225771   2.086   4.126   0.753  0.2786 -0.2407  0.1579
 1379TIP3    H125772   2.169   4.173   0.743 -0.6658  1.0625 -2.5794
 1379TIP3    H225773   2.051   4.156   0.837  2.7986 -1.3597  1.7323
 1380TIP3   OH225774   2.450   5.038   8.028 -0.3459  0.1436 -0.1068
 1380TIP3    H125775   2.480   5.053   8.117 -0.4220  1.6917 -0.3119
 1380TIP3    H225776   2.483   5.113   7.979 -0.1895 -0.7496 -1.4205
 1381TIP3   OH225777   4.768   1.242   7.556 -0.8194 -0.0703  0.2643
 1381TIP3    H125778   4.772   1.335   7.577 -2.0230  0.7536 -2.6091
 1381TIP3    H225779   4.852   1.225   7.512 -2.4098  1.0572 -3.6074
 1382TIP3   OH225780   4.794   5.386   6.544  0.2680  0.2022 -0.0388
 1382TIP3    H125781   4.826   5.443   6.615  0.1972  0.8558 -0.5171
 1382TIP3    H225782   4.725   5.438   6.501  2.3781  1.1861 -2.5432
 1383TIP3   OH225783   0.000   6.344   0.035  0.4998 -0.2143 -0.4853
 1383TIP3    H125784   0.051   6.269   0.005 -0.7158 -1.4696  0.5009
 1383TIP3    H225785  -0.041   6.378  -0.045  2.2449  0.3949 -1.1827
 1384TIP3   OH225786   7.059   2.666   1.299  0.1298  0.0478  0.2820
 1384TIP3    H125787   6.977   2.625   1.328  0.2826 -0.8640 -0.5156
 1384TIP3    H225788   7.071   2.741   1.358 -0.7735 -0.3736  1.0278
 1385TIP3   OH225789   5.166   3.198   5.733 -0.0994 -0.2257 -0.4130
 1385TIP3    H125790   5.150   3.292   5.738  1.7896  0.2517 -2.1965
 1385TIP3    H225791   5.167   3.169   5.825  0.4239  1.7042  0.2305
 1386TIP3   OH225792   0.710   6.867   0.617  0.0669  0.0884 -0.0586
 1386TIP3    H125793   0.758   6.881   0.699 -0.1490  1.3560 -0.1313
 1386TIP3    H225794   0.779   6.846   0.553  0.2336 -0.9459  0.4283
 1387TIP3   OH225795   2.500   3.506   7.081  0.2408  0.0225  0.1956
 1387TIP3    H125796   2.571   3.444   7.098 -1.1567 -1.9131 -0.6578
 1387TIP3    H225797   2.445   3.501   7.159 -0.1130 -0.1898 -0.0631
 1388TIP3   OH225798   2.319   0.891   7.728  0.2192  0.1909  0.0808
 1388TIP3    H125799   2.381   0.827   7.693 -0.7559 -0.4854 -0.4390
 1388TIP3    H225800   2.293   0.943   7.652 -1.3658 -0.8224 -0.1034
 1389TIP3   OH225801   2.900   2.877   0.442  0.3630  0.1844 -0.7956
 1389TIP3    H125802   2.955   2.948   0.408  0.7423  0.1615 -0.2412
 1389TIP3    H225803   2.913   2.879   0.536  0.1454 -0.4394 -0.7441
 1390TIP3   OH225804   0.162   4.323   8.246  0.7583  0.4683  0.3499
 1390TIP3    H125805   0.101   4.268   8.197  0.7231  0.1983  0.6935
 1390TIP3    H225806   0.244   4.274   8.248  0.7640  0.4819  0.5470
 1391TIP3   OH225807   5.367   3.698   1.127 -0.7153  0.0551 -0.2900
 1391TIP3    H125808   5.330   3.641   1.195 -1.0083 -0.2442 -0.6926
 1391TIP3    H225809   5.420   3.640   1.073 -0.9458  0.1794 -0.6542
 1392TIP3   OH225810   5.704   2.712   0.077 -0.0730  0.4516 -0.5224
 1392TIP3    H125811   5.752   2.630   0.067  0.3873  0.7465 -0.7361
 1392TIP3    H225812   5.659   2.724  -0.006 -0.0533  0.4751 -0.5293
 1393TIP3   OH225813   3.288   0.096   7.077  0.6792 -0.1689  0.0102
 1393TIP3    H125814   3.220   0.154   7.111 -1.0119 -3.0021  1.8223
 1393TIP3    H225815   3.320   0.048   7.153  0.0339 -3.5151 -1.6266
 1394TIP3   OH225816   0.445   6.209   6.905  0.0930  0.8208  0.0166
 1394TIP3    H125817   0.511   6.279   6.910 -0.5253  1.3340  3.3708
 1394TIP3    H225818   0.367   6.253   6.873  0.2255  1.1900  0.1967
 1395TIP3   OH225819   2.031   0.841   0.749  0.4589 -0.3134  0.4096
 1395TIP3    H125820   1.970   0.897   0.701 -2.1892 -1.8801  1.7203
 1395TIP3    H225821   2.061   0.896   0.822  1.5325  0.8251 -0.8354
 1396TIP3   OH225822   0.471   2.252   1.223  0.0332  0.0564  0.3510
 1396TIP3    H125823   0.416   2.251   1.302  0.5135  0.6442  0.6974
 1396TIP3    H225824   0.443   2.330   1.175 -0.8878 -0.7808 -0.5289
 1397TIP3   OH225825   3.724   3.992   1.088 -0.4459 -0.1916  0.3938
 1397TIP3    H125826   3.663   4.036   1.148  0.7298  1.8951  0.1678
 1397TIP3    H225827   3.667   3.942   1.029 -1.9372  1.2348  0.5286
 1398TIP3   OH225828   4.329   4.961   7.433  0.0189  0.2962  0.2247
 1398TIP3    H125829   4.424   4.963   7.446 -0.1438  0.7099  1.4392
 1398TIP3    H225830   4.315   5.015   7.355  0.8631 -0.7062 -0.6566
 1399TIP3   OH225831   4.861   4.356   0.933 -0.2085 -0.2029  0.0026
 1399TIP3    H125832   4.886   4.266   0.953  1.2032  0.0613 -0.4718
 1399TIP3    H225833   4.933   4.409   0.967 -0.6789  0.6910 -0.3716
 1400TIP3   OH225834   3.608   5.065   7.998  0.3375  0.2609 -0.2866
 1400TIP3    H125835   3.640   5.059   7.908  0.2415  1.6278 -0.4317
 1400TIP3    H225836   3.681   5.102   8.048 -0.6027  2.4080 -0.4183
 1401TIP3   OH225837   1.810   6.308   7.632 -0.4334 -0.2716  0.1157
 1401TIP3    H125838   1.817   6.222   7.674  1.1986  0.1117  0.6790
 1401TIP3    H225839   1.742   6.296   7.566  0.6651 -2.4052 -0.7425
 1402TIP3   OH225840   4.565   4.066   1.416 -0.3091  0.0506  0.2275
 1402TIP3    H125841   4.658   4.058   1.435  0.2570  1.8607 -1.4370
 1402TIP3    H225842   4.528   3.981   1.440  2.1974 -1.5970 -1.3045
 1403TIP3   OH225843   1.139   4.834   6.881  0.2448 -0.0600  0.1039
 1403TIP3    H125844   1.059   4.801   6.921 -0.1392  0.4927 -0.2000
 1403TIP3    H225845   1.176   4.894   6.946 -1.4455  2.4500 -1.0924
 1404TIP3   OH225846   1.441   3.632   0.008  0.3959 -0.0032 -0.2051
 1404TIP3    H125847   1.515   3.647  -0.051  0.3777  0.9299 -0.0027
 1404TIP3    H225848   1.380   3.579  -0.044  1.1670 -0.7482 -0.3923
 1405TIP3   OH225849   5.190   1.238   8.160 -0.2419  0.7965 -0.1247
 1405TIP3    H125850   5.108   1.267   8.118  0.5385 -0.1849 -2.4793
 1405TIP3    H225851   5.169   1.152   8.195 -0.0641  0.2248 -1.3689
 1406TIP3   OH225852   6.797   7.041   0.441  0.1883 -0.0728 -0.2917
 1406TIP3    H125853   6.792   7.134   0.467  1.0320 -0.0816 -0.0465
 1406TIP3    H225854   6.882   7.012   0.475 -0.1284 -0.9781 -0.2467
 1407TIP3   OH225855   6.381   0.584   0.048 -0.2419 -0.0595  0.2812
 1407TIP3    H125856   6.298   0.614   0.085 -0.1497  1.1192 -0.4140
 1407TIP3    H225857   6.376   0.489   0.053 -1.9075 -0.0444 -0.2930
 1408TIP3   OH225858   1.781   1.338   1.810  0.3231  0.2984 -0.6924
 1408TIP3    H125859   1.810   1.426   1.833  1.0165 -0.6644  2.7859
 1408TIP3    H225860   1.854   1.282   1.835 -0.9776 -1.4441 -0.6670
 1409TIP3   OH225861   0.961   3.497   6.457 -0.5937  0.1283  0.2122
 1409TIP3    H125862   0.941   3.557   6.385 -0.6627  1.0824  1.0077
 1409TIP3    H225863   1.051   3.469   6.440 -1.0640 -0.7391 -0.9832
 1410TIP3   OH225864   0.097   6.722   6.381  0.0391 -0.0211 -0.4450
 1410TIP3    H125865   0.085   6.637   6.422  0.0837 -0.3406 -1.0877
 1410TIP3    H225866   0.183   6.752   6.411 -1.0600  1.0466  1.9745
 1411TIP3   OH225867   1.958   0.701   6.747  0.3059 -0.1425 -0.1180
 1411TIP3    H125868   1.940   0.640   6.676 -0.1497 -0.4292  0.2398
 1411TIP3    H225869   2.021   0.763   6.710 -1.6791  1.1179 -1.5215
 1412TIP3   OH225870   1.238   3.119   1.372 -0.0169  1.0490 -0.1491
 1412TIP3    H125871   1.254   3.113   1.466 -1.7174 -0.8299  0.0826
 1412TIP3    H225872   1.148   3.149   1.364  0.5107  2.4571 -1.2370
 1413TIP3   OH225873   0.963   3.595   7.932  0.3794 -0.1365 -0.0045
 1413TIP3    H125874   1.019   3.633   7.999  1.8253 -3.1322  0.6688
 1413TIP3    H225875   0.883   3.571   7.979  0.6850 -0.6388  0.2677
 1414TIP3   OH225876   0.449   3.637   0.221  0.0229 -0.1415  0.4737
 1414TIP3    H125877   0.404   3.552   0.219  1.5629 -0.9737 -0.3589
 1414TIP3    H225878   0.413   3.684   0.146  0.8284 -0.9881 -0.4767
 1415TIP3   OH225879   4.144   2.048   0.652  0.0679  0.0194 -0.0957
 1415TIP3    H125880   4.113   2.125   0.700  1.6030  1.3993 -1.1736
 1415TIP3    H225881   4.071   2.025   0.594 -0.8837 -0.1580  1.1418
 1416TIP3   OH225882   5.962   3.973   1.180 -0.1760 -0.0419  0.4118
 1416TIP3    H125883   5.946   4.025   1.259 -2.2418 -0.2245  0.1627
 1416TIP3    H225884   5.997   4.036   1.117  0.1179  0.4001  1.0031
 1417TIP3   OH225885   2.507   3.717   1.216  0.5177  0.1019  0.3651
 1417TIP3    H125886   2.467   3.792   1.172 -2.7121  0.0789  2.8586
 1417TIP3    H225887   2.535   3.750   1.301  1.7886 -0.9100  0.3734
 1418TIP3   OH225888   1.014   1.008   7.771  0.0281  0.5918 -0.2012
 1418TIP3    H125889   1.011   1.064   7.849  0.1806 -0.8617  0.8697
 1418TIP3    H225890   1.020   1.070   7.698 -1.0657  2.0128  0.8605
 1419TIP3   OH225891   0.564   5.932   0.814  0.0898 -0.0083  0.2811
 1419TIP3    H125892   0.634   5.888   0.765  0.0513 -0.3390  0.5213
 1419TIP3    H225893   0.575   5.902   0.904 -1.3644 -1.3973  0.0580
 1420TIP3   OH225894   1.832   5.616   1.031 -0.1935  0.3668  0.2151
 1420TIP3    H125895   1.897   5.683   1.052  0.2774 -0.4045  1.3149
 1420TIP3    H225896   1.794   5.593   1.116  0.2636 -1.3793 -0.0330
 1421TIP3   OH225897   4.862   6.923   1.271  0.1661  0.0866 -0.0118
 1421TIP3    H125898   4.814   6.966   1.201  0.1637 -0.6401 -0.4681
 1421TIP3    H225899   4.794   6.882   1.325  0.2398 -0.5504 -0.3947
 1422TIP3   OH225900   4.764   2.400   2.198  0.7129 -0.2212  0.1193
 1422TIP3    H125901   4.703   2.469   2.170 -0.7033 -0.9286  1.3008
 1422TIP3    H225902   4.840   2.447   2.231 -0.1731  0.7877  0.7883
 1423TIP3   OH225903   3.985   4.909   1.103  0.3009 -0.1453 -0.5393
 1423TIP3    H125904   4.060   4.875   1.153 -0.3880  1.5020  1.7705
 1423TIP3    H225905   4.024   4.938   1.020  1.9225 -0.7817 -0.0529
 1424TIP3   OH225906   0.151   2.191   7.713 -0.3178 -0.1632 -0.0984
 1424TIP3    H125907   0.097   2.269   7.708 -2.7633 -1.5752  1.8584
 1424TIP3    H225908   0.196   2.198   7.797  0.0615 -0.4783 -0.2719
 1425TIP3   OH225909   1.226   1.357   0.413  0.3070  0.1181 -0.2246
 1425TIP3    H125910   1.186   1.273   0.387 -0.1413 -0.0059  0.7836
 1425TIP3    H225911   1.153   1.407   0.450  0.7424  0.6032 -0.0138
 1426TIP3   OH225912   6.765   4.608   6.664 -0.2367 -0.0842 -0.1452
 1426TIP3    H125913   6.776   4.538   6.728  0.9032  0.0949 -0.1170
 1426TIP3    H225914   6.828   4.587   6.595  1.3897  1.7852  0.6676
 1427TIP3   OH225915   4.552   6.568   0.175 -0.4711 -0.7154  0.4738
 1427TIP3    H125916   4.536   6.479   0.143  0.0665 -0.4316 -0.6177
 1427TIP3    H225917   4.639   6.565   0.215 -1.5385 -1.3213  2.9595
 1428TIP3   OH225918   1.893   1.877   8.079 -0.1556  0.5986  0.2310
 1428TIP3    H125919   1.859   1.825   8.006  0.5821  0.2600  0.1127
 1428TIP3    H225920   1.986   1.889   8.059  0.1608  0.1472  1.3085
 1429TIP3   OH225921   3.156   6.896   6.981 -0.6794 -0.3370  0.0074
 1429TIP3    H125922   3.220   6.950   7.028 -0.7529  0.2280 -0.5363
 1429TIP3    H225923   3.167   6.808   7.018  2.5051 -0.9829 -2.0894
 1430TIP3   OH225924   6.729   6.529   5.996 -0.0427  0.1189 -0.9157
 1430TIP3    H125925   6.806   6.512   5.943 -0.5522  1.6466 -2.2460
 1430TIP3    H225926   6.732   6.463   6.066  1.8151 -0.5728 -1.5904
 1431TIP3   OH225927   0.575   6.112   1.140  0.5880  0.2757  0.0679
 1431TIP3    H125928   0.624   6.072   1.068  1.0023 -1.1012  1.0744
 1431TIP3    H225929   0.562   6.203   1.112 -2.5436 -0.9858 -3.4553
 1432TIP3   OH225930   4.400   0.719   0.413  0.5260 -0.1773 -0.7184
 1432TIP3    H125931   4.495   0.724   0.425  0.9199  0.7318 -3.4267
 1432TIP3    H225932   4.384   0.629   0.387  0.3290 -0.8420  1.5511
 1433TIP3   OH225933   3.377   4.407   6.364 -0.3306 -0.4784  0.1541
 1433TIP3    H125934   3.314   4.417   6.293 -1.1505 -0.8901  0.8121
 1433TIP3    H225935   3.416   4.321   6.350 -2.3952 -1.7377  1.6632
 1434TIP3   OH225936   6.126   6.005   1.697 -0.6048  0.4029 -0.4474
 1434TIP3    H125937   6.135   5.967   1.785 -0.4547  0.5734 -0.3912
 1434TIP3    H225938   6.140   6.099   1.709 -1.3070  0.5241 -0.5331
 1435TIP3   OH225939   0.302   5.554   0.700  0.3979  0.1508  0.1044
 1435TIP3    H125940   0.274   5.481   0.755  2.6997  0.2025  1.4934
 1435TIP3    H225941   0.392   5.571   0.728  0.0981  3.2312 -0.4871
 1436TIP3   OH225942   6.037   3.938   8.097 -0.3983 -0.1979 -0.6711
 1436TIP3    H125943   5.989   3.897   8.170  1.1560 -1.9548 -0.5539
 1436TIP3    H225944   5.970   3.955   8.031 -1.3613 -1.6355 -0.1141
 1437TIP3   OH225945   1.505   3.302   6.453  0.0200 -0.4156  0.1784
 1437TIP3    H125946   1.559   3.381   6.446  1.0586 -1.1446 -0.3747
 1437TIP3    H225947   1.558   3.233   6.413 -1.3789 -1.1474 -0.5235
 1438TIP3   OH225948   2.919   5.469   1.385  0.0732 -0.2068  0.0382
 1438TIP3    H125949   2.829   5.500   1.369  0.3927  0.4765 -0.4943
 1438TIP3    H225950   2.932   5.481   1.479 -0.8359 -1.5343  0.3524
 1439TIP3   OH225951   6.048   0.961   0.349 -0.1365 -0.7840  0.2165
 1439TIP3    H125952   6.118   0.912   0.392 -0.1298 -1.3371 -0.4176
 1439TIP3    H225953   6.006   1.009   0.421 -0.1073 -1.6704  0.8451
 1440TIP3   OH225954   1.923   1.213   6.743  0.2603 -0.1321 -0.6269
 1440TIP3    H125955   2.007   1.183   6.709  0.2535 -1.6127  0.5388
 1440TIP3    H225956   1.877   1.249   6.667  2.5567  2.2628 -0.9959
 1441TIP3   OH225957   3.330   2.252   7.044  0.0152 -0.4261 -0.5992
 1441TIP3    H125958   3.360   2.193   6.974 -2.3065 -0.3749 -1.7348
 1441TIP3    H225959   3.292   2.193   7.109 -0.4776 -0.3139 -0.7824
 1442TIP3   OH225960   1.438   0.749   5.995  0.6904  0.7283  0.4622
 1442TIP3    H125961   1.450   0.734   6.089  2.3011  0.4575  0.2439
 1442TIP3    H225962   1.498   0.821   5.974  1.1727  0.0519 -0.5485
 1443TIP3   OH225963   5.583   4.967   8.097  0.1975 -0.3615 -0.4112
 1443TIP3    H125964   5.675   4.944   8.087 -0.2442 -1.5200 -2.3378
 1443TIP3    H225965   5.568   5.035   8.031 -0.5048 -0.7527 -0.6654
 1444TIP3   OH225966   1.798   4.627   8.190  0.2665 -0.3509  0.4537
 1444TIP3    H125967   1.797   4.629   8.286 -1.4968 -1.2415  0.5090
 1444TIP3    H225968   1.829   4.539   8.168 -1.5749 -1.0142  0.3127
 1445TIP3   OH225969   4.018   4.537   6.331 -0.1804  0.4973 -0.4865
 1445TIP3    H125970   3.988   4.628   6.338  2.3800  1.3063  0.8186
 1445TIP3    H225971   4.061   4.533   6.246 -1.3701  0.0956 -1.1047
 1446TIP3   OH225972   0.623   3.648   1.326 -0.7070  0.1183 -0.4218
 1446TIP3    H125973   0.673   3.730   1.328 -0.8608  0.2018  1.0620
 1446TIP3    H225974   0.600   3.636   1.234  1.0449  0.6778 -0.9600
 1447TIP3   OH225975   1.106   4.857   7.635 -0.2352 -0.4000  0.1536
 1447TIP3    H125976   1.067   4.799   7.700 -0.0565 -0.3841  0.2777
 1447TIP3    H225977   1.040   4.865   7.566  0.1214 -1.5625 -0.3577
 1448TIP3   OH225978   4.045   5.073   6.115 -0.2155 -0.6002  0.1233
 1448TIP3    H125979   3.970   5.019   6.090 -2.0595  2.0008 -0.3317
 1448TIP3    H225980   4.090   5.021   6.181 -1.5366 -2.9041 -0.6630
 1449TIP3   OH225981   4.334   1.532   7.696 -0.6360 -0.0465  0.5173
 1449TIP3    H125982   4.406   1.569   7.748 -0.9511  1.0415  0.2131
 1449TIP3    H225983   4.342   1.438   7.708  1.2618 -0.0052 -0.0472
 1450TIP3   OH225984   2.835   6.231   8.074 -0.4493 -0.3523 -0.5402
 1450TIP3    H125985   2.866   6.148   8.037  1.1166  0.0967 -0.2947
 1450TIP3    H225986   2.880   6.237   8.158 -3.0831 -0.8167  1.0188
 1451TIP3   OH225987   3.752   6.028   1.671  0.4307  0.4095 -0.8203
 1451TIP3    H125988   3.728   6.056   1.759  1.8746  2.1202 -0.9263
 1451TIP3    H225989   3.672   6.042   1.619  0.3197  1.8677 -0.3031
 1452TIP3   OH225990   0.918   5.361   7.238  0.5576 -0.2885  0.1238
 1452TIP3    H125991   0.917   5.327   7.327 -0.1724 -0.9859 -0.1480
 1452TIP3    H225992   0.945   5.453   7.248 -2.2590  0.5141  1.3725
 1453TIP3   OH225993   6.995   3.687   6.843  0.0031 -0.0132  0.1065
 1453TIP3    H125994   7.042   3.759   6.885 -0.4411 -0.1574  0.8623
 1453TIP3    H225995   7.035   3.681   6.755  1.3380 -0.0828  0.6877
 1454TIP3   OH225996   2.749   6.575   0.199 -0.0327 -0.3239  0.0991
 1454TIP3    H125997   2.790   6.577   0.113 -0.3324  0.3290 -0.0365
 1454TIP3    H225998   2.819   6.547   0.258  0.6974  0.9665 -0.1061
 1455TIP3   OH225999   3.281   4.799   7.556  0.0547  0.6233 -0.3734
 1455TIP3    H126000   3.360   4.750   7.576 -1.1595 -2.5552 -2.6250
 1455TIP3    H226001   3.269   4.857   7.632  2.9920 -0.7294  1.2863
 1456TIP3   OH226002   0.070   1.225   8.140 -0.6201 -0.5869  0.3322
 1456TIP3    H126003   0.002   1.199   8.078 -1.0726 -1.7761  1.2667
 1456TIP3    H226004   0.095   1.143   8.183  0.8003 -0.0331  0.6075
 1457TIP3   OH226005   6.683   7.063   7.613 -0.2202  0.2856 -0.3896
 1457TIP3    H126006   6.638   7.123   7.672 -1.0388 -0.6057 -0.0813
 1457TIP3    H226007   6.673   6.977   7.654 -0.0832 -0.2301 -1.4066
 1458TIP3   OH226008   3.159   3.057   0.679  0.2815  0.3474  0.4686
 1458TIP3    H126009   3.195   3.014   0.601 -1.9071 -0.5829 -0.1086
 1458TIP3    H226010   3.173   3.150   0.664  2.1381  0.0673  0.1765
 1459TIP3   OH226011   6.664   0.800   1.311 -1.0246 -0.1214 -0.3013
 1459TIP3    H126012   6.656   0.894   1.299  0.5975  0.0395 -0.3478
 1459TIP3    H226013   6.722   0.772   1.239  0.9867 -0.6421  1.4253
 1460TIP3   OH226014   5.078   4.946   7.652  1.1058  0.3983 -0.0129
 1460TIP3    H126015   5.013   5.015   7.659  0.4843 -0.2264  0.4504
 1460TIP3    H226016   5.032   4.874   7.609  1.9893  0.5653 -1.2816
 1461TIP3   OH226017   1.425   1.964   1.174 -0.1052 -0.3394 -0.4378
 1461TIP3    H126018   1.448   1.993   1.086 -1.8322 -0.0882 -0.8570
 1461TIP3    H226019   1.361   2.028   1.204 -0.8944 -1.4231  0.2743
 1462TIP3   OH226020   1.771   1.467   6.780  0.3128 -0.0400 -1.1421
 1462TIP3    H126021   1.769   1.421   6.864 -2.0867  0.5003 -0.8361
 1462TIP3    H226022   1.864   1.487   6.766  0.8998 -1.1175  0.8164
 1463TIP3   OH226023   6.205   5.021   7.944  0.2584  0.0571  0.3337
 1463TIP3    H126024   6.147   5.043   7.871 -0.7359 -0.6303  0.9014
 1463TIP3    H226025   6.290   5.005   7.902 -0.4690 -1.0817 -0.7914
 1464TIP3   OH226026   7.082   6.739   7.348  0.0669  0.0235 -0.3475
 1464TIP3    H126027   7.049   6.676   7.284 -0.8947  0.0937  0.0623
 1464TIP3    H226028   7.005   6.791   7.373  0.3377 -0.2345  1.1266
 1465TIP3   OH226029   5.865   0.222   1.185 -0.2834  0.3179 -0.2418
 1465TIP3    H126030   5.838   0.301   1.232  0.0202  0.8187 -0.8932
 1465TIP3    H226031   5.941   0.189   1.233 -0.2462  0.5733 -0.1257
 1466TIP3   OH226032   2.771   1.232   1.205 -0.1025  0.0841  0.3029
 1466TIP3    H126033   2.846   1.225   1.146 -0.6537  2.1255 -0.7536
 1466TIP3    H226034   2.703   1.178   1.163 -0.1359  0.6104 -0.3301
 1467TIP3   OH226035   5.659   5.938   0.172 -0.5864  0.0195  0.0753
 1467TIP3    H126036   5.664   5.871   0.103 -1.4570 -0.6694  0.6574
 1467TIP3    H226037   5.701   5.897   0.248  1.9420  1.3965 -0.4423
 1468TIP3   OH226038   6.561   2.485   6.479  0.2884  0.2190 -0.0538
 1468TIP3    H126039   6.565   2.392   6.455 -1.4467 -0.0947  0.7276
 1468TIP3    H226040   6.626   2.527   6.422  0.0633 -1.2619 -1.4861
 1469TIP3   OH226041   5.760   4.561   5.963  0.5543  0.3273 -0.2475
 1469TIP3    H126042   5.717   4.478   5.983 -1.7000  1.1365 -1.2887
 1469TIP3    H226043   5.852   4.539   5.950  0.1066 -1.9093 -0.0149
 1470TIP3   OH226044   6.058   2.326   1.009 -0.0387  0.1383  0.2893
 1470TIP3    H126045   6.136   2.373   0.980 -0.6811  1.6259  0.8252
 1470TIP3    H226046   6.071   2.313   1.103  1.0171 -2.6236 -0.1427
 1471TIP3   OH226047   2.520   2.355   1.127  0.4602 -0.4135  0.3801
 1471TIP3    H126048   2.534   2.445   1.100  2.3168 -0.7221  0.1554
 1471TIP3    H226049   2.426   2.341   1.118  0.2144  1.3376 -0.0533
 1472TIP3   OH226050   3.055   2.987   1.109  0.1123  0.3884  0.3484
 1472TIP3    H126051   2.995   3.048   1.067 -0.8899  0.2092  1.4679
 1472TIP3    H226052   3.051   3.010   1.202 -0.2200 -1.3232  0.7827
 1473TIP3   OH226053   6.246   4.796   1.823  0.1999  0.3662 -0.3805
 1473TIP3    H126054   6.320   4.825   1.876  0.0327 -0.3835  0.2794
 1473TIP3    H226055   6.170   4.835   1.864  0.1006  0.0395 -0.2502
 1474TIP3   OH226056   5.437   6.570   0.414  0.2352 -0.5596 -0.2940
 1474TIP3    H126057   5.342   6.578   0.424  0.3709  2.0582 -0.4425
 1474TIP3    H226058   5.473   6.639   0.470  2.0416 -1.0787 -0.7421
 1475TIP3   OH226059   3.458   0.212   1.001 -0.3773  0.4400  0.4843
 1475TIP3    H126060   3.480   0.271   0.929  0.6821 -1.9086 -1.2404
 1475TIP3    H226061   3.418   0.136   0.959  0.7010 -1.2369  2.3098
 1476TIP3   OH226062   3.038   3.874   7.530 -0.0516  0.6475  0.5010
 1476TIP3    H126063   2.983   3.949   7.552 -0.1242  0.8669 -0.3917
 1476TIP3    H226064   3.000   3.801   7.580 -0.3845  1.0599  0.8551
 1477TIP3   OH226065   5.512   0.532   0.400  0.2611  0.4981 -0.4308
 1477TIP3    H126066   5.532   0.620   0.369  2.7601  0.7437  1.4875
 1477TIP3    H226067   5.577   0.476   0.358  0.6760  0.1112  0.6805
 1478TIP3   OH226068   7.006   4.405   1.769  0.0919  0.3947 -0.5993
 1478TIP3    H126069   7.036   4.350   1.841 -0.3260  0.0493 -0.6859
 1478TIP3    H226070   7.042   4.492   1.789  2.6980 -0.3685 -1.6663
 1479TIP3   OH226071   0.935   5.213   6.618 -0.1530 -0.1236  0.0544
 1479TIP3    H126072   0.868   5.147   6.631 -0.3558 -0.0509 -0.6025
 1479TIP3    H226073   1.004   5.190   6.681 -0.1206 -1.0913 -0.3287
 1480TIP3   OH226074   6.695   0.600   8.283  0.1976  0.3007  0.0211
 1480TIP3    H126075   6.707   0.694   8.271 -0.0140  0.4617  0.9350
 1480TIP3    H226076   6.662   0.592   8.373 -0.3378 -0.6029 -0.2440
 1481TIP3   OH226077   3.967   0.033   6.367 -0.2817  0.2234  0.1425
 1481TIP3    H126078   3.880   0.037   6.327 -0.6881 -1.4330  0.7820
 1481TIP3    H226079   4.028   0.039   6.294 -0.9458  0.2930 -0.4137
 1482TIP3   OH226080   5.564   1.426   0.543  0.1084 -0.8285 -0.0120
 1482TIP3    H126081   5.536   1.488   0.476  2.0043  0.4656  0.2911
 1482TIP3    H226082   5.596   1.350   0.494  2.0126  0.3293 -0.6999
 1483TIP3   OH226083   3.904   6.775   8.116  0.4245  0.4078  0.4362
 1483TIP3    H126084   3.950   6.858   8.101  0.5899  0.1375 -0.6274
 1483TIP3    H226085   3.821   6.802   8.157  1.0312  0.9808  1.3242
 1484TIP3   OH226086   2.528   5.717   7.002  0.0680 -1.0530 -0.0814
 1484TIP3    H126087   2.533   5.675   7.088 -0.4558 -1.7887 -0.3952
 1484TIP3    H226088   2.434   5.717   6.981  0.0244  0.4589 -0.0188
 1485TIP3   OH226089   5.646   5.944   7.430 -0.0072  0.2694 -0.4502
 1485TIP3    H126090   5.585   5.918   7.361  0.8536 -0.0415 -1.1220
 1485TIP3    H226091   5.592   5.951   7.509 -0.8650 -0.1879 -0.9798
 1486TIP3   OH226092   4.478   2.606   7.434 -0.0780 -0.9530  0.0538
 1486TIP3    H126093   4.416   2.608   7.362 -1.5870 -1.2771  1.2975
 1486TIP3    H226094   4.441   2.667   7.499 -1.6719 -4.5000  2.7858
 1487TIP3   OH226095   4.366   3.146   0.889  0.0793  0.2736  0.2306
 1487TIP3    H126096   4.445   3.149   0.943  0.4378 -0.4293 -0.2334
 1487TIP3    H226097   4.398   3.123   0.802 -0.0532  4.5104 -1.1767
 1488TIP3   OH226098   4.012   2.099   6.516  0.4106  0.4818  0.5555
 1488TIP3    H126099   4.010   2.185   6.559 -0.0960  1.6111 -1.5530
 1488TIP3    H226100   3.975   2.039   6.581 -0.2818  2.0648  1.7084
 1489TIP3   OH226101   4.485   0.121   6.452  0.3742 -0.2472 -0.1138
 1489TIP3    H126102   4.539   0.053   6.411  0.8488 -0.1441  0.3284
 1489TIP3    H226103   4.449   0.170   6.378 -0.5617 -1.4037 -0.4592
 1490TIP3   OH226104   3.184   6.676   7.595  0.8913 -0.1943  0.6049
 1490TIP3    H126105   3.128   6.709   7.666  1.0874 -1.2392  1.2676
 1490TIP3    H226106   3.238   6.751   7.571  0.0611  0.4836  0.8076
 1491TIP3   OH226107   3.914   3.577   6.788  0.0720  0.2561 -0.2196
 1491TIP3    H126108   3.822   3.565   6.765  0.7697 -2.1870 -2.2221
 1491TIP3    H226109   3.947   3.489   6.803  1.8370  1.1708  1.7430
 1492TIP3   OH226110   0.711   2.411   6.797  0.0550  0.3029 -0.2584
 1492TIP3    H126111   0.672   2.455   6.873  0.0231  1.3939 -0.8807
 1492TIP3    H226112   0.662   2.330   6.788  0.1221  0.1099  0.9407
 1493TIP3   OH226113   6.644   6.077   1.369  0.6640 -0.0524  0.1688
 1493TIP3    H126114   6.564   6.026   1.382 -0.2769  1.2807 -0.1373
 1493TIP3    H226115   6.677   6.049   1.283  0.0874 -0.0385 -0.0598
 1494TIP3   OH226116   2.281   2.267   7.635  0.3176 -0.4602  0.0176
 1494TIP3    H126117   2.193   2.303   7.625  0.5132 -0.6140 -2.9992
 1494TIP3    H226118   2.326   2.290   7.554  2.1013 -3.0425  0.1531
 1495TIP3   OH226119   0.432   3.776   6.323  0.0566  0.4462  0.5083
 1495TIP3    H126120   0.397   3.689   6.304  0.9823  0.1147  0.2386
 1495TIP3    H226121   0.469   3.768   6.411 -0.1893  0.6725  0.6320
 1496TIP3   OH226122   1.738   0.401   6.480 -1.0736 -0.1386 -0.7421
 1496TIP3    H126123   1.733   0.355   6.397 -1.3861 -1.4700 -0.0216
 1496TIP3    H226124   1.725   0.333   6.546 -0.9676  0.8997  0.3963
 1497TIP3   OH226125   5.170   4.319   1.326 -0.1967 -0.3864  0.0544
 1497TIP3    H126126   5.124   4.354   1.249  1.4805  1.9010  0.0003
 1497TIP3    H226127   5.108   4.332   1.398 -0.4508  0.7925 -0.3464
 1498TIP3   OH226128   6.711   4.944   1.002 -0.6441  0.2021  0.4653
 1498TIP3    H126129   6.621   4.969   1.023 -1.1034 -2.2074  1.8264
 1498TIP3    H226130   6.717   4.953   0.907 -1.5723  2.5009  0.5625
 1499TIP3   OH226131   0.801   0.821   6.358 -0.4366  0.0626  0.2708
 1499TIP3    H126132   0.714   0.859   6.345  0.1406  1.6350  0.8096
 1499TIP3    H226133   0.800   0.741   6.305 -2.1398  0.1386  0.1232
 1500TIP3   OH226134   1.607   0.896   6.348  0.2875 -0.3695 -0.8683
 1500TIP3    H126135   1.691   0.931   6.320  0.7365 -0.6643  0.0760
 1500TIP3    H226136   1.628   0.831   6.415 -0.6947 -0.4071 -0.5678
 1501TIP3   OH226137   3.986   3.992   7.107 -0.2903 -0.4087 -0.1597
 1501TIP3    H126138   4.015   4.015   7.195 -0.6420 -2.0300  0.4012
 1501TIP3    H226139   3.900   4.033   7.098 -0.0397  0.1735  0.0505
 1502TIP3   OH226140   3.341   6.232   6.640 -0.1461  0.2182 -0.4710
 1502TIP3    H126141   3.419   6.178   6.651 -0.4944 -0.3502 -0.7957
 1502TIP3    H226142   3.354   6.277   6.556  1.1731  2.3627  0.7869
 1503TIP3   OH226143   5.470   5.344   1.210  0.3715 -0.3450  0.5120
 1503TIP3    H126144   5.382   5.378   1.195  0.5869  0.7537  1.5875
 1503TIP3    H226145   5.502   5.320   1.122 -1.7943 -2.9735  0.2991
 1504TIP3   OH226146   4.588   5.589   0.778  0.0851 -0.1723 -0.2335
 1504TIP3    H126147   4.577   5.671   0.828  1.1393 -0.3835  0.3583
 1504TIP3    H226148   4.524   5.597   0.707 -1.5411  0.0988  1.1756
 1505TIP3   OH226149   3.517   5.394   1.019  0.3048 -0.1277 -0.0324
 1505TIP3    H126150   3.585   5.448   0.978  0.3318 -1.4143 -1.7930
 1505TIP3    H226151   3.476   5.348   0.947 -0.0952 -2.0488  1.3441
 1506TIP3   OH226152   4.095   4.259   6.866  0.5766 -0.2872 -0.0272
 1506TIP3    H126153   4.119   4.340   6.910 -0.3713  0.3068 -0.5532
 1506TIP3    H226154   4.009   4.278   6.827  0.4436 -1.4710 -0.3435
 1507TIP3   OH226155   3.980   3.600   0.470 -0.3341 -0.1393 -0.2906
 1507TIP3    H126156   3.991   3.510   0.439  2.3120  0.1564 -0.4069
 1507TIP3    H226157   4.027   3.654   0.407  3.8438  0.6227  3.0438
 1508TIP3   OH226158   0.799   0.384   7.502  0.3420 -0.1802  0.4592
 1508TIP3    H126159   0.725   0.324   7.503 -0.2222  0.5008  1.0396
 1508TIP3    H226160   0.875   0.328   7.490 -0.0310 -1.2078  2.4162
 1509TIP3   OH226161   4.518   2.920   7.306  0.3072  0.1183 -0.1491
 1509TIP3    H126162   4.446   2.907   7.368  1.3386  1.5245  1.4149
 1509TIP3    H226163   4.581   2.853   7.328  0.2448 -0.0203 -0.3799
 1510TIP3   OH226164   4.861   2.346   0.301  0.2203  0.0881 -0.5446
 1510TIP3    H126165   4.828   2.435   0.315 -0.1877 -0.1687  0.1774
 1510TIP3    H226166   4.799   2.308   0.239 -1.3487 -0.6257  1.3333
 1511TIP3   OH226167   6.566   5.736   0.601 -0.6761  0.0511  0.6476
 1511TIP3    H126168   6.481   5.763   0.566 -0.2082  1.8420  0.7739
 1511TIP3    H226169   6.586   5.802   0.667  1.4511  0.5236 -0.3912
 1512TIP3   OH226170   6.249   5.449   1.209  0.5286 -0.2212  0.3266
 1512TIP3    H126171   6.228   5.378   1.269  0.2970 -0.0890  0.4036
 1512TIP3    H226172   6.343   5.464   1.221  0.0904  1.3101  2.3148
 1513TIP3   OH226173   3.285   4.864   0.411 -0.1170 -0.1964 -0.6545
 1513TIP3    H126174   3.295   4.774   0.444 -0.4936  0.1112  0.3170
 1513TIP3    H226175   3.191   4.872   0.393 -0.4857  0.6789  1.3476
 1514TIP3   OH226176   5.835   0.948   6.543  0.0361  0.6151 -0.1343
 1514TIP3    H126177   5.913   0.982   6.499 -0.1606 -0.6062 -1.4870
 1514TIP3    H226178   5.782   1.025   6.560  1.0414  1.3386 -0.1747
 1515TIP3   OH226179   5.386   1.206   1.378 -0.8149 -0.3858  0.2012
 1515TIP3    H126180   5.447   1.249   1.438 -1.0084  0.4945 -0.2086
 1515TIP3    H226181   5.430   1.126   1.351  0.9068  1.0200 -1.3788
 1516TIP3   OH226182   6.937   2.484   8.003  0.2435 -0.5078  0.6650
 1516TIP3    H126183   7.017   2.514   8.045 -0.0457  2.0983 -0.4535
 1516TIP3    H226184   6.871   2.548   8.028 -0.4937 -0.2351 -1.6790
 1517TIP3   OH226185   2.596   0.868   1.151  0.1380  0.1556  0.3965
 1517TIP3    H126186   2.567   0.960   1.151 -2.7672 -0.6163 -2.1404
 1517TIP3    H226187   2.530   0.822   1.203  0.3927 -0.8018 -0.1114
 1518TIP3   OH226188   3.066   1.757   6.857  0.4784  0.0451 -0.0860
 1518TIP3    H126189   3.105   1.814   6.923  0.8173 -0.8342  0.4895
 1518TIP3    H226190   3.139   1.734   6.799  0.7964 -1.3680  0.8238
 1519TIP3   OH226191   3.751   4.022   5.739 -0.2013 -0.1808 -0.2072
 1519TIP3    H126192   3.824   4.016   5.678  0.2530 -0.1473  0.3244
 1519TIP3    H226193   3.677   4.050   5.686  0.0840 -0.5803 -0.8214
 1520TIP3   OH226194   3.959   2.582   2.218 -0.2282 -0.4791  0.1321
 1520TIP3    H126195   3.943   2.530   2.139  0.9962  1.2914 -1.3465
 1520TIP3    H226196   4.038   2.544   2.257 -0.0252 -0.4799 -0.2788
 1521TIP3   OH226197   2.437   6.263   8.279 -0.7876 -0.4902 -0.0698
 1521TIP3    H126198   2.343   6.282   8.285 -0.7726 -0.5574  0.5283
 1521TIP3    H226199   2.478   6.349   8.271 -0.7900 -0.2981  1.5683
 1522TIP3   OH226200   6.004   6.789   0.400 -0.4494 -0.1053 -0.3015
 1522TIP3    H126201   5.988   6.848   0.475 -0.6980 -1.7490  0.9866
 1522TIP3    H226202   5.916   6.760   0.374 -0.3632  0.4447 -1.2598
 1523TIP3   OH226203   1.007   4.102   6.708 -0.1874  0.2755  0.0404
 1523TIP3    H126204   0.913   4.087   6.710 -0.1907 -0.0001  3.2606
 1523TIP3    H226205   1.017   4.186   6.663 -1.9730  0.3819 -0.2170
 1524TIP3   OH226206   3.686   6.739   1.013  0.3096  0.4340  0.3778
 1524TIP3    H126207   3.600   6.757   1.051  0.1973 -0.4949  0.5735
 1524TIP3    H226208   3.667   6.693   0.931  0.5132  2.9749 -1.2146
 1525TIP3   OH226209   6.079   3.631   0.947  0.1896 -0.1325 -0.0268
 1525TIP3    H126210   6.025   3.576   1.004 -0.1136  0.3264  0.1439
 1525TIP3    H226211   6.028   3.712   0.938 -1.1954 -1.2010 -3.3137
 1526TIP3   OH226212   0.736   4.539   7.357  0.6322 -0.4679 -0.1025
 1526TIP3    H126213   0.695   4.591   7.288  1.4975 -0.2471 -0.4565
 1526TIP3    H226214   0.821   4.513   7.321  0.3457 -1.8857  0.1745
 1527TIP3   OH226215   6.913   0.887   1.581 -0.0807  0.9530 -0.0238
 1527TIP3    H126216   6.841   0.949   1.576 -0.8220  0.3166  2.0508
 1527TIP3    H226217   6.881   0.816   1.636  1.7557  0.1156  0.0523
 1528TIP3   OH226218   0.573   2.131   6.875 -0.3282 -0.6384  0.3186
 1528TIP3    H126219   0.487   2.149   6.913 -0.0651 -0.3754  0.7966
 1528TIP3    H226220   0.555   2.070   6.804 -0.7080 -1.9857  1.5362
 1529TIP3   OH226221   0.964   5.732   0.390  0.3324 -0.1739 -0.5373
 1529TIP3    H126222   1.055   5.746   0.364 -0.0580  0.5903 -1.5949
 1529TIP3    H226223   0.913   5.781   0.325 -0.9820 -3.1439 -1.9426
 1530TIP3   OH226224   2.643   2.812   0.333 -0.0793  0.0620 -0.0240
 1530TIP3    H126225   2.706   2.839   0.400  0.3076 -2.9299  0.9812
 1530TIP3    H226226   2.582   2.756   0.380 -1.5623  0.2442 -1.6529
 1531TIP3   OH226227   4.697   5.649   0.417  0.8670  0.0070 -0.0308
 1531TIP3    H126228   4.623   5.595   0.445  0.1856  0.6377 -0.5502
 1531TIP3    H226229   4.658   5.715   0.359  1.7624  0.6787  0.0975
 1532TIP3   OH226230   2.460   5.557   7.245 -0.9202  0.4861 -0.0957
 1532TIP3    H126231   2.403   5.602   7.307  0.3584 -0.1926  1.6930
 1532TIP3    H226232   2.403   5.494   7.201 -1.7681  0.5190  0.9083
 1533TIP3   OH226233   5.028   5.275   6.472  0.1323  0.0493  0.2831
 1533TIP3    H126234   5.032   5.232   6.557  0.8417  0.3324  0.4060
 1533TIP3    H226235   4.942   5.318   6.471 -0.0047 -0.2029  0.7318
 1534TIP3   OH226236   5.228   1.706   6.459 -0.3435  0.3173  0.0419
 1534TIP3    H126237   5.203   1.649   6.531  1.0806 -1.6704 -0.9259
 1534TIP3    H226238   5.231   1.647   6.383  1.0844  1.7014 -1.0302
 1535TIP3   OH226239   0.857   2.893   1.196  0.1460  0.0251  0.5085
 1535TIP3    H126240   0.820   2.975   1.228  1.5239  0.3767  1.2421
 1535TIP3    H226241   0.937   2.918   1.151 -0.1873 -0.7831 -0.5907
 1536TIP3   OH226242   5.040   6.414   0.841  0.3830  0.7176  0.1705
 1536TIP3    H126243   5.101   6.357   0.888 -0.5270 -1.8166 -1.4631
 1536TIP3    H226244   4.954   6.392   0.878 -0.3108 -1.0817 -2.2332
 1537TIP3   OH226245   2.657   4.622   1.266  0.2409 -0.1026 -0.7233
 1537TIP3    H126246   2.687   4.697   1.317 -0.8458  0.8076 -1.3706
 1537TIP3    H226247   2.574   4.597   1.307  0.7717 -1.2046 -0.2827
 1538TIP3   OH226248   0.344   6.524   6.326  0.4828 -0.4690  0.0713
 1538TIP3    H126249   0.287   6.455   6.361  1.8179 -1.9903 -0.6326
 1538TIP3    H226250   0.295   6.559   6.252 -0.1236 -0.8149  0.2940
 1539TIP3   OH226251   5.489   6.899   1.578 -0.3562 -0.2058  0.2518
 1539TIP3    H126252   5.421   6.863   1.635 -3.2278  1.8881 -1.5546
 1539TIP3    H226253   5.499   6.834   1.508 -0.4623 -0.5414  0.5468
 1540TIP3   OH226254   3.798   0.979   1.121 -0.2754  0.0447 -0.0281
 1540TIP3    H126255   3.777   0.901   1.172 -1.8420  0.5250  0.1110
 1540TIP3    H226256   3.723   1.037   1.134  1.0102  1.7402  0.1735
 1541TIP3   OH226257   5.417   0.291   7.090  0.5232 -0.2836 -0.0451
 1541TIP3    H126258   5.485   0.226   7.072 -1.5982 -1.9972 -2.6822
 1541TIP3    H226259   5.360   0.249   7.155 -0.9826 -1.3400 -1.9262
 1542TIP3   OH226260   0.466   1.463   6.432 -0.3003  0.0472  0.3982
 1542TIP3    H126261   0.515   1.440   6.353 -0.4653 -4.2113  1.2972
 1542TIP3    H226262   0.532   1.503   6.490  1.0146 -1.1942 -0.1821
 1543TIP3   OH226263   4.145   6.114   1.008 -0.7291  0.0186 -0.3886
 1543TIP3    H126264   4.066   6.161   1.034 -0.2907  1.1509 -1.0436
 1543TIP3    H226265   4.217   6.174   1.026 -0.0568 -0.7696 -0.3484
 1544TIP3   OH226266   3.782   4.379   0.427 -0.2758  0.5391  0.1274
 1544TIP3    H126267   3.832   4.370   0.508  0.7512  0.7427 -0.4508
 1544TIP3    H226268   3.745   4.292   0.412 -1.2332  0.7367  1.2714
 1545TIP3   OH226269   6.041   0.535   6.292  0.0770  0.1415 -0.6400
 1545TIP3    H126270   6.045   0.564   6.201 -0.1715  1.3493 -0.2815
 1545TIP3    H226271   5.948   0.537   6.314  0.1750  0.2875 -0.2286
 1546TIP3   OH226272   1.665   5.345   8.213  0.5960  0.0889  0.0214
 1546TIP3    H126273   1.697   5.363   8.301 -0.2924  0.4102  0.2837
 1546TIP3    H226274   1.710   5.264   8.188  1.2093  0.2475  0.5756
 1547TIP3   OH226275   3.814   3.347   1.501  0.0912 -0.0600 -0.2630
 1547TIP3    H126276   3.824   3.356   1.407 -0.5719 -0.1851 -0.3501
 1547TIP3    H226277   3.904   3.345   1.535  0.3907 -1.6652 -1.0433
 1548TIP3   OH226278   1.984   2.202   8.167 -0.4527 -0.5420 -0.7974
 1548TIP3    H126279   2.071   2.167   8.185 -0.0831  0.1774 -1.1490
 1548TIP3    H226280   1.977   2.202   8.072 -1.6137 -2.4267 -0.7791
 1549TIP3   OH226281   2.690   6.259   6.379  0.3333  0.0630 -0.1687
 1549TIP3    H126282   2.625   6.321   6.412  1.6125  1.0690  0.5670
 1549TIP3    H226283   2.640   6.181   6.356 -1.2526  1.1786 -0.6190
 1550TIP3   OH226284   4.934   6.157   6.442  0.4699  0.3543 -0.4537
 1550TIP3    H126285   4.966   6.076   6.403 -0.3622 -0.1731 -0.0467
 1550TIP3    H226286   4.913   6.213   6.367  0.4561 -0.0346 -0.7426
 1551TIP3   OH226287   0.835   1.427   0.040  0.1456 -0.0345 -0.2570
 1551TIP3    H126288   0.833   1.400  -0.052 -2.6766  0.3328 -0.3848
 1551TIP3    H226289   0.764   1.490   0.048 -1.0619 -1.5560  2.5795
 1552TIP3   OH226290   6.992   2.674   6.482 -0.6263  0.1255  0.5798
 1552TIP3    H126291   7.011   2.585   6.511  0.4718 -0.0911 -0.7209
 1552TIP3    H226292   7.044   2.685   6.402 -0.2769  2.1390  1.0390
 1553TIP3   OH226293   2.135   4.959   8.149  0.5203 -0.7062  0.1885
 1553TIP3    H126294   2.086   4.902   8.090 -0.9203 -0.3226  0.9718
 1553TIP3    H226295   2.184   5.018   8.091 -0.5134 -0.6262 -0.6243
 1554TIP3   OH226296   3.027   3.814   6.784  0.1779  0.3266 -0.2319
 1554TIP3    H126297   2.980   3.894   6.762  0.3210  0.7385  0.8982
 1554TIP3    H226298   2.958   3.752   6.809  0.1716  0.6604  0.5959
 1555TIP3   OH226299   3.360   2.900   2.107 -0.8304  0.8808  0.0451
 1555TIP3    H126300   3.345   2.883   2.014 -0.6572  0.9080  0.0121
 1555TIP3    H226301   3.381   2.993   2.112 -1.7892  1.0993  0.2283
 1556TIP3   OH226302   3.727   5.860   0.536  0.4354 -0.4112 -0.4312
 1556TIP3    H126303   3.718   5.922   0.464  0.9006  1.1296  0.7690
 1556TIP3    H226304   3.652   5.801   0.527 -1.5427  1.9000 -0.1925
 1557TIP3   OH226305   4.373   3.305   0.206 -0.1861  0.2746 -0.0544
 1557TIP3    H126306   4.322   3.228   0.180 -2.4989  1.8159 -0.3746
 1557TIP3    H226307   4.377   3.300   0.301  2.3327 -1.7474 -0.1495
 1558TIP3   OH226308   2.185   6.684   6.986 -0.0719  0.5964  0.1881
 1558TIP3    H126309   2.156   6.619   6.922 -0.4959 -1.0682  1.9723
 1558TIP3    H226310   2.123   6.756   6.976 -0.6256  0.0225 -0.7193
 1559TIP3   OH226311   5.996   4.401   5.901 -0.1016  0.2823 -0.2864
 1559TIP3    H126312   5.937   4.334   5.937  0.6227 -0.3410 -0.2477
 1559TIP3    H226313   6.082   4.379   5.937  0.1132  1.3479 -0.1267
 1560TIP3   OH226314   3.574   2.784   7.811  0.5126 -0.1941 -0.0287
 1560TIP3    H126315   3.663   2.767   7.843  0.3441 -0.6489  0.2068
 1560TIP3    H226316   3.528   2.701   7.824 -0.6976  0.7686  2.3797
 1561TIP3   OH226317   1.357   2.997   7.109 -0.4658  0.1887  0.3745
 1561TIP3    H126318   1.308   3.009   7.028 -1.4907  0.0058  0.9532
 1561TIP3    H226319   1.293   3.013   7.179  0.3116  0.0043  1.1501
 1562TIP3   OH226320   4.889   4.451   7.479  0.1520 -0.3607  0.8934
 1562TIP3    H126321   4.905   4.361   7.509  0.1540 -0.0829  1.7488
 1562TIP3    H226322   4.827   4.441   7.407 -2.2353 -0.8868  2.8930
 1563TIP3   OH226323   1.517   1.961   6.227 -0.1409  0.5146  0.2741
 1563TIP3    H126324   1.548   1.886   6.277 -1.9167 -0.5714 -0.1886
 1563TIP3    H226325   1.578   2.031   6.250  1.2639 -0.9070  1.1087
 1564TIP3   OH226326   0.787   0.848   7.835  0.0955  0.3851  0.0130
 1564TIP3    H126327   0.779   0.819   7.745 -0.3062 -2.5061  0.8824
 1564TIP3    H226328   0.831   0.933   7.830  0.1218  0.2681 -2.8471
 1565TIP3   OH226329   1.557   2.804   0.392 -0.9042 -0.1078  0.2216
 1565TIP3    H126330   1.615   2.732   0.417 -0.7971 -0.6887 -1.5975
 1565TIP3    H226331   1.486   2.762   0.344 -2.1696  0.7423  1.2926
 1566TIP3   OH226332   2.915   1.759   7.538 -0.0654  0.3046 -0.9857
 1566TIP3    H126333   2.938   1.827   7.601 -0.8981 -0.2242 -0.0913
 1566TIP3    H226334   2.964   1.783   7.459  0.9577  1.0019 -0.1682
 1567TIP3   OH226335   0.032   0.465   0.234  0.1308  0.4061 -0.1577
 1567TIP3    H126336  -0.015   0.543   0.204 -0.0278  0.2334 -0.3594
 1567TIP3    H226337  -0.026   0.426   0.300 -0.1375  0.0457 -0.5986
 1568TIP3   OH226338   5.731   6.698   0.359  0.0666  0.2412  0.2575
 1568TIP3    H126339   5.655   6.752   0.382 -0.7117 -1.0182  0.7579
 1568TIP3    H226340   5.704   6.651   0.280  0.4920  0.1131  0.1900
 1569TIP3   OH226341   0.853   4.586   1.220 -0.0309 -0.0803  0.1835
 1569TIP3    H126342   0.896   4.530   1.155  0.8908 -0.3488  0.9945
 1569TIP3    H226343   0.920   4.599   1.288 -1.5131 -1.3576  2.0000
 1570TIP3   OH226344   2.465   6.508   1.348  0.3763  0.2059 -0.2838
 1570TIP3    H126345   2.398   6.439   1.347  0.7983 -0.2290 -1.9054
 1570TIP3    H226346   2.427   6.579   1.296 -0.7596  1.9896  2.7708
 1571TIP3   OH226347   6.415   2.295   6.859 -0.0261  0.4104 -0.5714
 1571TIP3    H126348   6.384   2.229   6.922  2.6288  0.1648  0.5868
 1571TIP3    H226349   6.395   2.258   6.773 -1.7133 -0.2764  0.0720
 1572TIP3   OH226350   4.343   3.919   0.255 -0.3071 -0.5471  0.0651
 1572TIP3    H126351   4.304   3.972   0.325  1.2836 -0.8936  1.2582
 1572TIP3    H226352   4.425   3.887   0.292 -0.9030 -3.3533 -0.8330
 1573TIP3   OH226353   2.426   5.995   7.577  0.3044 -0.0597  0.0158
 1573TIP3    H126354   2.474   5.913   7.592  0.6303  0.2836  0.9390
 1573TIP3    H226355   2.410   5.996   7.483 -0.1273 -1.4150  0.0467
 1574TIP3   OH226356   4.002   0.942   0.353  0.1788  0.3506 -0.5262
 1574TIP3    H126357   3.926   0.993   0.381 -1.4434 -2.2529  0.1643
 1574TIP3    H226358   4.076   0.981   0.399 -1.3044  0.8208  1.5973
 1575TIP3   OH226359   2.789   5.746   6.889  0.7545 -0.4703 -0.3968
 1575TIP3    H126360   2.806   5.840   6.898  4.2528 -0.9445 -0.4680
 1575TIP3    H226361   2.726   5.725   6.958  1.5688  1.5639  1.0371
 1576TIP3   OH226362   5.714   5.620   0.056  0.1060 -0.6311 -0.5558
 1576TIP3    H126363   5.636   5.623   0.001 -0.2312 -0.3481 -0.0724
 1576TIP3    H226364   5.784   5.590  -0.002 -0.0099  0.6571 -1.4049
 1577TIP3   OH226365   0.012   0.126   6.947 -0.2915  0.2153 -0.2056
 1577TIP3    H126366  -0.008   0.193   7.013  1.8336 -0.0343  0.7617
 1577TIP3    H226367   0.023   0.176   6.866 -1.4820  0.6815 -0.1122
 1578TIP3   OH226368   7.050   0.641   6.664 -0.9585  0.4369  0.0896
 1578TIP3    H126369   7.021   0.581   6.595 -4.0488  0.7674  0.9638
 1578TIP3    H226370   6.999   0.616   6.740  1.9471  0.4676  2.2065
 1579TIP3   OH226371   5.645   4.406   7.697 -0.1389 -0.1384  0.2558
 1579TIP3    H126372   5.601   4.321   7.694  0.6040 -0.5091 -1.5066
 1579TIP3    H226373   5.736   4.387   7.677 -0.1836  1.1770 -1.4975
 1580TIP3   OH226374   4.630   6.207   5.932  0.2894 -0.1052 -0.0952
 1580TIP3    H126375   4.661   6.259   6.006 -2.1232  1.1258  0.1384
 1580TIP3    H226376   4.690   6.229   5.861 -0.0177  2.2196  0.3003
 1581TIP3   OH226377   5.463   5.788   7.200  0.4623  0.1519 -0.1088
 1581TIP3    H126378   5.492   5.737   7.124 -0.9632  0.2618 -0.7705
 1581TIP3    H226379   5.370   5.765   7.209  0.8944 -0.8608  2.4243
 1582TIP3   OH226380   4.459   4.993   2.015  0.3090 -0.0437 -0.0986
 1582TIP3    H126381   4.400   5.056   1.974  1.6476  1.2956 -0.0672
 1582TIP3    H226382   4.405   4.916   2.032 -1.6302  1.4197  0.7005
 1583TIP3   OH226383   0.636   1.529   7.863  0.0684 -0.5146 -0.0750
 1583TIP3    H126384   0.708   1.572   7.817 -0.6509  0.0498 -0.7005
 1583TIP3    H226385   0.647   1.436   7.842  0.6457 -0.4424 -0.1141
 1584TIP3   OH226386   3.206   1.657   1.920 -0.3864  0.1344  0.4266
 1584TIP3    H126387   3.292   1.618   1.934  0.1900  1.4969  0.8536
 1584TIP3    H226388   3.187   1.641   1.827 -0.0464 -0.8637  0.5175
 1585TIP3   OH226389   5.251   6.743   8.273 -0.3131  0.2758 -0.2323
 1585TIP3    H126390   5.220   6.718   8.360 -0.1120  0.6899 -0.0365
 1585TIP3    H226391   5.188   6.705   8.212 -1.0480  0.8718  0.1468
 1586TIP3   OH226392   0.483   4.074   6.553 -0.4692 -0.2874  0.0046
 1586TIP3    H126393   0.408   4.130   6.533 -0.2291  0.1473  0.3021
 1586TIP3    H226394   0.470   3.996   6.499 -1.6148 -0.6186  0.7207
 1587TIP3   OH226395   6.248   3.884   1.386  0.2092  0.2317 -0.4896
 1587TIP3    H126396   6.328   3.840   1.356  0.2705 -0.0212  0.0444
 1587TIP3    H226397   6.238   3.857   1.477 -0.9886 -0.4710 -0.8160
 1588TIP3   OH226398   0.495   5.991   7.709  0.5813 -0.2332  0.7051
 1588TIP3    H126399   0.543   6.065   7.747 -1.5665  0.3047  2.5929
 1588TIP3    H226400   0.420   6.031   7.665  2.1203 -0.9901 -2.9092
 1589TIP3   OH226401   3.167   0.131   0.469 -0.2082 -0.4228  0.4017
 1589TIP3    H126402   3.090   0.102   0.517 -0.3660  0.9819  1.0408
 1589TIP3    H226403   3.167   0.226   0.478  0.3437 -0.1940 -1.5143
 1590TIP3   OH226404   5.646   0.226   0.329  0.1241 -0.1738 -0.5000
 1590TIP3    H126405   5.563   0.210   0.284  0.1921  0.3780 -0.8259
 1590TIP3    H226406   5.622   0.234   0.421 -0.3495  1.1995 -0.7277
 1591TIP3   OH226407   6.309   5.243   8.093 -0.4636 -0.5581 -0.2473
 1591TIP3    H126408   6.271   5.179   8.033  1.3038 -0.1941 -1.8402
 1591TIP3    H226409   6.319   5.322   8.041  0.8264 -0.1221  0.6221
 1592TIP3   OH226410   0.491   4.151   7.275  0.4220 -0.2388 -0.3324
 1592TIP3    H126411   0.434   4.114   7.342  0.0229  0.5666 -0.2199
 1592TIP3    H226412   0.437   4.217   7.231  0.8046 -0.4741 -1.1775
 1593TIP3   OH226413   2.282   5.268   0.396 -0.0720 -0.1205  0.2604
 1593TIP3    H126414   2.277   5.210   0.320 -1.7775  0.2674  0.0284
 1593TIP3    H226415   2.259   5.354   0.361  0.1683  0.2621  1.0266
 1594TIP3   OH226416   3.875   3.514   7.554  0.4500  0.3295 -0.1610
 1594TIP3    H126417   3.964   3.540   7.579  0.8554 -0.4210 -0.7855
 1594TIP3    H226418   3.820   3.552   7.622  1.1769  1.3986 -0.1381
 1595TIP3   OH226419   0.451   1.070   1.623 -0.1938 -0.1259  0.1580
 1595TIP3    H126420   0.525   1.052   1.681 -0.2383 -1.3228 -0.1272
 1595TIP3    H226421   0.458   1.004   1.553 -2.5055 -1.4338  1.0422
 1596TIP3   OH226422   0.044   0.342   7.134  0.1115  0.6838  0.5574
 1596TIP3    H126423   0.083   0.427   7.153 -0.2732  0.7217  1.1986
 1596TIP3    H226424   0.002   0.316   7.216 -0.7742  0.4153  0.0332
 1597TIP3   OH226425   3.615   4.631   2.403 -0.5412 -0.1287  0.3806
 1597TIP3    H126426   3.523   4.613   2.385 -0.4406  0.6013 -1.0010
 1597TIP3    H226427   3.654   4.545   2.420 -1.4396 -0.4532  0.8730
 1598TIP3   OH226428   0.209   0.900   1.991 -0.1375  0.5096 -0.1900
 1598TIP3    H126429   0.141   0.894   1.924 -0.8525 -4.4990  0.6499
 1598TIP3    H226430   0.163   0.885   2.074  1.4886  0.8558  0.8301
 1599TIP3   OH226431   3.049   2.043   7.626  0.3457  0.3844 -0.0618
 1599TIP3    H126432   3.023   2.023   7.716 -0.5704  0.6734 -0.2587
 1599TIP3    H226433   3.143   2.062   7.632 -0.0954  2.4421  1.1743
 1600TIP3   OH226434   2.988   1.170   8.265 -0.3187  0.1842  0.3745
 1600TIP3    H126435   3.048   1.241   8.243 -1.0893  0.9382  0.6271
 1600TIP3    H226436   2.938   1.155   8.185 -1.2139  1.0097  0.7582
 1601TIP3   OH226437   4.416   1.664   1.474 -0.1616  0.7880  0.0345
 1601TIP3    H126438   4.364   1.738   1.440  0.7457  1.8093  0.8052
 1601TIP3    H226439   4.416   1.601   1.402 -1.5701  1.2113 -0.3821
 1602TIP3   OH226440   4.527   7.006   7.382 -0.8456  0.6361 -0.1055
 1602TIP3    H126441   4.474   6.993   7.303 -0.9406 -0.3866  0.1094
 1602TIP3    H226442   4.491   6.943   7.445 -0.2869  0.9206  0.5068
 1603TIP3   OH226443   7.014   4.035   7.071  0.1516 -0.1141 -0.0171
 1603TIP3    H126444   7.072   4.013   6.998  0.1534 -0.0428 -0.0369
 1603TIP3    H226445   7.008   3.953   7.121  0.2730 -0.1214 -0.0125
 1604TIP3   OH226446   4.281   0.561   0.848 -0.7375  0.3189 -0.0357
 1604TIP3    H126447   4.276   0.623   0.921 -0.1323 -0.3854  0.6213
 1604TIP3    H226448   4.333   0.488   0.882  0.4916  0.4569 -1.5357
 1605TIP3   OH226449   4.031   3.914   7.949 -0.1027  0.6079 -0.3959
 1605TIP3    H126450   4.014   3.908   8.043 -0.3196  0.6534 -0.4328
 1605TIP3    H226451   4.075   3.998   7.938  3.6574 -1.0587  0.2300
 1606TIP3   OH226452   3.350   5.534   7.831 -0.3902  0.2511  0.3693
 1606TIP3    H126453   3.360   5.485   7.912 -0.6501  0.6941  0.6756
 1606TIP3    H226454   3.305   5.475   7.772 -2.2705  0.6958  1.2965
 1607TIP3   OH226455   0.614   2.900   0.498 -0.8034 -0.0463  0.2372
 1607TIP3    H126456   0.564   2.918   0.418 -0.2733  1.0977  0.1435
 1607TIP3    H226457   0.589   2.811   0.523 -0.4961 -0.6766 -1.5641
 1608TIP3   OH226458   3.271   0.983   2.406  0.0623  0.6514  0.6628
 1608TIP3    H126459   3.319   1.065   2.408 -0.5529  1.0086  1.0981
 1608TIP3    H226460   3.331   0.920   2.366  0.5317  1.3117  0.3300
 1609TIP3   OH226461   6.885   4.712   6.311  0.1942  0.5388  0.2966
 1609TIP3    H126462   6.958   4.652   6.323 -1.0741 -1.2969 -0.6198
 1609TIP3    H226463   6.840   4.679   6.233 -1.4450  1.7732  0.6651
 1610TIP3   OH226464   3.646   2.442   6.065 -0.2422 -0.3944 -0.4614
 1610TIP3    H126465   3.731   2.441   6.022 -0.5660 -0.5623 -1.1058
 1610TIP3    H226466   3.622   2.350   6.074  0.9855 -0.5617  2.4742
 1611TIP3   OH226467   0.318   3.494   8.213 -0.1722 -0.0707  0.0879
 1611TIP3    H126468   0.223   3.505   8.216 -0.0104  1.5547  0.3091
 1611TIP3    H226469   0.348   3.558   8.148  0.8277  0.0694  0.6568
 1612TIP3   OH226470   5.358   7.052   6.109  0.3562  0.3585  0.3755
 1612TIP3    H126471   5.424   7.120   6.125  1.8123 -0.5186 -1.4789
 1612TIP3    H226472   5.285   7.100   6.070  1.0885  1.0007 -0.2661
 1613TIP3   OH226473   6.261   6.808   6.010  0.6110  0.0898  0.8316
 1613TIP3    H126474   6.279   6.878   6.073  1.5365  0.1296  0.5483
 1613TIP3    H226475   6.228   6.854   5.933  2.4730  0.3963  0.1574
 1614TIP3   OH226476   4.372   5.772   7.232  0.1461 -0.3619  0.3886
 1614TIP3    H126477   4.364   5.844   7.169 -1.7159 -0.5780  0.3203
 1614TIP3    H226478   4.412   5.812   7.309 -1.3550  0.9199  0.5590
 1615TIP3   OH226479   5.027   1.172   1.353 -1.0126  0.1535 -0.1860
 1615TIP3    H126480   4.978   1.095   1.383  1.1293 -1.6382 -0.9872
 1615TIP3    H226481   5.024   1.167   1.258 -0.0326  0.4626 -0.2468
 1616TIP3   OH226482   0.994   1.777   0.046 -0.2800  0.8202  0.3222
 1616TIP3    H126483   1.009   1.695  -0.002 -0.6840  0.0532  1.4488
 1616TIP3    H226484   1.079   1.798   0.084 -0.2026  0.8546  0.1308
 1617TIP3   OH226485   2.179   1.180   6.606  0.0702 -0.4508  0.2574
 1617TIP3    H126486   2.165   1.239   6.532 -0.9701 -0.4253  0.4576
 1617TIP3    H226487   2.217   1.235   6.675 -2.1468  0.3670  0.9294
 1618TIP3   OH226488   6.223   6.721   7.010  0.5453 -0.5577 -0.0278
 1618TIP3    H126489   6.311   6.753   6.989  0.2591  1.1355  1.1671
 1618TIP3    H226490   6.172   6.735   6.930  0.2099  2.9852  0.6464
 1619TIP3   OH226491   3.988   6.066   0.006 -0.1549  0.2410 -0.5683
 1619TIP3    H126492   3.936   6.062  -0.074 -1.7093  2.5436  0.2321
 1619TIP3    H226493   3.941   6.010   0.068 -1.1541  1.5032 -0.1561
 1620TIP3   OH226494   3.575   0.804   0.173 -0.4494 -0.2053 -0.5623
 1620TIP3    H126495   3.619   0.753   0.240 -1.5582  0.2227  0.5195
 1620TIP3    H226496   3.638   0.873   0.151  0.5031 -1.1931 -1.0478
 1621TIP3   OH226497   2.011   1.330   0.420 -0.2563  0.0412 -0.0354
 1621TIP3    H126498   2.030   1.282   0.501  0.2495  0.3763  0.0529
 1621TIP3    H226499   1.940   1.281   0.379 -0.4638 -0.1780  0.5737
 1622TIP3   OH226500   4.562   6.640   7.015  0.1039 -0.3646 -0.2306
 1622TIP3    H126501   4.533   6.728   6.990 -1.5960 -1.0037 -0.6203
 1622TIP3    H226502   4.502   6.615   7.086  0.3411 -1.3433 -0.3656
 1623TIP3   OH226503   5.318   6.807   1.775  0.3918 -0.1851 -0.7778
 1623TIP3    H126504   5.337   6.882   1.831 -0.0107  0.4785 -1.5038
 1623TIP3    H226505   5.228   6.783   1.797  1.2887 -2.0392  1.2052
 1624TIP3   OH226506   6.535   5.799   7.038  0.5059  0.0227  0.2589
 1624TIP3    H126507   6.495   5.872   6.991 -1.2220 -1.1316 -0.1379
 1624TIP3    H226508   6.621   5.788   6.997 -0.5972 -0.3831 -2.0815
 1625TIP3   OH226509   4.536   0.377   7.972 -0.0713  0.0546 -0.0736
 1625TIP3    H126510   4.548   0.302   7.914 -0.7494 -0.1914  0.0955
 1625TIP3    H226511   4.479   0.436   7.924 -2.0333 -0.8951  0.9628
 1626TIP3   OH226512   6.336   0.140   1.277  0.2634 -0.1837  0.2936
 1626TIP3    H126513   6.246   0.107   1.276  0.8042 -1.7322 -0.2354
 1626TIP3    H226514   6.376   0.099   1.354  0.9048 -0.6355 -0.2721
 1627TIP3   OH226515   2.033   0.462   1.691  0.0484  0.2073 -0.0863
 1627TIP3    H126516   1.992   0.521   1.628  0.2183  0.6343  0.1903
 1627TIP3    H226517   1.964   0.401   1.717 -1.1563  2.2927  2.0871
 1628TIP3   OH226518   2.383   2.655   7.770  0.0031  0.4665  0.0510
 1628TIP3    H126519   2.473   2.637   7.742 -0.5929 -1.3892 -0.7907
 1628TIP3    H226520   2.329   2.626   7.697 -1.2967  1.6858  0.4977
 1629TIP3   OH226521   1.724   3.628   0.595 -0.4957  0.1728 -0.0051
 1629TIP3    H126522   1.637   3.611   0.561 -0.4208 -1.6564  0.6164
 1629TIP3    H226523   1.716   3.712   0.641 -1.9929 -0.0755  0.2398
 1630TIP3   OH226524   6.941   5.460   6.199  0.0647  0.0427  0.2190
 1630TIP3    H126525   6.920   5.542   6.243 -0.0953  0.8591 -1.3284
 1630TIP3    H226526   6.888   5.461   6.119 -1.1556 -2.3058  0.8934
 1631TIP3   OH226527   6.587   1.909   7.166  0.0221 -0.2981  0.0880
 1631TIP3    H126528   6.678   1.914   7.138 -0.2397 -1.3625 -1.0691
 1631TIP3    H226529   6.564   1.817   7.155 -2.0191  0.3837 -2.4888
 1632TIP3   OH226530   0.500   0.111   2.594  0.3336  0.0687 -0.4667
 1632TIP3    H126531   0.583   0.155   2.612  0.0456  0.3473  0.2169
 1632TIP3    H226532   0.433   0.175   2.619 -0.0884 -0.4790 -0.1730
 1633TIP3   OH226533   5.789   0.839   7.704  0.3645 -0.3680  0.1082
 1633TIP3    H126534   5.799   0.744   7.693 -1.2186 -0.3364 -2.6549
 1633TIP3    H226535   5.771   0.850   7.797  0.1743 -2.8499  0.4437
 1634TIP3   OH226536   4.475   0.748   5.945  0.5866 -0.8821 -0.1724
 1634TIP3    H126537   4.562   0.708   5.943 -0.2914 -2.9751  0.0227
 1634TIP3    H226538   4.491   0.842   5.948  2.8025 -1.1498 -1.6831
 1635TIP3   OH226539   3.330   3.842   1.216  0.0919 -0.3048 -0.2885
 1635TIP3    H126540   3.318   3.842   1.311  0.6049 -0.3552 -0.2183
 1635TIP3    H226541   3.268   3.907   1.183  0.6766  0.5019  0.1823
 1636TIP3   OH226542   2.001   2.858   0.044 -0.2552  0.4534  0.2987
 1636TIP3    H126543   1.937   2.788   0.035  0.3276  0.1414 -1.7604
 1636TIP3    H226544   1.949   2.937   0.059 -1.0672  0.0436 -0.3254
 1637TIP3   OH226545   6.006   4.033   1.465 -0.1164 -0.4246  0.0427
 1637TIP3    H126546   6.076   3.975   1.434  0.0288 -0.1278 -0.1894
 1637TIP3    H226547   6.051   4.112   1.495 -0.4329  0.4334 -1.5917
 1638TIP3   OH226548   6.938   5.013   7.266  0.0216 -0.3080 -0.0327
 1638TIP3    H126549   6.889   5.014   7.348 -1.7511  3.1021 -0.9267
 1638TIP3    H226550   6.876   4.980   7.201 -0.6373  2.2990 -0.8550
 1639TIP3   OH226551   5.925   1.912   0.184  0.3353 -0.0371  0.3357
 1639TIP3    H126552   6.009   1.870   0.167  0.3343 -0.2617  0.8628
 1639TIP3    H226553   5.947   2.003   0.205  0.5110 -0.2522  1.1250
 1640TIP3   OH226554   1.358   0.283   7.426  0.1725  0.4806  0.1818
 1640TIP3    H126555   1.391   0.329   7.503  0.0242  0.1791  0.4274
 1640TIP3    H226556   1.421   0.213   7.411 -0.3039 -0.0463  0.6015
 1641TIP3   OH226557   4.983   6.456   7.427  0.3088  0.3105 -0.1163
 1641TIP3    H126558   4.936   6.531   7.390 -1.9372 -0.7572  0.3818
 1641TIP3    H226559   4.974   6.466   7.522 -3.7318 -2.5635  0.0546
 1642TIP3   OH226560   5.353   5.146   6.646  0.3966  0.0844  0.3307
 1642TIP3    H126561   5.331   5.195   6.725  1.4284  0.1570  0.5882
 1642TIP3    H226562   5.444   5.121   6.658  0.0157 -1.5689  0.0147
 1643TIP3   OH226563   2.034   5.821   1.265  0.2239 -0.0206 -0.6207
 1643TIP3    H126564   2.086   5.768   1.204  0.0965  0.6160 -1.3018
 1643TIP3    H226565   2.083   5.819   1.347  1.2978  0.5085 -1.2274
 1644TIP3   OH226566   5.114   3.566   6.708 -0.0871 -0.3912 -0.0081
 1644TIP3    H126567   5.161   3.539   6.629  0.3266 -1.5075  0.5823
 1644TIP3    H226568   5.055   3.493   6.727  0.3595 -0.4886  1.1167
 1645TIP3   OH226569   2.643   5.049   6.714 -0.0293  0.2449 -0.4990
 1645TIP3    H126570   2.734   5.061   6.742  0.1304  0.7747 -1.2117
 1645TIP3    H226571   2.632   5.110   6.641 -0.7911 -0.2262 -0.7920
 1646TIP3   OH226572   1.037   1.348   0.788 -0.5534  0.3927 -0.6090
 1646TIP3    H126573   1.016   1.256   0.807  1.5675 -0.2325 -0.9898
 1646TIP3    H226574   1.120   1.344   0.741 -1.1863  2.4457 -2.0108
 1647TIP3   OH226575   2.599   5.815   8.221 -0.3601  0.2137  0.2423
 1647TIP3    H126576   2.670   5.770   8.176 -0.6687 -0.3131  0.2702
 1647TIP3    H226577   2.617   5.908   8.209  0.1028  0.0793 -0.1067
 1648TIP3   OH226578   6.404   6.194   7.267  0.4967 -0.0150  0.6266
 1648TIP3    H126579   6.354   6.133   7.321 -0.2448 -0.1015 -0.1447
 1648TIP3    H226580   6.379   6.281   7.298 -2.0601  0.0670 -1.3080
 1649TIP3   OH226581   0.458   0.518   7.654  0.4399 -0.3446  0.2006
 1649TIP3    H126582   0.470   0.538   7.747 -0.8859 -0.4291  0.4024
 1649TIP3    H226583   0.547   0.510   7.620  0.9811  1.2879  1.1012
 1650TIP3   OH226584   6.247   1.102   1.533 -0.0408 -0.6021 -0.0038
 1650TIP3    H126585   6.319   1.077   1.590  0.8531 -2.2597 -1.7733
 1650TIP3    H226586   6.218   1.020   1.492 -0.9954  0.4223 -1.5073
 1651TIP3   OH226587   2.749   6.012   7.754  0.1527 -0.0069 -0.9371
 1651TIP3    H126588   2.844   6.004   7.743  0.8000  2.3566  1.7331
 1651TIP3    H226589   2.723   6.083   7.696  0.0505 -0.4657 -1.4581
 1652TIP3   OH226590   3.410   1.465   0.550 -0.1526  0.4047 -0.0097
 1652TIP3    H126591   3.351   1.459   0.475 -1.5945  0.9337  1.0459
 1652TIP3    H226592   3.448   1.553   0.544  1.5019 -0.3281 -1.3329
 1653TIP3   OH226593   5.484   6.524   7.077 -0.5911 -0.0679 -0.1616
 1653TIP3    H126594   5.423   6.576   7.129 -1.1347  0.6131 -1.4357
 1653TIP3    H226595   5.562   6.579   7.068 -1.1888  0.5998 -1.5597
 1654TIP3   OH226596   6.116   2.776   0.482 -0.2443  0.1745 -0.2743
 1654TIP3    H126597   6.051   2.716   0.446 -0.9773  0.7659  0.0380
 1654TIP3    H226598   6.112   2.763   0.576  1.0410 -0.7254 -0.3154
 1655TIP3   OH226599   0.087   4.407   1.052 -0.7751 -0.1230  0.7629
 1655TIP3    H126600  -0.008   4.407   1.061 -0.8575 -0.9737  0.0219
 1655TIP3    H226601   0.120   4.408   1.142 -1.4429  2.3195  1.0591
 1656TIP3   OH226602   5.899   6.974   1.948  0.2033  0.7617 -0.3088
 1656TIP3    H126603   5.930   7.044   1.890  2.5900  1.1500  1.2964
 1656TIP3    H226604   5.957   6.978   2.024 -2.6696  0.1698  2.0904
 1657TIP3   OH226605   2.757   3.170   2.218  0.4785  0.3048  0.4696
 1657TIP3    H126606   2.817   3.245   2.212 -1.1310  1.6675  0.5566
 1657TIP3    H226607   2.813   3.093   2.207  2.1155  1.5343 -0.1924
 1658TIP3   OH226608   4.748   3.459   8.156  0.1700 -1.2203 -0.4752
 1658TIP3    H126609   4.811   3.446   8.086  1.6592 -1.9368  0.9419
 1658TIP3    H226610   4.710   3.373   8.172 -0.6050 -0.9464 -0.7813
 1659TIP3   OH226611   2.956   5.360   6.631 -0.1507  0.1339 -0.1195
 1659TIP3    H126612   2.900   5.427   6.592 -1.1835 -0.2160  0.7024
 1659TIP3    H226613   2.952   5.377   6.725 -0.0757 -0.8150  0.0652
 1660TIP3   OH226614   5.462   5.743   7.615  0.2570 -0.7056  0.0796
 1660TIP3    H126615   5.380   5.770   7.574  0.0311 -1.2965  0.1232
 1660TIP3    H226616   5.453   5.768   7.707  0.8292  0.7658 -0.2411
 1661TIP3   OH226617   5.455   2.669   0.210  0.0947  0.2313 -0.4944
 1661TIP3    H126618   5.527   2.709   0.161  1.0005  0.1696  0.7596
 1661TIP3    H226619   5.384   2.732   0.203 -0.8846 -1.0080 -4.3418
 1662TIP3   OH226620   3.249   4.841   0.796 -0.2465  0.5555 -0.1397
 1662TIP3    H126621   3.331   4.799   0.770  0.2269  1.9451 -0.9687
 1662TIP3    H226622   3.192   4.768   0.821  1.2880 -0.4138  0.6408
 1663TIP3   OH226623   0.736   1.958   5.952 -0.4002  0.3301  0.0412
 1663TIP3    H126624   0.693   1.938   5.869 -3.4866  0.8113  1.3998
 1663TIP3    H226625   0.793   2.032   5.932 -1.2394  0.5761 -1.6031
 1664TIP3   OH226626   2.401   3.283   0.998 -0.3885 -0.3217 -0.0776
 1664TIP3    H126627   2.326   3.341   0.985  0.5438  1.1126  0.6931
 1664TIP3    H226628   2.396   3.256   1.090  2.2808  3.2375  1.3145
 1665TIP3   OH226629   5.987   4.292   6.229 -0.7037  0.3668  0.7067
 1665TIP3    H126630   6.062   4.341   6.197 -1.5587  1.6390  0.6067
 1665TIP3    H226631   5.941   4.262   6.150 -0.6952  0.1963  0.7647
 1666TIP3   OH226632   1.958   5.450   7.304  0.3559  0.3273 -0.0085
 1666TIP3    H126633   1.880   5.504   7.316 -0.9934 -1.7301  1.2030
 1666TIP3    H226634   1.995   5.442   7.392  2.9894  2.6018 -0.7768
 1667TIP3   OH226635   6.459   1.968   7.415 -0.2439  0.3201 -0.4199
 1667TIP3    H126636   6.494   1.968   7.326  1.3497  0.0044  0.1740
 1667TIP3    H226637   6.465   2.060   7.443 -0.0307  0.2981 -0.3868
 1668TIP3   OH226638   5.422   1.942   5.953 -0.2529  0.2886  0.1430
 1668TIP3    H126639   5.365   1.992   6.011 -0.0640  0.6736  0.0052
 1668TIP3    H226640   5.385   1.955   5.865  0.0203  0.5075  0.0585
 1669TIP3   OH226641   5.467   4.497   6.234 -0.0082  0.0180  0.2313
 1669TIP3    H126642   5.480   4.515   6.141  1.2903  0.0544  0.4024
 1669TIP3    H226643   5.390   4.548   6.258 -0.9998 -0.8306 -1.0520
 1670TIP3   OH226644   2.015   5.928   7.288  0.3023 -0.5267 -0.2643
 1670TIP3    H126645   1.936   5.888   7.250 -0.3985 -0.6792  1.2756
 1670TIP3    H226646   2.006   5.913   7.382  0.8863  1.7000  0.2025
 1671TIP3   OH226647   2.847   5.261   2.202  0.3098  0.1130  0.4096
 1671TIP3    H126648   2.806   5.338   2.241 -0.6695 -0.5435  0.7387
 1671TIP3    H226649   2.913   5.296   2.142 -0.9504  1.2445 -0.3889
 1672TIP3   OH226650   0.111   2.813   6.659 -0.0182 -0.3394  0.6672
 1672TIP3    H126651   0.092   2.749   6.590  1.0118 -0.4219  0.4510
 1672TIP3    H226652   0.126   2.895   6.613 -1.1897  0.0476  0.9366
 1673TIP3   OH226653   5.714   0.882   1.037  0.0062 -0.3167 -0.4535
 1673TIP3    H126654   5.625   0.917   1.036 -1.2906 -2.8935  2.9900
 1673TIP3    H226655   5.769   0.957   1.057 -2.1819  0.5812  3.1045
 1674TIP3   OH226656   5.077   4.665   1.686  0.6134 -0.2580  0.2885
 1674TIP3    H126657   5.058   4.731   1.752 -1.5054  0.9320 -1.4076
 1674TIP3    H226658   5.048   4.582   1.725  0.4896  0.2424  1.2771
 1675TIP3   OH226659   2.395   3.819   7.542  0.1036 -0.4413 -0.4949
 1675TIP3    H126660   2.353   3.903   7.524  3.0296  0.9627 -1.2436
 1675TIP3    H226661   2.472   3.817   7.486  2.6173 -1.5801  2.6609
 1676TIP3   OH226662   4.402   2.860   0.693 -0.3108  0.6840 -0.4326
 1676TIP3    H126663   4.438   2.818   0.771  1.6100  0.3850 -1.4252
 1676TIP3    H226664   4.332   2.801   0.664 -0.3658  0.2839  0.4734
 1677TIP3   OH226665   3.675   6.995   6.752 -0.0962 -0.1169  0.0287
 1677TIP3    H126666   3.766   7.015   6.731  0.1615 -1.4498 -0.2673
 1677TIP3    H226667   3.644   6.944   6.677 -2.0359  2.7423 -1.2702
 1678TIP3   OH226668   0.369   1.367   0.970 -0.1023  0.1473 -0.0090
 1678TIP3    H126669   0.299   1.388   0.907 -1.4357  0.4468  1.5015
 1678TIP3    H226670   0.370   1.272   0.973 -1.6284  0.1168  1.1259
 1679TIP3   OH226671   5.131   0.920   1.431  0.0493 -0.9945  0.0094
 1679TIP3    H126672   5.139   1.009   1.397 -1.9085 -0.4739  0.7491
 1679TIP3    H226673   5.178   0.866   1.369  0.7933  0.4852 -0.7753
 1680TIP3   OH226674   6.020   2.727   8.270 -0.0029  0.2202 -0.3045
 1680TIP3    H126675   6.024   2.792   8.340  1.0429  0.7337 -0.8160
 1680TIP3    H226676   5.930   2.732   8.238 -1.7121 -2.5069  3.2320
 1681TIP3   OH226677   1.732   3.476   7.021  0.2408 -0.1212  0.5129
 1681TIP3    H126678   1.691   3.466   6.935  0.3611 -1.1077  0.5552
 1681TIP3    H226679   1.673   3.428   7.080  0.4466  0.0890  0.8858
 1682TIP3   OH226680   0.323   1.130   0.068 -0.0950  0.7057 -0.4190
 1682TIP3    H126681   0.364   1.067   0.010 -0.1393  1.3658 -1.1907
 1682TIP3    H226682   0.231   1.102   0.074 -0.0453  0.5273 -0.5112
 1683TIP3   OH226683   6.534   1.150   2.036 -0.3767  0.1673  0.2844
 1683TIP3    H126684   6.602   1.088   2.010 -0.2346  0.5561 -0.2874
 1683TIP3    H226685   6.541   1.154   2.132 -0.4567 -0.7661  0.3386
 1684TIP3   OH226686   0.532   0.613   7.932  0.1883 -0.6878  0.2539
 1684TIP3    H126687   0.469   0.551   7.970  0.3088 -0.3060  1.1147
 1684TIP3    H226688   0.478   0.688   7.906 -0.2659 -1.9395 -2.7275
 1685TIP3   OH226689   0.462   0.890   6.802  0.1083 -0.2274 -0.1163
 1685TIP3    H126690   0.374   0.926   6.793 -0.2273 -0.8428  0.5834
 1685TIP3    H226691   0.478   0.842   6.721  0.2610  0.8213 -0.7341
 1686TIP3   OH226692   4.472   5.183   6.830 -0.6003  0.1309  0.3753
 1686TIP3    H126693   4.483   5.213   6.920  0.7459  0.5394  0.0966
 1686TIP3    H226694   4.457   5.262   6.779  0.9495  0.1797 -0.0666
 1687TIP3   OH226695   0.926   3.396   6.852  0.4928 -0.2535  0.3529
 1687TIP3    H126696   0.999   3.370   6.797 -0.7215  1.1499 -2.0863
 1687TIP3    H226697   0.964   3.458   6.915  1.5799 -0.3887 -0.1475
 1688TIP3   OH226698   2.141   4.762   1.502 -0.1139 -0.0978 -0.7654
 1688TIP3    H126699   2.061   4.802   1.536  0.7740  1.5404 -0.4577
 1688TIP3    H226700   2.168   4.699   1.568 -1.1541 -0.6795 -0.8886
 1689TIP3   OH226701   5.694   2.559   5.570 -0.4260 -0.0755 -0.2098
 1689TIP3    H126702   5.775   2.526   5.532 -1.3984 -1.2055 -1.4304
 1689TIP3    H226703   5.720   2.602   5.652  1.4019 -0.1732 -0.7128
 1690TIP3   OH226704   6.201   4.413   6.127 -0.4645 -0.5797 -0.7426
 1690TIP3    H126705   6.193   4.504   6.156  1.5939 -0.5443 -0.0822
 1690TIP3    H226706   6.294   4.403   6.107 -0.9337 -2.0926 -2.4176
 1691TIP3   OH226707   2.461   0.938   7.963 -0.0692 -0.1250 -0.0671
 1691TIP3    H126708   2.471   0.846   7.987  1.6666 -0.6015 -2.2450
 1691TIP3    H226709   2.411   0.936   7.882 -1.1619  0.9803  0.5548
 1692TIP3   OH226710   2.315   4.345   6.209 -0.8423  0.0544  0.6241
 1692TIP3    H126711   2.363   4.417   6.250 -1.3376  0.6561  0.1621
 1692TIP3    H226712   2.371   4.315   6.138  0.0000 -0.9617  1.6757
 1693TIP3   OH226713   5.175   3.623   0.722 -0.0130 -0.8382  0.0187
 1693TIP3    H126714   5.114   3.550   0.717  0.2424 -0.9869 -1.2140
 1693TIP3    H226715   5.247   3.590   0.776  0.1725 -1.5654 -0.6514
 1694TIP3   OH226716   4.588   4.550   6.930 -0.2205  0.6315 -0.0708
 1694TIP3    H126717   4.575   4.554   6.835 -1.3595  0.9118  0.0798
 1694TIP3    H226718   4.506   4.585   6.967  0.5122  1.2669  1.0047
 1695TIP3   OH226719   0.029   6.011   0.199  0.2315  0.0096 -0.3243
 1695TIP3    H126720  -0.047   5.984   0.147  0.1128 -0.5548  0.1352
 1695TIP3    H226721   0.077   6.070   0.141  0.0606 -0.5465 -1.0544
 1696TIP3   OH226722   5.221   0.157   7.279 -0.2899 -0.2601 -0.1857
 1696TIP3    H126723   5.274   0.079   7.295 -0.3436  0.2683  3.5068
 1696TIP3    H226724   5.131   0.130   7.298 -0.3649  0.5432  0.7130
 1697TIP3   OH226725   2.022   4.175   1.044  0.0316 -0.0324 -0.0368
 1697TIP3    H126726   1.953   4.242   1.035 -0.1720  0.2843  2.9643
 1697TIP3    H226727   1.986   4.112   1.105  0.6795 -2.4012 -1.9609
 1698TIP3   OH226728   6.054   0.130   0.642 -0.0083  0.2422 -0.3338
 1698TIP3    H126729   6.008   0.143   0.725 -0.0783  0.5428 -0.4188
 1698TIP3    H226730   5.993   0.078   0.589  0.1432 -0.1742 -0.1070
 1699TIP3   OH226731   6.682   1.849   8.221  0.3405  0.2667  0.0287
 1699TIP3    H126732   6.722   1.829   8.136  0.0146  0.9024 -0.2844
 1699TIP3    H226733   6.715   1.936   8.243  0.0916  0.2818  0.3527
 1700TIP3   OH226734   0.121   0.478   1.524  0.0957 -0.0221  0.3601
 1700TIP3    H126735   0.132   0.414   1.594  0.7975  0.2771  0.5238
 1700TIP3    H226736   0.159   0.559   1.558 -0.4772  0.3992  0.0218
 1701TIP3   OH226737   6.410   2.177   0.393  0.2276  0.5209 -0.6743
 1701TIP3    H126738   6.355   2.101   0.413 -0.3172  0.7981 -1.0993
 1701TIP3    H226739   6.494   2.157   0.433 -0.0545 -0.1025 -0.3848
 1702TIP3   OH226740   6.258   4.353   7.925 -0.2344  0.8149  0.4517
 1702TIP3    H126741   6.179   4.324   7.969 -0.6130  3.7779  2.0255
 1702TIP3    H226742   6.295   4.419   7.984  1.5904  1.9273 -1.7581
 1703TIP3   OH226743   6.650   3.382   6.845 -0.3793  0.3723 -0.2810
 1703TIP3    H126744   6.615   3.313   6.901  0.5962 -0.0039 -0.1290
 1703TIP3    H226745   6.574   3.414   6.796 -0.7915 -1.0165 -0.5822
 1704TIP3   OH226746   0.208   0.563   6.836  0.2125  0.1101  0.1555
 1704TIP3    H126747   0.137   0.613   6.796 -0.7490 -0.7201  0.7584
 1704TIP3    H226748   0.261   0.628   6.882 -1.6179  0.5309  1.8352
 1705TIP3   OH226749   1.603   6.557   2.260  0.5120  0.2828  0.4687
 1705TIP3    H126750   1.692   6.585   2.239  0.7479 -0.3120  0.6528
 1705TIP3    H226751   1.552   6.638   2.262  0.8385  0.5323 -0.6413
 1706TIP3   OH226752   1.119   1.608   6.284  0.3616  0.1396  0.3502
 1706TIP3    H126753   1.201   1.644   6.249  0.1699 -0.0398 -0.2980
 1706TIP3    H226754   1.081   1.559   6.211 -0.8579  1.1017  0.3206
 1707TIP3   OH226755   2.559   3.650   7.715  0.4871 -0.1800 -0.3379
 1707TIP3    H126756   2.466   3.674   7.717  1.0074  2.2038 -1.5617
 1707TIP3    H226757   2.570   3.599   7.635  0.5761  1.3727 -1.3543
 1708TIP3   OH226758   0.347   5.750   0.213  0.5711  0.0533  0.2493
 1708TIP3    H126759   0.315   5.727   0.300 -0.3480 -0.3586 -0.1897
 1708TIP3    H226760   0.297   5.828   0.189 -1.7896 -1.8007 -1.3301
 1709TIP3   OH226761   3.414   0.389   2.160  0.4972 -0.3879  0.1753
 1709TIP3    H126762   3.333   0.397   2.210 -0.8868 -1.8723 -1.6494
 1709TIP3    H226763   3.449   0.304   2.185 -0.0176 -0.9826 -1.0085
 1710TIP3   OH226764   0.937   2.941   0.081  0.1091 -0.3288 -0.2710
 1710TIP3    H126765   0.947   3.021   0.030 -1.3843  0.7947  1.1256
 1710TIP3    H226766   0.986   2.957   0.161 -0.2291 -0.8163  0.0394
 1711TIP3   OH226767   3.112   3.260   0.086 -0.0070  0.0898  0.0733
 1711TIP3    H126768   3.019   3.249   0.106 -0.4171 -1.3134 -2.2049
 1711TIP3    H226769   3.132   3.348   0.116 -2.3037  0.7372 -0.0600
 1712TIP3   OH226770   2.180   0.213   5.816 -0.4220  0.2388 -0.0292
 1712TIP3    H126771   2.121   0.150   5.856  0.9182 -1.7544 -1.0105
 1712TIP3    H226772   2.170   0.292   5.868 -2.1764 -0.7692  1.2650
 1713TIP3   OH226773   0.134   2.059   7.044  0.8096 -0.1751  0.4855
 1713TIP3    H126774   0.077   2.003   7.096 -1.2552  0.1148 -1.2843
 1713TIP3    H226775   0.166   2.002   6.974  1.0520  0.1654  0.3153
 1714TIP3   OH226776   2.969   3.656   0.611  0.0805  0.7738  0.2252
 1714TIP3    H126777   2.935   3.640   0.700  0.6588 -1.1413  0.1584
 1714TIP3    H226778   3.044   3.713   0.624 -1.1413  2.3654  0.7001
 1715TIP3   OH226779   2.279   2.557   0.643 -0.2713  0.5085 -0.1758
 1715TIP3    H126780   2.358   2.598   0.607  1.8516  0.1011  3.5014
 1715TIP3    H226781   2.239   2.512   0.568  3.4830 -0.0600 -2.0863
 1716TIP3   OH226782   3.064   6.801   6.673 -0.2044 -0.0319 -0.8116
 1716TIP3    H126783   3.062   6.789   6.578  2.6552  1.4553 -1.1494
 1716TIP3    H226784   3.073   6.713   6.709  1.9273 -0.4012 -2.1288
 1717TIP3   OH226785   3.821   6.844   2.120 -0.5080  0.4318  0.1116
 1717TIP3    H126786   3.884   6.876   2.185 -0.3320  0.8907 -0.2844
 1717TIP3    H226787   3.857   6.759   2.093 -0.4106  0.3872  0.3705
 1718TIP3   OH226788   0.462   5.582   6.946  0.2424  0.7572  0.3067
 1718TIP3    H126789   0.386   5.640   6.943 -0.0429  0.3942  0.4952
 1718TIP3    H226790   0.531   5.635   6.987  1.0993  2.2366 -2.6856
 1719TIP3   OH226791   5.956   3.352   0.349 -0.4188 -0.0722 -0.1268
 1719TIP3    H126792   5.938   3.384   0.261  0.0285  0.0981 -0.1591
 1719TIP3    H226793   6.022   3.412   0.384  1.6970 -1.8455 -0.7983
 1720TIP3   OH226794   3.227   3.574   1.155  0.0891 -0.1262  0.5252
 1720TIP3    H126795   3.154   3.616   1.108 -1.2736  0.0235  2.6238
 1720TIP3    H226796   3.287   3.646   1.173 -0.0710  0.0812  0.2532
 1721TIP3   OH226797   3.197   0.699   0.334 -0.4168 -0.5662  0.1493
 1721TIP3    H126798   3.103   0.715   0.350 -0.2804  0.5532 -0.1052
 1721TIP3    H226799   3.205   0.604   0.337 -1.0372 -0.6475  3.2838
 1722TIP3   OH226800   3.985   4.667   0.512 -0.7501  0.3235 -0.2198
 1722TIP3    H126801   4.060   4.725   0.526 -1.8593  1.2319  2.7826
 1722TIP3    H226802   3.945   4.698   0.431  1.1971  0.8184 -1.0349
 1723TIP3   OH226803   0.591   0.612   0.945 -0.1258 -0.0057 -0.7602
 1723TIP3    H126804   0.636   0.574   1.021  0.4409  1.3193 -0.4175
 1723TIP3    H226805   0.656   0.667   0.903 -1.2510  1.5715 -0.5221
 1724TIP3   OH226806   0.645   3.019   7.797  0.0426 -0.3387 -0.0127
 1724TIP3    H126807   0.728   3.041   7.754  0.6773  0.9879  1.7395
 1724TIP3    H226808   0.666   3.020   7.890 -1.6309 -1.4709  0.4239
 1725TIP3   OH226809   3.625   1.936   0.019 -0.3334 -0.1001  0.1165
 1725TIP3    H126810   3.570   1.963   0.092 -0.0566 -0.0379  0.3030
 1725TIP3    H226811   3.623   2.011  -0.041 -0.4417 -0.0936  0.1275
 1726TIP3   OH226812   5.691   4.683   5.722  0.0094 -0.0360  0.7721
 1726TIP3    H126813   5.706   4.633   5.802 -1.9911 -2.0931 -0.0368
 1726TIP3    H226814   5.598   4.706   5.725 -0.8423 -2.4239 -2.0533
 1727TIP3   OH226815   2.119   3.088   0.247 -0.4000  0.3817  1.1932
 1727TIP3    H126816   2.120   3.154   0.178  1.5721 -0.3778  0.4308
 1727TIP3    H226817   2.203   3.100   0.292  0.0109 -1.5800  1.0313
 1728TIP3   OH226818   2.420   3.997   1.086  0.0815 -0.8278  0.4078
 1728TIP3    H126819   2.407   4.089   1.112  1.2804 -0.7366  0.7457
 1728TIP3    H226820   2.462   4.002   1.001  0.8839 -1.0369  0.7806
 1729TIP3   OH226821   2.923   0.418   1.015 -0.4366  0.0547  0.3407
 1729TIP3    H126822   2.848   0.426   0.955  0.5778 -0.2839 -1.0316
 1729TIP3    H226823   2.971   0.500   1.003 -0.3223  0.0657  0.8636
 1730TIP3   OH226824   5.660   3.902   7.799 -0.2395  0.1286 -0.4186
 1730TIP3    H126825   5.656   3.929   7.707 -1.1729  1.0250 -0.1446
 1730TIP3    H226826   5.752   3.884   7.815 -0.1624 -0.8256 -1.7344
 1731TIP3   OH226827   5.947   4.292   1.961 -0.2938 -0.5199 -0.6006
 1731TIP3    H126828   5.858   4.261   1.974  0.0084 -0.8290  0.8625
 1731TIP3    H226829   5.974   4.325   2.047  1.0876 -0.6566 -0.9561
 1732TIP3   OH226830   2.086   1.073   8.226 -0.2411 -0.3140 -0.1452
 1732TIP3    H126831   2.165   1.093   8.177 -0.9414 -1.2818 -1.7487
 1732TIP3    H226832   2.110   1.000   8.282  0.0684 -0.4293 -0.4264
 1733TIP3   OH226833   4.785   3.161   6.990 -0.2955 -0.7386  0.0025
 1733TIP3    H126834   4.776   3.111   6.908 -0.3246  0.2476 -0.6063
 1733TIP3    H226835   4.872   3.138   7.022  0.2194 -0.1989 -0.9528
 1734TIP3   OH226836   6.836   3.774   0.366 -0.0446  0.1756  0.0206
 1734TIP3    H126837   6.777   3.731   0.305  0.3538 -2.1645  1.1623
 1734TIP3    H226838   6.922   3.737   0.347  0.3034  0.3479  1.1624
 1735TIP3   OH226839   3.098   0.189   1.385  0.0565 -0.5053  0.3095
 1735TIP3    H126840   3.011   0.190   1.426 -1.1688  0.8635 -2.0825
 1735TIP3    H226841   3.110   0.278   1.351  1.5222 -1.1878 -1.1122
 1736TIP3   OH226842   4.038   6.031   1.499 -0.4852 -0.6710 -0.1777
 1736TIP3    H126843   4.086   5.951   1.521  1.4283  0.5375  0.2714
 1736TIP3    H226844   4.045   6.086   1.577  1.3235  1.3176 -1.6154
 1737TIP3   OH226845   3.837   4.446   5.763 -0.2973  0.2716  0.0031
 1737TIP3    H126846   3.774   4.482   5.700 -0.6347  0.3990  0.4131
 1737TIP3    H226847   3.886   4.380   5.713  2.2414  3.1115 -1.6607
 1738TIP3   OH226848   0.725   2.830   6.904  0.2682 -0.3176  0.4542
 1738TIP3    H126849   0.633   2.839   6.930 -0.0785 -0.2680 -0.7153
 1738TIP3    H226850   0.746   2.914   6.862  0.4591 -0.7863 -0.4034
 1739TIP3   OH226851   4.047   0.942   6.215 -0.0416 -0.0190  0.6668
 1739TIP3    H126852   4.140   0.922   6.204  0.4480  2.7079 -1.4222
 1739TIP3    H226853   4.009   0.927   6.128 -0.3946  3.6274  0.0496
 1740TIP3   OH226854   4.060   2.366   7.594 -0.1218  0.0041  0.0303
 1740TIP3    H126855   4.065   2.271   7.604  0.5461 -0.0972 -1.0285
 1740TIP3    H226856   3.967   2.386   7.596 -0.2610 -0.6565  0.4068
 1741TIP3   OH226857   5.125   5.562   8.251 -0.9494  0.1209  0.0638
 1741TIP3    H126858   5.083   5.518   8.325 -1.0415  0.4799  0.2244
 1741TIP3    H226859   5.157   5.645   8.286  1.7248 -0.9774  0.4582
 1742TIP3   OH226860   5.372   3.109   6.346  0.0269  0.8146  0.2452
 1742TIP3    H126861   5.335   3.077   6.263  1.9466  2.1073 -1.1895
 1742TIP3    H226862   5.311   3.177   6.375 -1.9428 -1.2464  1.2364
 1743TIP3   OH226863   5.741   2.388   6.757 -0.0178  0.4639 -0.0488
 1743TIP3    H126864   5.666   2.336   6.727 -0.3129  0.2458  1.0230
 1743TIP3    H226865   5.811   2.367   6.695 -0.2584 -0.8832  0.1137
 1744TIP3   OH226866   5.312   6.443   6.164  0.5128 -0.2991  0.1971
 1744TIP3    H126867   5.356   6.474   6.085 -0.3442 -0.2711 -0.2756
 1744TIP3    H226868   5.219   6.454   6.146  0.3254  1.0761  1.7553
 1745TIP3   OH226869   4.808   4.813   8.140 -0.2657 -0.6332 -0.0192
 1745TIP3    H126870   4.862   4.782   8.068 -1.3151 -2.2652 -0.1631
 1745TIP3    H226871   4.762   4.889   8.105 -0.5038 -1.2014 -0.9835
 1746TIP3   OH226872   2.381   0.491   6.640  1.0896  0.0999  0.4008
 1746TIP3    H126873   2.339   0.479   6.555  0.2469 -3.7449  1.1800
 1746TIP3    H226874   2.474   0.477   6.623  0.8996 -0.8685  0.1387
 1747TIP3   OH226875   3.591   0.503   7.443 -0.3413  0.1129 -0.2188
 1747TIP3    H126876   3.569   0.592   7.472  0.4242  0.0328  0.6392
 1747TIP3    H226877   3.511   0.453   7.458 -0.1072  0.1727  1.3913
 1748TIP3   OH226878   4.662   3.167   1.795 -0.3823  0.1921 -0.2994
 1748TIP3    H126879   4.708   3.164   1.879  1.2073  1.8825 -1.0326
 1748TIP3    H226880   4.597   3.236   1.805 -1.4338 -0.8294  0.0869
 1749TIP3   OH226881   3.277   3.595   8.146 -0.6758 -0.2513  0.3533
 1749TIP3    H126882   3.237   3.631   8.066 -1.7601 -1.3937  0.3453
 1749TIP3    H226883   3.292   3.502   8.125  1.6383  0.0326  0.5278
 1750TIP3   OH226884   5.636   4.176   0.521  0.1235  0.5062 -0.0694
 1750TIP3    H126885   5.549   4.158   0.557 -0.0895 -0.5280 -1.0450
 1750TIP3    H226886   5.696   4.160   0.594 -0.3758 -0.4743  0.1420
 1751TIP3   OH226887   6.446   0.660   1.138 -0.0407 -0.0827 -0.3865
 1751TIP3    H126888   6.540   0.649   1.145 -0.2711 -1.4414  1.0184
 1751TIP3    H226889   6.435   0.742   1.090  1.8951  2.3897  2.9995
 1752TIP3   OH226890   3.673   6.697   7.430 -0.5504  0.4624 -0.3880
 1752TIP3    H126891   3.721   6.643   7.367  0.4698  0.2070  0.5743
 1752TIP3    H226892   3.644   6.636   7.498 -0.1148  0.9812  0.2801
 1753TIP3   OH226893   0.676   1.697   2.103 -0.0130  0.2717  0.3284
 1753TIP3    H126894   0.732   1.706   2.180 -0.7376  1.3335  0.7603
 1753TIP3    H226895   0.729   1.729   2.031  1.1865 -2.0529  0.0983
 1754TIP3   OH226896   5.544   0.784   1.898 -0.1783 -0.3809 -0.0927
 1754TIP3    H126897   5.615   0.791   1.962  0.2532 -0.8983 -0.4989
 1754TIP3    H226898   5.473   0.742   1.946  0.7484 -2.4041 -0.3805
 1755TIP3   OH226899   3.581   4.537   0.507  0.2417  0.0155  0.6557
 1755TIP3    H126900   3.626   4.612   0.546 -2.4507  1.8703  0.4485
 1755TIP3    H226901   3.649   4.493   0.456  2.2659  1.4131  1.9743
 1756TIP3   OH226902   4.783   4.126   7.434 -0.2084 -0.2211 -0.6101
 1756TIP3    H126903   4.785   4.090   7.522  1.4480 -1.6863 -1.1841
 1756TIP3    H226904   4.872   4.114   7.401 -0.4800  1.3774 -2.0812
 1757TIP3   OH226905   5.456   4.885   7.104  0.2952  0.3067 -0.4049
 1757TIP3    H126906   5.493   4.832   7.175  0.9312 -2.2859 -2.5106
 1757TIP3    H226907   5.504   4.968   7.108  1.0333 -0.1698  1.5181
 1758TIP3   OH226908   6.307   2.933   0.364  0.3337  0.5821  0.8657
 1758TIP3    H126909   6.387   2.884   0.381 -0.6016 -1.6231 -0.5941
 1758TIP3    H226910   6.239   2.887   0.413 -0.0319  2.6983  2.4745
 1759TIP3   OH226911   5.448   4.764   5.869  0.1675  0.0163 -0.0266
 1759TIP3    H126912   5.459   4.674   5.901 -2.3446  0.5228  2.7307
 1759TIP3    H226913   5.361   4.789   5.899  0.6524  3.2667 -1.0164
 1760TIP3   OH226914   2.456   1.041   6.006 -0.1512  0.3728 -0.4467
 1760TIP3    H126915   2.425   1.124   5.971 -0.2174  0.1576 -0.9136
 1760TIP3    H226916   2.551   1.052   6.011 -0.2089  0.6870  0.0688
 1761TIP3   OH226917   3.660   4.382   2.308 -0.1970 -0.0830 -0.6282
 1761TIP3    H126918   3.571   4.352   2.289 -0.6507 -0.7336  2.0135
 1761TIP3    H226919   3.703   4.306   2.347  1.1047  0.5843 -0.7097
 1762TIP3   OH226920   2.437   2.982   1.064  0.0042 -0.1868 -0.2550
 1762TIP3    H126921   2.418   3.013   0.975 -0.2915 -1.2992 -0.5925
 1762TIP3    H226922   2.361   3.009   1.115  1.6076  3.5626  0.5385
 1763TIP3   OH226923   1.689   0.686   1.472 -0.2821 -0.4613 -0.2786
 1763TIP3    H126924   1.620   0.632   1.511 -0.7490 -0.1472 -0.6597
 1763TIP3    H226925   1.678   0.773   1.512 -0.1060 -0.4084 -0.3416
 1764TIP3   OH226926   2.122   2.545   7.018 -0.0647 -0.4724 -0.2268
 1764TIP3    H126927   2.158   2.470   6.970 -0.9161  0.2458 -2.0821
 1764TIP3    H226928   2.027   2.536   7.008 -0.2324  0.0816  0.7656
 1765TIP3   OH226929   3.998   0.773   8.230 -0.0651 -0.0769  0.0647
 1765TIP3    H126930   3.941   0.737   8.161  2.6880 -2.2134 -1.3234
 1765TIP3    H226931   4.046   0.844   8.186 -0.2440  0.4074  0.6429
 1766TIP3   OH226932   6.239   5.479   6.927 -0.0572 -0.0597  0.1638
 1766TIP3    H126933   6.230   5.419   6.852  1.9629 -1.7166  1.1429
 1766TIP3    H226934   6.166   5.456   6.984 -0.1327 -0.6043 -0.1410
 1767TIP3   OH226935   0.580   0.922   7.036  0.4721  0.8979 -0.0666
 1767TIP3    H126936   0.536   0.893   6.956 -0.5396  0.9244  0.4700
 1767TIP3    H226937   0.625   1.003   7.011  1.2338  0.2365 -0.9238
 1768TIP3   OH226938   6.105   6.415   1.147  0.0250  0.2572  0.0957
 1768TIP3    H126939   6.194   6.429   1.113  0.3663 -0.5840  0.5852
 1768TIP3    H226940   6.105   6.461   1.231 -0.1127  0.5257 -0.0498
 1769TIP3   OH226941   2.333   6.706   7.786 -0.0430 -0.1514 -0.0667
 1769TIP3    H126942   2.402   6.772   7.782 -0.3475  0.1113 -1.5671
 1769TIP3    H226943   2.292   6.708   7.699 -3.2813  1.0866  1.3228
 1770TIP3   OH226944   5.303   0.526   6.963 -0.1717  0.7352 -0.0319
 1770TIP3    H126945   5.363   0.468   7.010  0.6939  1.3819 -0.3223
 1770TIP3    H226946   5.346   0.545   6.880 -1.0667  0.7164 -0.5202
 1771TIP3   OH226947   6.046   3.457   1.682  0.1520  0.1085 -0.6759
 1771TIP3    H126948   5.976   3.399   1.713  1.4560 -0.5278  1.2691
 1771TIP3    H226949   6.127   3.409   1.701  1.1896  1.7103 -0.8953
 1772TIP3   OH226950   3.626   7.080   0.438 -0.5422 -0.2056 -0.2469
 1772TIP3    H126951   3.683   7.016   0.480 -0.8125  0.5339  1.3214
 1772TIP3    H226952   3.653   7.080   0.346  0.4662 -1.4554  0.0197
 1773TIP3   OH226953   4.754   2.743   1.594  0.1439  0.1862  0.4095
 1773TIP3    H126954   4.832   2.798   1.602  0.1481  0.0242  1.7973
 1773TIP3    H226955   4.682   2.799   1.623 -0.2834  0.3510 -0.9091
 1774TIP3   OH226956   1.311   3.642   6.334  0.6703 -0.2320  0.6961
 1774TIP3    H126957   1.336   3.596   6.253 -0.7087 -0.2736  0.2634
 1774TIP3    H226958   1.225   3.680   6.314 -0.1402 -1.0122  2.4254
 1775TIP3   OH226959   1.131   1.844   7.434 -0.6370 -0.3738  0.0579
 1775TIP3    H126960   1.105   1.912   7.496 -0.9336  0.0863 -0.5663
 1775TIP3    H226961   1.081   1.862   7.355 -0.6906 -1.2951 -0.1329
 1776TIP3   OH226962   0.290   2.411   8.232  0.6707  0.2655 -0.1831
 1776TIP3    H126963   0.345   2.453   8.167 -0.4743  0.7454 -0.8549
 1776TIP3    H226964   0.349   2.396   8.307  0.9484  3.8989  0.4956
 1777TIP3   OH226965   2.058   6.544   8.229 -0.2683  0.0381  0.1044
 1777TIP3    H126966   2.088   6.456   8.252 -1.3386 -0.1221  0.9677
 1777TIP3    H226967   2.049   6.542   8.134  0.5313 -0.5110  0.0283
 1778TIP3   OH226968   3.199   2.365   7.811 -0.2924 -0.0434 -0.3956
 1778TIP3    H126969   3.222   2.446   7.765  0.3095  0.1970  0.3117
 1778TIP3    H226970   3.117   2.338   7.771 -1.5706  1.9856  0.6692
 1779TIP3   OH226971   1.217   1.404   7.812 -0.3029 -0.0813 -0.5741
 1779TIP3    H126972   1.167   1.405   7.894  1.0277  1.1871  0.2789
 1779TIP3    H226973   1.216   1.495   7.783 -1.5031 -0.6493 -2.4940
 1780TIP3   OH226974   0.311   3.008   7.267 -0.3872 -0.0642 -0.0251
 1780TIP3    H126975   0.360   3.033   7.344  1.7265 -1.8835 -0.6607
 1780TIP3    H226976   0.222   2.994   7.298  0.2987 -0.2514  1.9733
 1781TIP3   OH226977   6.892   5.727   7.457 -0.0365  0.6339  0.4566
 1781TIP3    H126978   6.920   5.790   7.391 -2.8069  0.1882 -1.3005
 1781TIP3    H226979   6.797   5.737   7.462 -0.4456 -2.4700  1.0658
 1782TIP3   OH226980   5.918   5.517   0.622 -0.9183 -0.1493  0.4336
 1782TIP3    H126981   5.894   5.593   0.674  0.2228  0.7731 -0.3292
 1782TIP3    H226982   5.862   5.522   0.545 -0.5829  0.1477  0.2045
 1783TIP3   OH226983   0.206   4.183   0.615  0.2123  0.0474 -0.5843
 1783TIP3    H126984   0.240   4.260   0.660  0.7468 -0.9250  0.7658
 1783TIP3    H226985   0.149   4.218   0.547  0.9717  1.6362 -0.4567
 1784TIP3   OH226986   5.050   6.834   7.268  0.1958  0.5833 -0.4639
 1784TIP3    H126987   4.958   6.817   7.251 -0.1287  0.9283  0.8521
 1784TIP3    H226988   5.069   6.785   7.348  2.1438 -2.5598 -2.6323
 1785TIP3   OH226989   2.240   0.255   7.977  0.1807  0.5835  0.6476
 1785TIP3    H126990   2.196   0.333   7.943 -0.5969  0.1071  0.5454
 1785TIP3    H226991   2.170   0.192   7.994  0.9315 -0.9637 -1.4523
 1786TIP3   OH226992   6.945   6.055   2.085  0.1300  0.2798  0.2850
 1786TIP3    H126993   6.851   6.074   2.086  0.4115  1.7890  0.0404
 1786TIP3    H226994   6.968   6.046   1.993 -0.0186 -1.6153  0.3798
 1787TIP3   OH226995   1.771   2.492   8.089  0.4585  0.0323 -0.0254
 1787TIP3    H126996   1.841   2.454   8.143  0.3542 -0.5770 -0.3167
 1787TIP3    H226997   1.765   2.583   8.119  1.0642 -0.0343  0.3189
 1788TIP3   OH226998   2.927   0.752   0.050  0.1077 -0.7609 -0.3737
 1788TIP3    H126999   2.909   0.746   0.144  0.0934 -0.1690 -0.3384
 1788TIP3    H227000   3.011   0.796   0.045  0.4234 -1.3760 -0.6239
 1789TIP3   OH227001   4.442   3.709   1.645  0.1537  0.3551 -0.2308
 1789TIP3    H127002   4.467   3.802   1.647 -0.3700  0.5238 -0.9020
 1789TIP3    H227003   4.455   3.679   1.735  0.0674  1.1564  0.0629
 1790TIP3   OH227004   5.056   2.953   6.394  0.0675  0.0788  0.0199
 1790TIP3    H127005   5.087   2.891   6.461 -2.6246 -0.7985  0.6059
 1790TIP3    H227006   5.125   2.954   6.328  1.6872 -0.9836  1.6056
 1791TIP3   OH227007   5.939   5.518   1.436 -0.3652 -0.1827 -0.4093
 1791TIP3    H127008   5.901   5.495   1.520  0.0369  0.7929  0.0564
 1791TIP3    H227009   6.029   5.485   1.440 -0.2980  0.0007 -0.3961
 1792TIP3   OH227010   6.581   4.389   2.254  0.1796 -0.7979  0.2036
 1792TIP3    H127011   6.533   4.308   2.236  1.3246 -1.4238 -0.1490
 1792TIP3    H227012   6.670   4.371   2.225  0.7322  0.1944  1.2057
 1793TIP3   OH227013   3.781   0.027   1.677  0.3567  0.2308  0.1245
 1793TIP3    H127014   3.702   0.053   1.725  0.5875  1.5186 -0.1595
 1793TIP3    H227015   3.807  -0.056   1.717 -1.1843 -0.2661  0.1644
 1794TIP3   OH227016   2.201   0.088   6.530  0.2477  1.0366 -0.7290
 1794TIP3    H127017   2.126   0.094   6.470 -0.3370 -0.7238 -0.2344
 1794TIP3    H227018   2.179   0.148   6.602 -2.8651 -2.4167  1.5723
 1795TIP3   OH227019   4.784   2.887   6.304  0.2509  0.1464 -0.1258
 1795TIP3    H127020   4.707   2.943   6.309  0.6329  0.9728 -2.3271
 1795TIP3    H227021   4.844   2.923   6.369 -0.7304  0.2798  0.7236
 1796TIP3   OH227022   3.016   2.969   1.390 -0.4334 -0.6552  0.5137
 1796TIP3    H127023   3.108   2.963   1.417 -0.1836  2.2168  0.6060
 1796TIP3    H227024   2.968   2.918   1.456  0.8975 -0.4430  1.6928
 1797TIP3   OH227025   1.071   4.835   0.161 -0.7963 -0.1805 -0.3209
 1797TIP3    H127026   1.163   4.860   0.177 -0.7250 -0.5705 -0.1105
 1797TIP3    H227027   1.064   4.746   0.196 -1.5781  0.3061  0.8080
 1798TIP3   OH227028   3.360   3.810   7.810 -0.2270  0.4078  0.7627
 1798TIP3    H127029   3.369   3.870   7.736  1.3469 -0.9289 -0.2053
 1798TIP3    H227030   3.442   3.820   7.858 -1.3152  1.4217  2.5358
 1799TIP3   OH227031   0.302   2.507   6.757  0.1619 -0.0786 -0.2073
 1799TIP3    H127032   0.387   2.549   6.768 -0.0256  0.0851  0.6648
 1799TIP3    H227033   0.286   2.510   6.663  1.7924 -1.4616 -0.5812
 1800TIP3   OH227034   3.820   0.701   0.295 -0.1945  0.0194  0.3038
 1800TIP3    H127035   3.765   0.746   0.359 -1.1837 -1.5935  0.6336
 1800TIP3    H227036   3.863   0.632   0.344 -1.4306 -1.6278 -0.8404
 1801TIP3   OH227037   2.267   5.819   1.429  0.3404 -0.4665  0.0189
 1801TIP3    H127038   2.328   5.823   1.502 -0.0729 -0.0972  0.3432
 1801TIP3    H227039   2.313   5.863   1.357 -0.4740  2.0661  0.9407
 1802TIP3   OH227040   2.556   5.161   7.208  0.0483 -0.5889  0.2369
 1802TIP3    H127041   2.578   5.201   7.292  1.6098  0.3362 -0.5450
 1802TIP3    H227042   2.611   5.208   7.145 -0.1270 -2.1196 -1.1217
 1803TIP3   OH227043   0.725   2.146   8.072 -0.0311 -0.3376  0.3385
 1803TIP3    H127044   0.752   2.061   8.108 -2.0417 -0.6740  1.1949
 1803TIP3    H227045   0.712   2.201   8.149 -0.7857  0.0840 -0.0822
 1804TIP3   OH227046   0.430   4.445   0.051  0.1144 -0.5100 -0.0564
 1804TIP3    H127047   0.371   4.520   0.049  1.2186  0.4186  0.8045
 1804TIP3    H227048   0.398   4.390   0.123 -0.7296 -0.9337 -0.7270
 1805TIP3   OH227049   3.182   6.829   0.819  0.3728  0.3095  0.2610
 1805TIP3    H127050   3.141   6.915   0.821  0.6248  0.4822 -1.1489
 1805TIP3    H227051   3.160   6.790   0.904 -0.1104  1.5806  0.7426
 1806TIP3   OH227052   3.711   0.174   6.589  0.3532  0.1615 -0.3375
 1806TIP3    H127053   3.782   0.123   6.628  1.6042  0.3489 -2.2478
 1806TIP3    H227054   3.680   0.230   6.660 -1.0389 -3.0490  1.8531
 1807TIP3   OH227055   3.921   0.314   7.162 -0.5647 -0.1179  0.1002
 1807TIP3    H127056   3.891   0.340   7.250 -0.5087  0.8313 -0.1494
 1807TIP3    H227057   3.992   0.252   7.178  0.2669  0.9840  0.7440
 1808TIP3   OH227058   5.904   5.199   7.713 -0.2036  0.6209 -0.2400
 1808TIP3    H127059   5.878   5.256   7.641  1.5318  1.2484 -0.4274
 1808TIP3    H227060   5.957   5.131   7.671  1.2681  1.2914  0.4541
 1809TIP3   OH227061   5.580   6.759   6.852 -0.1565  0.1316  0.3034
 1809TIP3    H127062   5.514   6.717   6.797  0.9058 -0.5856 -0.4634
 1809TIP3    H227063   5.530   6.805   6.919 -1.4810  0.6809 -1.0078
 1810TIP3   OH227064   0.011   4.942   1.584  0.5103  0.8661 -0.1094
 1810TIP3    H127065   0.104   4.922   1.595  0.7669  1.0767 -1.6530
 1810TIP3    H227066   0.010   5.022   1.530 -0.5517 -0.1630 -1.6987
 1811TIP3   OH227067   1.638   6.677   1.640 -0.1607 -0.3677 -0.7165
 1811TIP3    H127068   1.602   6.692   1.727 -1.2150 -0.9803 -1.0356
 1811TIP3    H227069   1.603   6.592   1.613  1.2481 -0.8345 -1.1867
 1812TIP3   OH227070   2.450   1.340   0.529 -1.2264  0.0383 -0.7816
 1812TIP3    H127071   2.516   1.272   0.536 -2.3292 -0.9950 -0.0238
 1812TIP3    H227072   2.454   1.368   0.437  1.9692  1.8500 -0.2453
 1813TIP3   OH227073   0.918   3.975   7.001  0.1453  0.1641 -0.0934
 1813TIP3    H127074   1.009   3.995   7.023 -0.3582  1.6937  0.7958
 1813TIP3    H227075   0.915   3.972   6.906  1.3177 -0.9675 -0.1134
 1814TIP3   OH227076   0.618   6.220   7.806  0.3415 -0.3959  0.8965
 1814TIP3    H127077   0.578   6.297   7.847  0.6328 -0.8765  2.1526
 1814TIP3    H227078   0.673   6.255   7.736 -1.3085  0.3558 -0.0686
 1815TIP3   OH227079   1.492   0.896   8.011  0.3631 -0.3002  0.1647
 1815TIP3    H127080   1.435   0.908   7.935  1.2925  0.1244 -0.4908
 1815TIP3    H227081   1.534   0.981   8.023  0.7842 -0.5750  0.6885
 1816TIP3   OH227082   2.636   0.352   7.293  0.1414 -0.0177  0.2068
 1816TIP3    H127083   2.732   0.352   7.288  0.1907  2.0902  0.4773
 1816TIP3    H227084   2.608   0.389   7.210 -0.4352 -0.3094  0.2709
 1817TIP3   OH227085   6.708   2.476   1.947  0.3926 -0.4645  0.3249
 1817TIP3    H127086   6.775   2.504   1.885 -0.6888  0.7956 -0.3277
 1817TIP3    H227087   6.662   2.406   1.902 -0.0116  0.0496 -0.0853
 1818TIP3   OH227088   2.392   5.435   1.648 -0.0884 -0.2426 -0.5405
 1818TIP3    H127089   2.363   5.406   1.562  1.0702  2.1329 -1.8328
 1818TIP3    H227090   2.410   5.355   1.696 -2.5303 -1.6645 -1.8333
 1819TIP3   OH227091   3.957   0.772   6.429 -0.7183 -0.4108  0.0983
 1819TIP3    H127092   3.874   0.810   6.457  0.0590  1.7986 -0.3558
 1819TIP3    H227093   3.984   0.827   6.355  0.6912 -1.6648 -0.3587
 1820TIP3   OH227094   0.976   5.222   6.147 -0.2634 -0.4289  0.1068
 1820TIP3    H127095   1.048   5.246   6.089  0.3709  1.1439  1.4702
 1820TIP3    H227096   0.946   5.305   6.184 -2.5727 -1.0898 -0.1560
 1821TIP3   OH227097   6.834   0.662   1.721 -0.1591  0.5819 -0.1179
 1821TIP3    H127098   6.900   0.630   1.782  0.7664  2.7010  0.0853
 1821TIP3    H227099   6.752   0.657   1.771  0.7324  3.3987  1.9027
 1822TIP3   OH227100   1.116   2.059   8.149  0.1729 -0.0939 -0.2191
 1822TIP3    H127101   1.032   2.022   8.122 -0.0408  1.1095 -1.3416
 1822TIP3    H227102   1.166   2.066   8.067  1.2567 -0.4882  0.3859
 1823TIP3   OH227103   5.816   5.699   1.825  0.2078  0.0180 -0.5087
 1823TIP3    H127104   5.756   5.626   1.838 -0.9810  1.3786  2.3607
 1823TIP3    H227105   5.760   5.775   1.811  1.4008  0.5885 -2.6514
 1824TIP3   OH227106   1.760   0.406   7.129  0.2908 -0.1959 -0.3718
 1824TIP3    H127107   1.791   0.483   7.081 -0.3654 -0.1920 -0.8007
 1824TIP3    H227108   1.766   0.334   7.065  0.1060 -0.3338 -0.2360
 1825TIP3   OH227109   1.928   6.931   7.571 -0.2478  0.0260  0.1471
 1825TIP3    H127110   1.963   6.865   7.510 -0.8595  0.4314 -0.6655
 1825TIP3    H227111   2.005   6.968   7.612  0.0813 -2.0625  1.5784
 1826TIP3   OH227112   6.533   0.148   1.100  0.2220  0.2144  0.0601
 1826TIP3    H127113   6.451   0.139   1.149  0.4136  0.5975  0.4553
 1826TIP3    H227114   6.550   0.060   1.066  0.4680 -0.2332  1.2954
 1827TIP3   OH227115   6.670   1.341   0.668  0.2423  0.3395  0.2238
 1827TIP3    H127116   6.596   1.326   0.726  0.3867  0.4972  0.4495
 1827TIP3    H227117   6.747   1.322   0.722  0.3821  0.6459  0.1343
 1828TIP3   OH227118   1.780   3.982   8.013 -0.0541  0.0822  0.5734
 1828TIP3    H127119   1.689   3.953   8.016  0.2329 -0.9808 -0.3824
 1828TIP3    H227120   1.831   3.902   8.005  0.8255  0.7469 -1.1777
 1829TIP3   OH227121   5.607   1.888   1.233 -0.1055 -0.2540  0.1644
 1829TIP3    H127122   5.515   1.862   1.235  0.0030 -0.7636 -0.9568
 1829TIP3    H227123   5.627   1.902   1.141  0.7778  0.4813  0.4492
 1830TIP3   OH227124   3.163   4.157   6.420  0.2200 -0.1370  0.1780
 1830TIP3    H127125   3.119   4.228   6.372  1.2276  0.4570  0.1113
 1830TIP3    H227126   3.238   4.134   6.365  0.6359 -0.3651  0.8341
 1831TIP3   OH227127   6.834   0.332   0.850  0.1624 -0.3099 -0.2148
 1831TIP3    H127128   6.778   0.410   0.848  0.7847  0.1391 -1.2545
 1831TIP3    H227129   6.918   0.362   0.814  0.9434 -1.0688  0.9218
 1832TIP3   OH227130   3.076   1.891   2.038 -0.6948 -0.0572 -0.1804
 1832TIP3    H127131   3.118   1.825   1.983  1.6376 -0.7597  2.2663
 1832TIP3    H227132   3.091   1.861   2.128 -2.8500  1.9016  0.9483
 1833TIP3   OH227133   6.830   0.232   2.156 -0.1239  0.8324 -0.0981
 1833TIP3    H127134   6.788   0.146   2.150  0.3635  0.5866 -0.0277
 1833TIP3    H227135   6.839   0.261   2.066 -0.3856  0.8550 -0.1168
 1834TIP3   OH227136   3.957   5.904   6.994 -0.0219 -0.3094 -0.6740
 1834TIP3    H127137   3.933   5.991   7.025  0.5355 -0.5771  0.5396
 1834TIP3    H227138   3.934   5.905   6.901  0.1710  1.1984 -0.7316
 1835TIP3   OH227139   2.586   6.095   6.759 -0.8956 -0.0213  0.5313
 1835TIP3    H127140   2.668   6.133   6.730  0.6664 -1.6613  2.5061
 1835TIP3    H227141   2.576   6.125   6.850 -2.6859  0.4054  0.2472
 1836TIP3   OH227142   0.839   0.502   7.248  0.4164 -0.1441 -0.2958
 1836TIP3    H127143   0.821   0.495   7.341  0.8338  1.4757 -0.0647
 1836TIP3    H227144   0.801   0.586   7.222 -3.5777 -2.3343 -2.5602
 1837TIP3   OH227145   0.867   4.454   6.909 -0.2404  0.8871 -0.1064
 1837TIP3    H127146   0.952   4.416   6.931 -0.0690  1.4598  0.2340
 1837TIP3    H227147   0.853   4.522   6.974  0.5784  3.0784 -2.0612
 1838TIP3   OH227148   6.951   2.422   6.590  0.1313  0.5092 -0.5913
 1838TIP3    H127149   6.963   2.395   6.682  1.6160  0.1165 -0.8742
 1838TIP3    H227150   6.864   2.388   6.567 -1.4786  2.8867  1.4186
 1839TIP3   OH227151   6.012   5.122   7.232  0.1836  0.0082  0.2598
 1839TIP3    H127152   5.995   5.049   7.290  1.7616 -0.5204  0.1086
 1839TIP3    H227153   6.102   5.108   7.201  0.9186  2.5255  1.0094
 1840TIP3   OH227154   1.161   1.151   1.754 -0.3775  0.2051  0.0616
 1840TIP3    H127155   1.229   1.102   1.706 -0.5957  1.0324 -1.1342
 1840TIP3    H227156   1.092   1.086   1.770 -0.7473  0.1214 -1.6763
 1841TIP3   OH227157   1.313   4.541   8.270  0.0483  0.7579 -0.2318
 1841TIP3    H127158   1.381   4.475   8.254 -0.8880 -0.4103  0.4649
 1841TIP3    H227159   1.243   4.517   8.209 -1.5582 -0.7982  2.0788
 1842TIP3   OH227160   4.430   6.378   8.109  0.2548  0.5700  0.4419
 1842TIP3    H127161   4.385   6.339   8.034  0.3692  0.7543  0.2774
 1842TIP3    H227162   4.377   6.352   8.184 -0.9779  1.9978  0.1247
 1843TIP3   OH227163   1.016   1.796   7.150 -0.2767 -0.6839 -0.1906
 1843TIP3    H127164   1.018   1.854   7.073  0.9000 -0.1222  0.2414
 1843TIP3    H227165   0.931   1.814   7.191 -1.1620 -1.3933 -1.6397
 1844TIP3   OH227166   5.955   2.603   0.939  0.8335  0.1010  0.1550
 1844TIP3    H127167   5.959   2.511   0.914 -0.2241  0.2848 -0.8149
 1844TIP3    H227168   5.938   2.603   1.033 -0.8397 -0.7337 -0.1203
 1845TIP3   OH227169   1.004   5.378   7.526 -0.3899 -0.2356  0.1612
 1845TIP3    H127170   0.996   5.470   7.502 -0.7744 -0.3928 -0.3185
 1845TIP3    H227171   0.959   5.371   7.611 -5.2848 -0.9650 -2.1216
 1846TIP3   OH227172   3.415   3.286   0.214 -0.0334  0.0125  0.2290
 1846TIP3    H127173   3.427   3.265   0.307 -1.4851  0.5607  0.5609
 1846TIP3    H227174   3.471   3.363   0.200  0.1144 -0.0095  0.6668
 1847TIP3   OH227175   1.587   0.716   7.064 -0.0704  0.6216 -0.0216
 1847TIP3    H127176   1.537   0.796   7.078  0.1061  0.6320  0.5440
 1847TIP3    H227177   1.577   0.666   7.145 -0.6172 -0.1698 -0.5563
 1848TIP3   OH227178   5.255   0.210   6.896  0.1301  0.7387 -0.3628
 1848TIP3    H127179   5.336   0.215   6.947 -0.5821 -1.9009  1.2169
 1848TIP3    H227180   5.194   0.269   6.942 -0.5841 -1.7940  2.2368
 1849TIP3   OH227181   0.323   0.611   1.219  0.4096 -0.0820 -0.3038
 1849TIP3    H127182   0.406   0.658   1.213 -0.2690  1.0573 -1.0180
 1849TIP3    H227183   0.314   0.590   1.312  1.4677 -0.1755 -0.2123
 1850TIP3   OH227184   6.139   1.057   2.126  0.4415  0.1118  0.4836
 1850TIP3    H127185   6.129   1.126   2.191 -0.4585  1.4343 -0.9921
 1850TIP3    H227186   6.213   1.006   2.157  1.5813  2.1386  1.2907
 1851TIP3   OH227187   1.172   5.358   6.018  0.1274  0.0982 -0.4751
 1851TIP3    H127188   1.125   5.414   5.956 -1.8777  0.8810  1.6147
 1851TIP3    H227189   1.247   5.412   6.046 -0.1523  0.5797 -0.6378
 1852TIP3   OH227190   2.177   1.766   0.248 -0.2134  0.2827  0.0173
 1852TIP3    H127191   2.160   1.707   0.175 -0.6548  0.3011  0.1072
 1852TIP3    H227192   2.182   1.709   0.324 -0.7433  0.3691  0.1197
 1853TIP3   OH227193   3.479   2.543   8.174 -0.2944  0.7006  0.1504
 1853TIP3    H127194   3.438   2.475   8.228 -1.5859  2.2409  1.2188
 1853TIP3    H227195   3.535   2.495   8.114 -0.6563 -1.2622  1.2776
 1854TIP3   OH227196   1.740   3.674   6.249  0.3239 -0.1732  0.3243
 1854TIP3    H127197   1.794   3.607   6.207 -0.8932 -1.2396  0.4156
 1854TIP3    H227198   1.686   3.710   6.179  0.7806  0.5596  0.3275
 1855TIP3   OH227199   7.029   1.988   0.550 -0.3392  0.0353 -0.2190
 1855TIP3    H127200   7.111   1.940   0.561  0.1155  0.7189 -0.5459
 1855TIP3    H227201   7.034   2.058   0.615 -2.2304 -1.9137  2.2288
 1856TIP3   OH227202   1.695   3.637   0.207  0.1257 -0.0908  0.2657
 1856TIP3    H127203   1.691   3.553   0.253 -0.7552 -1.7229 -2.5107
 1856TIP3    H227204   1.617   3.684   0.235  0.6174 -0.1720  1.8416
 1857TIP3   OH227205   1.682   1.745   1.870 -0.3790 -0.1118  0.3153
 1857TIP3    H127206   1.719   1.672   1.920 -2.2574 -0.4725  1.2743
 1857TIP3    H227207   1.623   1.788   1.932 -0.8749  0.9621 -0.8730
 1858TIP3   OH227208   6.650   3.066   5.928 -0.1755  0.1957 -0.2794
 1858TIP3    H127209   6.594   3.144   5.927 -2.0317 -1.0606  0.9596
 1858TIP3    H227210   6.716   3.084   5.860 -0.6815  2.7114 -0.2142
 1859TIP3   OH227211   6.751   3.400   2.151  0.4331  0.3089 -0.2355
 1859TIP3    H127212   6.804   3.443   2.084 -1.5740  1.2052 -1.3081
 1859TIP3    H227213   6.728   3.470   2.212  0.2438 -0.0249  0.0784
 1860TIP3   OH227214   0.688   4.139   1.832 -0.0716 -0.4164 -0.0774
 1860TIP3    H127215   0.746   4.082   1.883  1.2054  0.2373 -0.7384
 1860TIP3    H227216   0.668   4.211   1.891 -3.6112 -2.5366  1.6238
 1861TIP3   OH227217   0.823   2.348   6.338 -1.1197 -0.2454 -0.2444
 1861TIP3    H127218   0.765   2.395   6.278 -0.1357  1.4705  0.0974
 1861TIP3    H227219   0.856   2.415   6.398  0.4250 -1.3376  0.1938
 1862TIP3   OH227220   3.565   0.771   6.990  0.3713 -0.0427 -0.0958
 1862TIP3    H127221   3.622   0.772   7.067 -0.1723  0.4707  0.3136
 1862TIP3    H227222   3.555   0.679   6.969 -1.3236 -0.3909  1.8693
 1863TIP3   OH227223   5.021   2.283   0.840 -0.6465  0.4680 -0.4878
 1863TIP3    H127224   5.001   2.194   0.869 -0.8644  1.0583  1.2807
 1863TIP3    H227225   4.952   2.337   0.877 -1.4473  1.2359 -2.8761
 1864TIP3   OH227226   1.155   2.570   1.441 -1.2881 -0.8914  0.1814
 1864TIP3    H127227   1.235   2.622   1.431 -1.0750 -1.4321 -1.1314
 1864TIP3    H227228   1.185   2.485   1.471 -1.4682 -0.8055  0.6114
 1865TIP3   OH227229   2.089   3.520   7.324  0.3884 -0.4338  1.1216
 1865TIP3    H127230   2.037   3.572   7.385 -0.0753  2.6300 -1.5696
 1865TIP3    H227231   2.028   3.454   7.291 -0.8120  0.9148  0.5432
 1866TIP3   OH227232   6.453   2.177   0.115  0.1792 -0.8081 -1.0845
 1866TIP3    H127233   6.429   2.184   0.207  0.2151  0.4365 -1.1473
 1866TIP3    H227234   6.374   2.142   0.072 -0.6257  0.6811 -0.8867
 1867TIP3   OH227235   3.046   0.738   1.371 -0.5066 -0.1801 -0.1262
 1867TIP3    H127236   3.041   0.811   1.433 -1.2958 -0.0894 -0.2917
 1867TIP3    H227237   2.992   0.766   1.297  1.5205  0.3326 -1.5148
 1868TIP3   OH227238   2.473   0.337   0.048  0.0704 -0.6101  0.2059
 1868TIP3    H127239   2.400   0.394   0.070 -0.4792 -0.9318 -0.7444
 1868TIP3    H227240   2.475   0.335  -0.048  0.0796 -2.1785  0.2186
 1869TIP3   OH227241   4.484   4.735   0.517  0.4108 -0.0866  0.2297
 1869TIP3    H127242   4.545   4.754   0.589  1.0787 -0.2070 -0.2895
 1869TIP3    H227243   4.398   4.736   0.557  0.7546  0.1423  0.9769
 1870TIP3   OH227244   6.930   4.381   1.184  0.1976 -0.0598 -0.2987
 1870TIP3    H127245   6.974   4.347   1.261  0.3186 -2.1681 -1.2337
 1870TIP3    H227246   6.869   4.446   1.218  1.1396 -0.0188  1.4243
 1871TIP3   OH227247   1.739   2.521   5.871 -0.1736  0.2126 -0.3621
 1871TIP3    H127248   1.674   2.485   5.811  0.5853  0.1815 -1.1806
 1871TIP3    H227249   1.731   2.616   5.860  0.1549  0.2020 -0.7369
 1872TIP3   OH227250   1.555   0.632   0.698  0.3663 -0.5492  0.2254
 1872TIP3    H127251   1.621   0.700   0.686 -0.4078 -0.0187 -1.3057
 1872TIP3    H227252   1.512   0.626   0.612 -1.2903 -1.1513  1.0686
 1873TIP3   OH227253   2.506   4.670   0.453 -0.1619  0.6958  0.4033
 1873TIP3    H127254   2.581   4.714   0.413 -0.7250  2.6559  1.3783
 1873TIP3    H227255   2.522   4.677   0.547 -0.0518 -1.6740  0.6034
 1874TIP3   OH227256   0.260   6.280   1.272 -0.2880  0.0867 -0.6016
 1874TIP3    H127257   0.341   6.307   1.229  0.6008 -2.1636 -0.4348
 1874TIP3    H227258   0.205   6.247   1.201 -0.0312 -0.7902 -0.3951
 1875TIP3   OH227259   0.299   6.947   7.250  0.0839  0.0942 -0.0596
 1875TIP3    H127260   0.371   6.895   7.214 -1.3874 -0.6646 -2.0789
 1875TIP3    H227261   0.241   6.883   7.291  0.1319  0.5982  0.8106
 1876TIP3   OH227262   5.524   3.038   8.174 -0.4086 -0.1592  0.4642
 1876TIP3    H127263   5.564   3.098   8.237 -0.0492  0.3316 -0.2228
 1876TIP3    H227264   5.491   3.095   8.104  0.4327 -0.7987 -0.4760
 1877TIP3   OH227265   5.401   7.027   8.263  0.3690 -0.3192 -0.1788
 1877TIP3    H127266   5.494   7.041   8.279  0.1712  1.5004 -0.4150
 1877TIP3    H227267   5.393   6.933   8.248  1.9493 -0.7393  1.2304
 1878TIP3   OH227268   6.527   1.329   7.793  0.3505 -0.1636  0.0211
 1878TIP3    H127269   6.435   1.305   7.781  0.3203  0.2946 -0.7464
 1878TIP3    H227270   6.528   1.424   7.786  1.1065 -0.2547 -1.7705
 1879TIP3   OH227271   3.357   1.267   8.172 -0.8872 -0.3113 -0.4038
 1879TIP3    H127272   3.409   1.187   8.170 -2.4937 -1.4527  0.8108
 1879TIP3    H227273   3.416   1.332   8.211  0.1082 -1.1534 -0.4429
 1880TIP3   OH227274   5.164   0.534   0.865 -0.3965  1.1606 -0.4429
 1880TIP3    H127275   5.197   0.569   0.948  0.3114 -0.4617 -0.0122
 1880TIP3    H227276   5.227   0.565   0.800  0.8474 -0.1756  0.0871
 1881TIP3   OH227277   3.534   1.220   7.916  0.1229  0.0280 -0.1299
 1881TIP3    H127278   3.472   1.177   7.857 -1.6494 -0.2680  1.8096
 1881TIP3    H227279   3.526   1.172   7.998  1.4728  1.2396  0.7618
 1882TIP3   OH227280   1.240   2.995   0.664  0.0367 -0.1734  0.0178
 1882TIP3    H127281   1.279   3.023   0.746 -0.0670 -1.2860  0.4717
 1882TIP3    H227282   1.259   3.065   0.602  0.5777  0.4298  0.8578
 1883TIP3   OH227283   0.835   6.615   7.161  0.0094  0.2351 -0.4237
 1883TIP3    H127284   0.899   6.657   7.218  0.6667 -1.7456  0.3906
 1883TIP3    H227285   0.758   6.602   7.216 -0.8635  1.9573 -1.1930
 1884TIP3   OH227286   0.628   1.708   7.347 -0.3772 -0.4543  0.0053
 1884TIP3    H127287   0.554   1.649   7.333 -0.7440 -0.1528  0.6593
 1884TIP3    H227288   0.603   1.789   7.301 -0.9210  0.0118  1.0991
 1885TIP3   OH227289   6.835   0.517   6.851 -0.4835 -0.0762  0.4258
 1885TIP3    H127290   6.866   0.529   6.941 -0.5468  0.7835  0.3453
 1885TIP3    H227291   6.773   0.589   6.837  1.6591  1.6231 -1.2217
 1886TIP3   OH227292   1.158   6.680   5.681  0.3278 -0.4105  0.1736
 1886TIP3    H127293   1.144   6.724   5.597  0.0152  0.6898  0.7901
 1886TIP3    H227294   1.167   6.751   5.745  0.2314 -1.2359  1.1338
 1887TIP3   OH227295   2.298   2.348   6.898 -0.4940  0.0529  0.3911
 1887TIP3    H127296   2.273   2.305   6.815  0.3674 -1.4874  0.8870
 1887TIP3    H227297   2.273   2.285   6.965 -3.8077  2.4106  1.6222
 1888TIP3   OH227298   5.638   6.365   8.093 -0.2957 -0.2955  0.6829
 1888TIP3    H127299   5.595   6.450   8.088 -0.0183 -0.2215 -1.0032
 1888TIP3    H227300   5.623   6.335   8.183 -1.0138  1.1970  1.0801
 1889TIP3   OH227301   1.308   1.442   7.334  0.2848 -0.1707 -1.1687
 1889TIP3    H127302   1.234   1.464   7.278 -0.4503  1.5404  0.3475
 1889TIP3    H227303   1.331   1.525   7.377  2.4057 -0.8767 -0.7948
 1890TIP3   OH227304   2.294   3.792   8.182  0.2283 -0.4058 -0.6221
 1890TIP3    H127305   2.224   3.742   8.224 -1.0157  1.0797 -0.8743
 1890TIP3    H227306   2.255   3.877   8.163  2.5197  0.9748  0.5128
 1891TIP3   OH227307   3.312   6.193   8.255  0.2599  0.3716  0.4370
 1891TIP3    H127308   3.319   6.241   8.337 -1.2394  1.5922 -0.1161
 1891TIP3    H227309   3.220   6.200   8.231  0.9696  1.5604 -2.2387
 1892TIP3   OH227310   1.394   3.990   7.282 -0.2549  0.3349  0.3728
 1892TIP3    H127311   1.434   4.000   7.196 -0.8686  1.8437  0.2373
 1892TIP3    H227312   1.327   3.922   7.270 -0.3297  0.5284 -0.3364
 1893TIP3   OH227313   5.152   1.099   6.795  0.3840 -0.0600  0.2860
 1893TIP3    H127314   5.062   1.108   6.765 -0.0965 -1.0135  1.3469
 1893TIP3    H227315   5.159   1.158   6.870  0.4149 -0.5237  0.6525
 1894TIP3   OH227316   1.637   2.295   1.106 -0.3852 -0.0896 -0.0156
 1894TIP3    H127317   1.612   2.357   1.174 -2.7380 -2.9396  1.9720
 1894TIP3    H227318   1.701   2.238   1.149  0.8721  0.1896 -1.4258
 1895TIP3   OH227319   7.030   6.346   0.918  0.2809 -0.5256  0.4840
 1895TIP3    H127320   6.941   6.360   0.952 -0.4152 -1.2133 -0.9453
 1895TIP3    H227321   7.064   6.434   0.902 -0.5657 -0.2697  0.0412
 1896TIP3   OH227322   0.539   6.064   2.159  0.4993  0.1767  0.4400
 1896TIP3    H127323   0.589   6.072   2.240  2.6348  1.3832 -0.8951
 1896TIP3    H227324   0.529   6.155   2.129  1.0160 -0.3107 -1.3343
 1897TIP3   OH227325   3.413   2.036   0.165  0.2120 -0.3870 -0.3147
 1897TIP3    H127326   3.332   2.013   0.120 -0.4399  0.2287  0.5196
 1897TIP3    H227327   3.385   2.083   0.244  1.3888  0.2161 -0.2302
 1898TIP3   OH227328   6.370   3.747   0.131 -0.2360  0.2765  0.3600
 1898TIP3    H127329   6.400   3.686   0.199 -1.9324 -1.5628 -0.4567
 1898TIP3    H227330   6.345   3.691   0.058  0.7222  2.1610 -1.5151
 1899TIP3   OH227331   0.971   5.973   6.409 -0.0470  0.4271  0.1776
 1899TIP3    H127332   0.934   5.942   6.325 -2.0491  1.6367  0.5450
 1899TIP3    H227333   0.988   5.892   6.458 -3.2094 -0.3070  0.3198
 1900TIP3   OH227334   2.249   5.361   6.601 -0.2402  0.0480 -0.5398
 1900TIP3    H127335   2.241   5.408   6.518  2.6515  0.7896 -0.5057
 1900TIP3    H227336   2.285   5.275   6.577 -0.9485 -0.3722 -0.1582
 1901TIP3   OH227337   5.114   1.244   6.524 -0.1446  0.1945  0.2646
 1901TIP3    H127338   5.051   1.214   6.458  1.0504 -0.1796 -0.7406
 1901TIP3    H227339   5.146   1.164   6.565  0.1241  0.3427  0.3449
 1902TIP3   OH227340   4.473   1.863   6.336  0.2383  0.4200  0.0162
 1902TIP3    H127341   4.516   1.812   6.267  0.7757 -0.7569  1.1658
 1902TIP3    H227342   4.505   1.824   6.417  0.0023  2.0858  0.9480
 1903TIP3   OH227343   3.869   1.063   1.591  0.6743 -0.7023  0.7389
 1903TIP3    H127344   3.891   1.020   1.674  1.7547 -1.8294 -0.0894
 1903TIP3    H227345   3.948   1.054   1.538  0.6940  1.7126  0.2405
 1904TIP3   OH227346   5.488   3.782   7.248 -0.4023 -0.6175 -0.1381
 1904TIP3    H127347   5.562   3.786   7.188 -2.3287  0.8384 -2.6083
 1904TIP3    H227348   5.434   3.710   7.215 -0.7610 -0.8148  0.8322
 1905TIP3   OH227349   6.878   5.849   0.193 -0.0546 -0.0684 -0.0552
 1905TIP3    H127350   6.830   5.932   0.190 -1.8230 -1.0307  0.2066
 1905TIP3    H227351   6.836   5.800   0.263  3.1944  0.0674  2.2558
 1906TIP3   OH227352   2.252   0.207   1.075  0.6138 -0.4428  0.4842
 1906TIP3    H127353   2.221   0.130   1.028 -2.5354  0.0905  1.4676
 1906TIP3    H227354   2.226   0.193   1.166  2.3644  0.6425  1.2131
 1907TIP3   OH227355   3.201   6.712   6.135  0.1329 -0.0816 -0.4058
 1907TIP3    H127356   3.202   6.772   6.061 -0.6652  1.7944  1.0331
 1907TIP3    H227357   3.292   6.710   6.164  0.2970 -0.1632 -0.9122
 1908TIP3   OH227358   3.664   2.333   0.182 -0.3132  0.2779 -0.3858
 1908TIP3    H127359   3.657   2.274   0.257  1.1461 -1.0873 -1.2570
 1908TIP3    H227360   3.754   2.321   0.151 -0.6883  1.2796 -1.9613
 1909TIP3   OH227361   0.631   0.412   1.145  0.1250  0.2724  0.2531
 1909TIP3    H127362   0.684   0.334   1.132 -0.8506 -0.7394  1.9213
 1909TIP3    H227363   0.586   0.426   1.061  1.0745 -0.3436 -0.3647
 1910TIP3   OH227364   6.098   5.932   6.962 -0.7412  0.1477  0.8267
 1910TIP3    H127365   6.004   5.923   6.979 -0.9717 -1.0531 -0.7906
 1910TIP3    H227366   6.119   5.857   6.907  1.4933 -0.3750  2.2881
 1911TIP3   OH227367   5.541   5.553   6.652  0.8545 -0.3976  0.0808
 1911TIP3    H127368   5.470   5.498   6.683  0.1067 -0.1834 -1.1683
 1911TIP3    H227369   5.506   5.642   6.656  1.5456 -0.1510  0.7430
 1912TIP3   OH227370   4.544   5.167   1.031  0.1529  0.3289 -0.4644
 1912TIP3    H127371   4.478   5.208   0.974 -0.3430 -0.7221 -0.6746
 1912TIP3    H227372   4.502   5.086   1.061  1.2778 -0.2673 -0.4552
 1913TIP3   OH227373   4.506   6.601   5.998 -0.1144  0.1162  0.7254
 1913TIP3    H127374   4.539   6.684   6.032  2.4970 -0.6020  0.1415
 1913TIP3    H227375   4.513   6.540   6.072 -1.6179  0.2498  1.0229
 1914TIP3   OH227376   1.031   1.767   1.708 -0.1315 -0.5547  0.2129
 1914TIP3    H127377   1.036   1.678   1.740 -0.1819 -0.4500  0.5118
 1914TIP3    H227378   1.026   1.758   1.613 -2.0989 -0.9621  0.3030
 1915TIP3   OH227379   3.046   4.509   0.286 -0.1428  0.4472 -0.2325
 1915TIP3    H127380   3.115   4.539   0.346  0.0973  0.2014 -0.3828
 1915TIP3    H227381   3.094   4.464   0.216 -0.2033  2.5880 -1.7702
 1916TIP3   OH227382   6.721   4.035   8.215 -0.3447 -0.2810 -0.0677
 1916TIP3    H127383   6.816   4.032   8.228 -0.6086 -3.0443  2.3089
 1916TIP3    H227384   6.689   4.093   8.285 -0.4972 -0.4818  0.0301
 1917TIP3   OH227385   6.639   2.196   2.342 -0.1709  0.8560 -0.1690
 1917TIP3    H127386   6.662   2.128   2.279  0.1686  0.3384  0.5154
 1917TIP3    H227387   6.662   2.278   2.297 -0.0524  0.4978 -0.7708
 1918TIP3   OH227388   2.296   2.212   2.247 -0.0614 -0.2729  0.0532
 1918TIP3    H127389   2.372   2.269   2.259 -0.9244  1.1451 -0.9578
 1918TIP3    H227390   2.330   2.123   2.262  2.5009 -0.0033 -3.0150
 1919TIP3   OH227391   4.807   6.450   0.356 -0.0973 -0.0675 -0.0478
 1919TIP3    H127392   4.806   6.401   0.274  0.3181  2.9135 -1.9999
 1919TIP3    H227393   4.840   6.388   0.421  0.0242 -2.4121 -2.1984
 1920TIP3   OH227394   1.615   3.146   1.536 -0.4994  0.0834  0.2672
 1920TIP3    H127395   1.552   3.152   1.608  0.0792 -0.0521  0.7919
 1920TIP3    H227396   1.684   3.089   1.570 -0.5977 -0.6204 -0.6839
 1921TIP3   OH227397   5.191   4.744   5.961  0.2925 -0.3812 -0.2639
 1921TIP3    H127398   5.106   4.752   5.917  0.7952 -0.3990 -1.2727
 1921TIP3    H227399   5.169   4.717   6.051 -0.8453  1.2339 -0.0181
 1922TIP3   OH227400   2.832   4.600   7.463  0.0740  0.1718 -0.5212
 1922TIP3    H127401   2.904   4.638   7.513 -0.0306  0.1629 -0.3640
 1922TIP3    H227402   2.846   4.632   7.373  0.4128 -0.0269 -0.5449
 1923TIP3   OH227403   6.937   3.536   2.038 -0.4809 -0.0739 -0.3211
 1923TIP3    H127404   6.989   3.496   1.968 -0.1343 -0.4160  0.1271
 1923TIP3    H227405   6.999   3.588   2.088 -0.7626  0.3095 -0.3589
 1924TIP3   OH227406   1.109   0.319   7.856 -1.0855 -0.0107  0.0116
 1924TIP3    H127407   1.020   0.347   7.880 -1.4912  0.5364 -1.9099
 1924TIP3    H227408   1.129   0.370   7.777  0.8636 -0.2894  0.2928
 1925TIP3   OH227409   0.745   5.192   1.480  0.1112 -0.0835  0.3346
 1925TIP3    H127410   0.838   5.182   1.460  0.3215  2.6882 -0.5925
 1925TIP3    H227411   0.741   5.196   1.575  0.8715 -0.6245  0.4011
 1926TIP3   OH227412   5.121   4.314   1.048  0.4704 -0.0189  0.5218
 1926TIP3    H127413   5.113   4.269   0.964  0.9028  0.3949  0.2577
 1926TIP3    H227414   5.212   4.342   1.052  0.2928  0.5172  0.8517
 1927TIP3   OH227415   2.298   5.601   5.993 -0.0743 -0.6488 -0.2256
 1927TIP3    H127416   2.274   5.580   5.903  0.6796 -2.2736 -0.0767
 1927TIP3    H227417   2.231   5.557   6.046  0.9496 -1.8825  0.0692
 1928TIP3   OH227418   0.649   1.733   8.051  0.6067  0.0883  0.3396
 1928TIP3    H127419   0.659   1.673   7.977 -4.8012 -0.3368 -0.4215
 1928TIP3    H227420   0.627   1.676   8.125 -4.0196  0.7053 -0.2666
 1929TIP3   OH227421   1.709   4.830   7.577 -0.4033  0.6494 -0.0859
 1929TIP3    H127422   1.714   4.851   7.483 -0.6536 -0.2445 -0.3098
 1929TIP3    H227423   1.744   4.908   7.620  1.5362  0.3550 -1.0058
 1930TIP3   OH227424   5.536   6.322   0.300 -0.2766 -1.1991 -0.3359
 1930TIP3    H127425   5.488   6.398   0.333  1.4672 -0.0885 -0.2178
 1930TIP3    H227426   5.624   6.332   0.336 -0.1836 -3.7161  0.3025
 1931TIP3   OH227427   0.064   3.809   6.029 -0.3823 -0.3565  0.3444
 1931TIP3    H127428   0.043   3.717   6.046 -0.8789 -0.6091 -1.4136
 1931TIP3    H227429   0.154   3.819   6.061  0.2729 -1.9091 -0.8713
 1932TIP3   OH227430   5.622   0.408   2.087  0.1885  0.0196  0.5328
 1932TIP3    H127431   5.681   0.472   2.126 -0.7891  2.3146 -1.5263
 1932TIP3    H227432   5.535   0.437   2.112 -0.3872  0.7741 -2.0764
 1933TIP3   OH227433   0.193   2.382   0.262  0.5939 -0.3355 -0.5458
 1933TIP3    H127434   0.283   2.395   0.292  1.2825 -2.7545 -1.3693
 1933TIP3    H227435   0.158   2.315   0.321 -0.3264 -0.1477 -0.8705
 1934TIP3   OH227436   6.920   3.218   1.578 -0.5491  0.2595 -0.9151
 1934TIP3    H127437   6.935   3.153   1.646  2.1799  0.4043 -1.2538
 1934TIP3    H227438   6.879   3.291   1.623  0.8155  0.1942  0.5477
 1935TIP3   OH227439   3.776   5.247   2.375 -0.1636 -0.1800  0.6125
 1935TIP3    H127440   3.752   5.223   2.464 -0.2157  0.5207  0.7960
 1935TIP3    H227441   3.759   5.169   2.323 -1.4042 -0.1867  0.9963
 1936TIP3   OH227442   0.364   4.417   0.324  0.2262  1.0010 -0.2089
 1936TIP3    H127443   0.383   4.326   0.301 -0.6417  0.4916  0.9971
 1936TIP3    H227444   0.372   4.419   0.419 -0.2011  2.0927 -0.1923
 1937TIP3   OH227445   0.296   3.006   0.533  0.3799  0.1968 -0.1901
 1937TIP3    H127446   0.224   3.047   0.582  0.1456  1.2588 -1.3572
 1937TIP3    H227447   0.367   3.069   0.538  0.7259 -0.1824 -0.2987
 1938TIP3   OH227448   1.594   4.704   0.398  0.0528  0.3470  0.1195
 1938TIP3    H127449   1.638   4.767   0.455  0.8452 -0.8680  0.9071
 1938TIP3    H227450   1.503   4.734   0.396  0.1033  0.7019  1.6640
 1939TIP3   OH227451   0.990   4.962   7.258 -0.0192 -0.2014 -0.0364
 1939TIP3    H127452   1.011   5.024   7.328  0.9844 -0.0423 -0.4545
 1939TIP3    H227453   0.978   5.017   7.181  1.5240 -0.5321 -0.5544
 1940TIP3   OH227454   2.670   4.525   0.790  0.8422 -0.4162 -0.6331
 1940TIP3    H127455   2.684   4.447   0.843  1.8397 -0.5647 -1.0921
 1940TIP3    H227456   2.581   4.554   0.813  0.9053 -0.9990  0.4118
 1941TIP3   OH227457   1.640   1.391   8.039  0.0954  0.5791  0.7901
 1941TIP3    H127458   1.601   1.450   7.974 -0.8029  0.4308  1.1808
 1941TIP3    H227459   1.634   1.438   8.122  0.0130  0.2289  0.9858
 1942TIP3   OH227460   2.374   3.383   7.281 -0.1970 -0.1449  0.3840
 1942TIP3    H127461   2.438   3.377   7.353 -0.6420 -3.1213  0.6688
 1942TIP3    H227462   2.315   3.454   7.307  1.8059  1.3605  1.0660
 1943TIP3   OH227463   6.857   2.088   7.843 -0.0060 -0.0361 -0.1914
 1943TIP3    H127464   6.939   2.076   7.795  0.0387  2.1135 -0.7453
 1943TIP3    H227465   6.880   2.075   7.935  1.2305  1.5327 -0.2336
 1944TIP3   OH227466   2.114   4.559   7.491 -0.6171  0.2435  0.3303
 1944TIP3    H127467   2.018   4.563   7.483 -0.6281 -0.3010  0.1573
 1944TIP3    H227468   2.131   4.577   7.583 -0.8292  1.2229  0.1933
 1945TIP3   OH227469   4.593   5.009   7.209  0.6631 -0.0561  0.6174
 1945TIP3    H127470   4.511   5.047   7.241  0.9239  0.0870  1.1421
 1945TIP3    H227471   4.649   5.007   7.287  0.2247 -2.7412  0.9338
 1946TIP3   OH227472   2.767   2.214   1.832  0.9476 -0.1208 -0.7851
 1946TIP3    H127473   2.682   2.216   1.789  0.3619 -1.2034  0.2673
 1946TIP3    H227474   2.777   2.302   1.868 -0.7747 -0.5706  0.9606
 1947TIP3   OH227475   3.090   4.663   6.460  0.3255 -0.2729 -0.4410
 1947TIP3    H127476   3.104   4.752   6.427  3.7936 -1.3429 -2.2883
 1947TIP3    H227477   3.090   4.608   6.382  3.5398 -2.3626  0.8480
 1948TIP3   OH227478   0.820   3.086   0.555 -0.4256  0.4501  0.0279
 1948TIP3    H127479   0.862   3.015   0.603 -0.9009  0.0769 -0.1111
 1948TIP3    H227480   0.728   3.061   0.548 -0.8586  1.6527  1.0561
 1949TIP3   OH227481   0.656   5.018   7.085  0.3786  0.3718  0.0268
 1949TIP3    H127482   0.749   5.010   7.064  0.8267  1.2463  1.5004
 1949TIP3    H227483   0.628   4.929   7.106  1.8179  0.4713  2.9511
 1950TIP3   OH227484   0.827   4.468   5.852 -0.0557 -0.0540 -0.5311
 1950TIP3    H127485   0.739   4.433   5.842  0.3692 -1.8964  1.3303
 1950TIP3    H227486   0.884   4.393   5.836  1.2392  1.1864 -2.0755
 1951TIP3   OH227487   4.089   0.113   7.274  0.5007 -0.0612 -0.1034
 1951TIP3    H127488   4.129   0.197   7.297 -0.1460  0.2567 -0.0888
 1951TIP3    H227489   4.126   0.050   7.335  2.1175 -0.0805 -1.0619
 1952TIP3   OH227490   3.939   1.226   0.192 -0.6460  0.4058 -0.6318
 1952TIP3    H127491   3.919   1.203   0.282  0.3654  0.7594 -0.3046
 1952TIP3    H227492   3.922   1.320   0.186 -3.5503 -0.0767 -1.6293
 1953TIP3   OH227493   6.887   5.933   0.549 -0.4708 -0.0532  0.0083
 1953TIP3    H127494   6.879   5.840   0.527 -0.0929 -0.1923  0.4225
 1953TIP3    H227495   6.971   5.938   0.595 -0.8768  0.3509  0.7212
 1954TIP3   OH227496   3.798   6.131   0.865 -0.2606  0.5296  0.2591
 1954TIP3    H127497   3.740   6.169   0.800 -0.1413  0.6727  0.2354
 1954TIP3    H227498   3.886   6.158   0.839 -0.1911  0.4046  0.3550
 1955TIP3   OH227499   0.594   0.061   1.452 -0.3192  0.1605 -0.1035
 1955TIP3    H127500   0.555   0.039   1.537  1.0130 -1.2666  0.1975
 1955TIP3    H227501   0.556   0.145   1.429 -0.2046  0.9518  2.2530
 1956TIP3   OH227502   6.785   2.380   0.964 -0.1001  0.0073  0.1473
 1956TIP3    H127503   6.806   2.365   1.056  2.4763 -1.3606 -0.5529
 1956TIP3    H227504   6.711   2.440   0.966 -0.3000 -0.1613  3.0947
 1957TIP3   OH227505   3.710   0.219   1.073  0.3320 -0.3360 -0.2912
 1957TIP3    H127506   3.615   0.208   1.071  0.4474 -1.2945 -1.3631
 1957TIP3    H227507   3.725   0.307   1.039 -0.1480 -0.4505 -0.8128
 1958TIP3   OH227508   6.159   4.211   7.631 -0.1267 -0.0619 -0.1583
 1958TIP3    H127509   6.195   4.226   7.718  0.7149 -3.3981  0.2133
 1958TIP3    H227510   6.235   4.211   7.573 -0.3947 -0.1113 -0.5173
 1959TIP3   OH227511   5.735   6.347   1.466  0.8175 -0.3516 -0.2459
 1959TIP3    H127512   5.681   6.341   1.545  0.3564  0.4613 -0.4963
 1959TIP3    H227513   5.673   6.343   1.394  1.2651 -1.4371 -0.5922
 1960TIP3   OH227514   2.462   0.073   0.158  0.1344  0.0098 -0.3784
 1960TIP3    H127515   2.417   0.090   0.241  0.0812 -0.2949 -0.3453
 1960TIP3    H227516   2.487   0.160   0.127 -0.2608  0.1648 -0.2743
 1961TIP3   OH227517   0.874   5.402   1.991 -0.5386 -0.5224 -0.3113
 1961TIP3    H127518   0.873   5.457   1.913 -0.0880 -1.0601 -0.7039
 1961TIP3    H227519   0.961   5.361   1.991 -0.1085  0.3265  1.0773
 1962TIP3   OH227520   5.747   3.225   8.147 -0.3328 -0.1749 -0.3174
 1962TIP3    H127521   5.810   3.292   8.121  0.5440 -1.2729 -1.1339
 1962TIP3    H227522   5.752   3.223   8.243 -1.3393  1.7918 -0.1683
 1963TIP3   OH227523   2.251   4.072   8.136  0.0922  0.0125  0.1948
 1963TIP3    H127524   2.217   4.123   8.063  0.1110  0.2509  0.3548
 1963TIP3    H227525   2.209   4.108   8.213 -0.6800 -0.8745  0.2085
 1964TIP3   OH227526   4.265   0.089   1.006 -0.2686  0.0747  0.1340
 1964TIP3    H127527   4.245   0.066   0.915 -1.0918  2.2419 -0.2931
 1964TIP3    H227528   4.191   0.056   1.056  0.4910 -1.6957  0.1435
 1965TIP3   OH227529   3.807   5.724   1.921  0.3068  0.5469 -0.0979
 1965TIP3    H127530   3.741   5.792   1.938 -0.2938  0.1126 -0.6086
 1965TIP3    H227531   3.889   5.771   1.914 -0.3510  1.5065 -2.3875
 1966TIP3   OH227532   3.754   4.677   8.153 -0.2462 -0.2723  0.5549
 1966TIP3    H127533   3.769   4.665   8.247 -0.6469 -1.8803  0.4517
 1966TIP3    H227534   3.669   4.721   8.148  0.0924  0.4307  0.9623
 1967TIP3   OH227535   2.529   1.447   0.234 -0.5988 -0.4349  0.3823
 1967TIP3    H127536   2.529   1.539   0.207 -1.3084 -0.3124  0.7762
 1967TIP3    H227537   2.611   1.412   0.199 -0.9189  0.0200 -0.8855
 1968TIP3   OH227538   3.091   2.919   7.778  0.3215  0.4299 -0.9338
 1968TIP3    H127539   3.041   2.856   7.727  2.6062 -0.1129 -2.6421
 1968TIP3    H227540   3.057   3.004   7.752 -0.5344  0.0302 -1.1291
 1969TIP3   OH227541   1.453   6.793   1.437  0.4019 -0.1225  0.0500
 1969TIP3    H127542   1.513   6.842   1.380  0.7557  0.1912  0.6875
 1969TIP3    H227543   1.510   6.733   1.486  0.1210 -0.2581  0.2116
 1970TIP3   OH227544   1.432   5.732   6.995 -0.0659 -0.1569  0.0459
 1970TIP3    H127545   1.377   5.675   7.049  0.5413 -1.2036 -0.4237
 1970TIP3    H227546   1.451   5.680   6.917  1.5847  0.1875  0.1962
 1971TIP3   OH227547   2.086   3.746   0.288 -0.0581 -0.4348 -0.3331
 1971TIP3    H127548   2.154   3.807   0.259 -0.7962  1.6929  2.0159
 1971TIP3    H227549   2.131   3.685   0.346  0.3819 -1.1035 -1.3530
 1972TIP3   OH227550   3.682   3.812   8.020  0.0633 -0.6592 -0.2715
 1972TIP3    H127551   3.710   3.826   7.929 -1.9919 -2.3308 -1.2488
 1972TIP3    H227552   3.737   3.741   8.052 -0.6916 -1.5862 -0.9963
 1973TIP3   OH227553   0.184   1.321   6.555  0.1252  0.3154  0.1843
 1973TIP3    H127554   0.164   1.261   6.627  0.2114  0.2876  0.1846
 1973TIP3    H227555   0.170   1.268   6.476 -1.2921  0.7244  0.1332
 1974TIP3   OH227556   0.502   0.333   1.359 -0.0732 -0.2252  0.0149
 1974TIP3    H127557   0.482   0.413   1.409 -2.1526 -1.0981  0.6989
 1974TIP3    H227558   0.528   0.365   1.273  1.9093  1.2574  1.0689
 1975TIP3   OH227559   2.079   2.016   1.101  0.0556  0.3089  0.1683
 1975TIP3    H127560   1.998   1.967   1.115  0.6237 -0.5035  0.7542
 1975TIP3    H227561   2.137   1.987   1.172  0.8523  0.8799 -0.2295
 1976TIP3   OH227562   0.419   4.281   1.225 -0.0224  0.4456  0.3306
 1976TIP3    H127563   0.342   4.234   1.257 -1.0217  1.2318 -0.8267
 1976TIP3    H227564   0.491   4.249   1.280 -1.2325  0.0003  1.7244
 1977TIP3   OH227565   6.206   6.147   7.576  0.0405 -0.0816 -0.1044
 1977TIP3    H127566   6.258   6.071   7.551  1.9091  0.7436  1.1066
 1977TIP3    H227567   6.266   6.220   7.571 -1.8055  1.4310 -1.5816
 1978TIP3   OH227568   2.007   5.719   6.932  0.4704 -0.4326 -0.1149
 1978TIP3    H127569   1.924   5.715   6.883  0.3941 -1.8340  0.0697
 1978TIP3    H227570   2.017   5.811   6.955 -1.4561 -0.3325  0.5338
 1979TIP3   OH227571   4.300   2.971   0.396  0.0199  1.1009 -0.5597
 1979TIP3    H127572   4.367   3.023   0.351 -0.6296  2.5525  0.0813
 1979TIP3    H227573   4.324   2.976   0.489  0.1437 -0.0724 -0.5091
 1980TIP3   OH227574   2.019   5.554   0.530 -0.1103  0.3888  0.0675
 1980TIP3    H127575   2.004   5.648   0.527  0.8397  0.5816  0.8208
 1980TIP3    H227576   2.018   5.533   0.624 -0.1941 -0.3380 -0.0884
 1981TIP3   OH227577   0.337   2.242   7.014  0.1874  0.1934 -0.0775
 1981TIP3    H127578   0.256   2.207   7.051  0.0825  0.4990 -0.0125
 1981TIP3    H227579   0.310   2.277   6.929  0.5787 -1.2444 -0.8294
 1982TIP3   OH227580   6.717   6.967   7.929 -0.1896 -0.0874  0.1098
 1982TIP3    H127581   6.742   6.951   8.020  0.9842 -0.6766 -0.2944
 1982TIP3    H227582   6.741   6.887   7.884  0.6265  0.7350 -0.9774
 1983TIP3   OH227583   5.109   4.852   6.981 -0.2625  0.1163  0.5321
 1983TIP3    H127584   5.040   4.820   6.923 -1.3817  2.8516  0.1919
 1983TIP3    H227585   5.190   4.820   6.943 -1.1370 -0.2694 -1.0922
 1984TIP3   OH227586   4.326   2.843   2.211  0.3549 -0.1823 -0.3012
 1984TIP3    H127587   4.293   2.781   2.146 -0.2624  1.0991 -1.2778
 1984TIP3    H227588   4.261   2.914   2.211  0.5971  0.0715  1.3930
 1985TIP3   OH227589   5.826   4.927   1.219  0.2810 -0.3728  0.1226
 1985TIP3    H127590   5.794   5.003   1.171 -1.7686 -0.2547  1.5734
 1985TIP3    H227591   5.842   4.861   1.152  1.9514  1.2045 -1.1596
 1986TIP3   OH227592   1.542   2.135   7.963  0.1220  0.4271 -0.3501
 1986TIP3    H127593   1.628   2.119   7.924 -0.0377 -0.3102 -0.4213
 1986TIP3    H227594   1.549   2.099   8.052  0.5711  2.3328  0.4534
 1987TIP3   OH227595   6.411   5.982   7.527 -1.0001 -0.0877 -0.2911
 1987TIP3    H127596   6.488   6.039   7.524 -2.1850  1.5519 -1.2730
 1987TIP3    H227597   6.433   5.915   7.591  1.4908 -0.0613 -1.0209
 1988TIP3   OH227598   3.189   7.002   7.310  0.0509  0.2134  0.1895
 1988TIP3    H127599   3.128   6.937   7.274 -1.6724  1.1421  1.2958
 1988TIP3    H227600   3.143   7.085   7.302  1.1378  0.9354  1.1588
 1989TIP3   OH227601   0.333   4.322   0.832 -0.0461  0.1047  0.3610
 1989TIP3    H127602   0.280   4.263   0.885 -1.1210  0.9927  0.3074
 1989TIP3    H227603   0.381   4.375   0.896 -1.0354  0.9016  0.4624
 1990TIP3   OH227604   1.704   6.825   0.555 -0.0509 -0.3218  1.2408
 1990TIP3    H127605   1.723   6.739   0.591  1.0143 -0.3221  0.7086
 1990TIP3    H227606   1.713   6.885   0.629  1.0473 -0.4479  1.2131
 1991TIP3   OH227607   0.229   2.659   0.106  0.0860 -0.8376  0.3404
 1991TIP3    H127608   0.232   2.648   0.201  0.1235 -0.6379  0.3608
 1991TIP3    H227609   0.208   2.571   0.073  1.6863 -1.2805  0.4344
 1992TIP3   OH227610   0.441   0.565   1.518 -0.1192 -0.4350  0.5617
 1992TIP3    H127611   0.422   0.539   1.608 -2.0582  0.6319  0.5301
 1992TIP3    H227612   0.411   0.656   1.513 -1.5326 -0.9440 -1.5664
 1993TIP3   OH227613   5.437   4.683   1.149 -0.0193  0.4455 -0.4497
 1993TIP3    H127614   5.402   4.608   1.103 -0.4922  2.2873 -3.3273
 1993TIP3    H227615   5.370   4.705   1.215 -0.5285 -0.7468 -0.5577
 1994TIP3   OH227616   5.962   1.180   6.961  0.9139 -0.0700 -0.4273
 1994TIP3    H127617   5.988   1.250   6.901  2.9587 -1.4857 -1.3096
 1994TIP3    H227618   5.972   1.099   6.910 -0.1079 -1.1228  0.9574
 1995TIP3   OH227619   6.196   2.729   7.681 -0.6128 -0.7989 -0.5986
 1995TIP3    H127620   6.264   2.741   7.747 -1.1207 -0.0764 -0.1786
 1995TIP3    H227621   6.213   2.798   7.617 -0.7811 -0.7847 -0.6286
 1996TIP3   OH227622   4.825   4.877   6.562  0.5285 -0.0732 -0.2070
 1996TIP3    H127623   4.782   4.957   6.532 -1.7414 -1.4661 -0.9288
 1996TIP3    H227624   4.857   4.836   6.481 -1.0098 -1.3074 -0.2383
 1997TIP3   OH227625   2.686   4.909   0.361  0.5722 -0.1941 -0.3588
 1997TIP3    H127626   2.738   4.829   0.358 -1.4609 -1.5963 -0.4106
 1997TIP3    H227627   2.695   4.947   0.274  1.2824 -0.5538 -0.4463
 1998TIP3   OH227628   1.123   2.873   1.023  0.5919  0.5374 -0.5395
 1998TIP3    H127629   1.178   2.877   0.944 -0.0106  1.8042 -0.9239
 1998TIP3    H227630   1.184   2.889   1.095  0.8370  1.4063 -0.9184
 1999TIP3   OH227631   3.552   4.292   7.545 -0.3362  0.1141 -0.2957
 1999TIP3    H127632   3.539   4.326   7.457 -3.0838  0.1597  0.0319
 1999TIP3    H227633   3.600   4.360   7.591  0.1845  0.5520 -1.4693
 2000TIP3   OH227634   2.379   0.480   0.719 -0.2736 -0.4582  0.3681
 2000TIP3    H127635   2.348   0.472   0.809  0.3313 -0.7907  0.5547
 2000TIP3    H227636   2.326   0.418   0.669 -1.7505  0.9022  0.1792
 2001TIP3   OH227637   0.684   3.143   0.113  0.3651 -0.2179  0.0822
 2001TIP3    H127638   0.686   3.168   0.205 -0.0359  0.7387 -0.1542
 2001TIP3    H227639   0.638   3.215   0.070  1.2207 -0.2886 -0.9785
 2002TIP3   OH227640   1.519   3.982   6.637 -0.2152 -0.3129  0.7221
 2002TIP3    H127641   1.497   3.942   6.553  1.9886  2.2460 -1.2386
 2002TIP3    H227642   1.434   4.011   6.672 -1.2837 -2.2767 -0.0708
 2003TIP3   OH227643   3.382   2.786   8.113 -0.5050  0.1925  0.3643
 2003TIP3    H127644   3.430   2.705   8.132 -0.9763  0.0119  0.8136
 2003TIP3    H227645   3.333   2.766   8.033  1.8045  1.0927 -1.3673
 2004TIP3   OH227646   0.225   4.487   1.395 -0.5634  0.0265  0.5918
 2004TIP3    H127647   0.214   4.526   1.481 -3.0052 -0.6426  0.6609
 2004TIP3    H227648   0.269   4.404   1.411  3.8157  2.0687  0.5371
 2005TIP3   OH227649   2.736   5.586   6.259  0.3223  0.3700 -0.2719
 2005TIP3    H127650   2.677   5.607   6.187  0.6726  1.4468 -0.2588
 2005TIP3    H227651   2.822   5.615   6.229  0.8513 -1.0787 -0.2428
 2006TIP3   OH227652   1.783   1.709   7.891  1.0220 -0.2677  0.1761
 2006TIP3    H127653   1.789   1.647   7.964  0.5286  1.4749  1.7588
 2006TIP3    H227654   1.859   1.690   7.837  1.8932 -1.0275  1.6210
 2007TIP3   OH227655   1.500   1.246   7.189  0.2701 -0.0964  0.1523
 2007TIP3    H127656   1.525   1.315   7.128  1.3594 -0.0675  0.6149
 2007TIP3    H227657   1.404   1.246   7.187  0.2675  0.9941 -0.3284
 2008TIP3   OH227658   3.473   7.021   0.196 -0.4800  0.4724  0.4203
 2008TIP3    H127659   3.515   6.941   0.225  0.6258  0.4606 -1.1021
 2008TIP3    H227660   3.401   7.034   0.257  0.2030 -0.8866  1.5585
 2009TIP3   OH227661   2.458   2.891   0.147 -0.0059  0.0233  0.1230
 2009TIP3    H127662   2.505   2.869   0.228 -0.9402 -0.2940  0.5948
 2009TIP3    H227663   2.504   2.842   0.079  0.8654  0.3829  0.4360
 2010TIP3   OH227664   2.707   3.120   1.600  0.0976 -0.5443  0.1708
 2010TIP3    H127665   2.678   3.037   1.638 -1.0643 -0.8823 -1.3493
 2010TIP3    H227666   2.652   3.186   1.642 -1.2660 -0.9256 -0.9444
 2011TIP3   OH227667   3.254   6.320   5.825  0.1087  0.2868  0.7528
 2011TIP3    H127668   3.204   6.394   5.860 -0.4120 -0.5707  1.8754
 2011TIP3    H227669   3.339   6.327   5.867 -0.6443 -0.9740  2.6134
 2012TIP3   OH227670   4.273   1.243   7.512 -0.2970  0.1533 -0.3329
 2012TIP3    H127671   4.264   1.275   7.422 -1.2210  1.5026  0.2143
 2012TIP3    H227672   4.360   1.274   7.539  0.5074 -1.3031 -1.1341
 2013TIP3   OH227673   1.444   2.296   0.721 -0.2531 -0.1966 -0.3539
 2013TIP3    H127674   1.392   2.246   0.658  2.4311 -1.7212 -1.5360
 2013TIP3    H227675   1.489   2.361   0.668  1.9343 -1.4109 -0.0832
 2014TIP3   OH227676   5.322   0.760   6.240 -0.0578 -0.2017  0.3824
 2014TIP3    H127677   5.251   0.698   6.255  0.8321 -0.9115  1.9212
 2014TIP3    H227678   5.382   0.715   6.180 -1.1587  0.6518 -1.4491
 2015TIP3   OH227679   0.905   1.155   0.508 -0.5727  0.1095  0.0075
 2015TIP3    H127680   0.821   1.109   0.517 -0.4157 -0.2564 -0.3357
 2015TIP3    H227681   0.886   1.226   0.446 -0.4561 -0.4336 -0.6661
 2016TIP3   OH227682   4.871   3.462   0.882  0.4895  0.2281  0.0759
 2016TIP3    H127683   4.945   3.428   0.933 -0.5882 -0.9520  0.9401
 2016TIP3    H227684   4.798   3.462   0.944 -0.7367 -0.7302 -1.3148
 2017TIP3   OH227685   1.438   0.214   7.110  0.3628  0.2921 -0.2701
 2017TIP3    H127686   1.501   0.189   7.178  0.0073 -1.9938 -0.6871
 2017TIP3    H227687   1.460   0.304   7.089  0.5819  1.0513  2.7331
 2018TIP3   OH227688   6.467   5.996   1.857 -0.2034 -0.8300 -0.1821
 2018TIP3    H127689   6.474   6.088   1.834 -1.4175 -0.8445 -0.6753
 2018TIP3    H227690   6.401   5.994   1.926 -0.5215 -1.3804 -0.4993
 2019TIP3   OH227691   5.752   4.369   6.602 -0.5854  0.3503  0.3438
 2019TIP3    H127692   5.681   4.427   6.577 -1.7480 -0.8952  0.6279
 2019TIP3    H227693   5.773   4.394   6.692 -1.0380  0.3629  0.4472
 2020TIP3   OH227694   5.352   5.507   7.073  0.0911  0.2902  0.0848
 2020TIP3    H127695   5.414   5.436   7.090  2.3766  2.4038  1.1192
 2020TIP3    H227696   5.391   5.557   7.002 -1.8842  0.1753 -1.1784
 2021TIP3   OH227697   2.301   3.214   1.605 -0.0823 -0.4753 -0.1676
 2021TIP3    H127698   2.311   3.198   1.511  0.3566  0.4151 -0.2844
 2021TIP3    H227699   2.341   3.138   1.647  0.7325 -0.3514 -0.7035
 2022TIP3   OH227700   5.220   2.074   0.120  0.0647  0.0979  0.3606
 2022TIP3    H127701   5.298   2.082   0.176 -0.4598  1.8627  0.8895
 2022TIP3    H227702   5.185   2.162   0.115 -1.4527 -0.5247 -0.5694
 2023TIP3   OH227703   5.055   1.767   6.909  0.6040  0.0640 -0.2685
 2023TIP3    H127704   5.092   1.718   6.982  0.6217  0.4295 -0.0252
 2023TIP3    H227705   5.000   1.704   6.862 -0.7329  0.2163  1.0108
 2024TIP3   OH227706   4.474   1.369   1.560  0.0443 -0.8212 -0.5883
 2024TIP3    H127707   4.461   1.357   1.654 -1.0151  0.2295 -0.5783
 2024TIP3    H227708   4.569   1.364   1.549  0.2802  0.0241  0.7016
 2025TIP3   OH227709   5.753   4.338   1.390  0.3029  0.0215 -0.1309
 2025TIP3    H127710   5.749   4.299   1.303  0.9487  2.3773 -1.3120
 2025TIP3    H227711   5.689   4.410   1.387 -0.5759 -0.6026  1.7986
 2026TIP3   OH227712   4.373   5.478   1.112 -0.4470  0.7898  0.1768
 2026TIP3    H127713   4.309   5.501   1.179 -0.5018  1.3728 -0.0667
 2026TIP3    H227714   4.353   5.387   1.090  0.0692  0.3290  1.4923
 2027TIP3   OH227715   0.500   4.381   0.580 -0.0488 -0.3303 -0.2400
 2027TIP3    H127716   0.590   4.370   0.550  1.6005  0.0754  3.8967
 2027TIP3    H227717   0.483   4.305   0.635 -1.1297  0.9501  1.2952
 2028TIP3   OH227718   1.563   5.552   0.961 -0.1628 -0.0597  0.0367
 2028TIP3    H127719   1.505   5.626   0.940  0.2556  0.8637  1.9283
 2028TIP3    H227720   1.645   5.593   0.988 -0.5880 -1.0220  3.2198
 2029TIP3   OH227721   6.217   3.856   7.678  0.6474 -0.1099  0.0946
 2029TIP3    H127722   6.292   3.898   7.719  1.4562 -0.7921 -0.6477
 2029TIP3    H227723   6.247   3.767   7.658 -1.4162 -1.5484  2.7970
 2030TIP3   OH227724   6.932   0.056   8.134 -0.7320 -0.1924 -0.2325
 2030TIP3    H127725   6.961   0.138   8.173  3.4633 -1.6570  0.2939
 2030TIP3    H227726   6.876   0.016   8.200 -1.1695  1.3206  0.3504
 2031TIP3   OH227727   2.701   0.704   1.664 -0.6559 -0.2092 -0.0662
 2031TIP3    H127728   2.712   0.766   1.592 -1.1577 -0.4394 -0.3513
 2031TIP3    H227729   2.741   0.747   1.740 -0.2529  0.0982 -0.4496
 2032TIP3   OH227730   3.367   6.677   0.560  0.4836 -0.2492  0.4574
 2032TIP3    H127731   3.276   6.662   0.587  0.4159 -0.3212  0.1960
 2032TIP3    H227732   3.361   6.752   0.500  0.6662  0.0814  0.8490
 2033TIP3   OH227733   1.774   6.769   7.172 -0.0462 -0.7762  0.2459
 2033TIP3    H127734   1.849   6.803   7.123 -0.5900 -2.0252 -1.5433
 2033TIP3    H227735   1.712   6.742   7.105 -1.5971 -0.9339  1.6742
 2034TIP3   OH227736   1.590   4.506   6.200 -0.3495  0.2858 -0.5657
 2034TIP3    H127737   1.508   4.530   6.243  0.0934 -0.3529  0.6827
 2034TIP3    H227738   1.609   4.417   6.232  1.1099  0.6343 -0.3754
 2035TIP3   OH227739   5.613   0.773   6.575  0.1357  0.0505 -0.3492
 2035TIP3    H127740   5.693   0.826   6.569  0.8429 -0.7857  1.1079
 2035TIP3    H227741   5.548   0.823   6.526  1.3258  1.1895 -0.8449
 2036TIP3   OH227742   0.176   0.869   7.512  0.2848  0.3174 -0.1048
 2036TIP3    H127743   0.133   0.913   7.438 -0.3228  0.8819  0.5590
 2036TIP3    H227744   0.241   0.932   7.543  0.6669  0.0070 -0.2667
 2037TIP3   OH227745   2.339   2.328   8.197 -0.1759  0.5136  0.3012
 2037TIP3    H127746   2.411   2.375   8.155 -0.4911 -0.8601 -1.9653
 2037TIP3    H227747   2.271   2.394   8.210  0.5978  1.3320  0.2675
 2038TIP3   OH227748   6.787   1.810   1.125 -0.1891 -0.2304  0.0430
 2038TIP3    H127749   6.703   1.854   1.138 -0.6683 -1.2515  0.5903
 2038TIP3    H227750   6.773   1.752   1.050 -0.0356 -0.5336  0.2437
 2039TIP3   OH227751   6.209   6.294   0.522  0.2125 -0.5792 -0.2035
 2039TIP3    H127752   6.287   6.264   0.477  0.5453  1.1227 -0.8257
 2039TIP3    H227753   6.207   6.388   0.507 -1.3840 -0.4304  0.7028
 2040TIP3   OH227754   4.266   6.520   0.852  0.5808  0.1839 -0.1495
 2040TIP3    H127755   4.309   6.562   0.777  1.0830  0.2522  0.1696
 2040TIP3    H227756   4.174   6.514   0.827  0.4512  1.6392 -0.1440
 2041TIP3   OH227757   4.305   6.131   1.634 -0.8094  0.4783  0.1495
 2041TIP3    H127758   4.279   6.194   1.701 -0.4745  1.1583 -0.3505
 2041TIP3    H227759   4.399   6.120   1.646 -0.4760  1.6954 -1.0904
 2042TIP3   OH227760   2.207   5.953   0.111 -0.0405  0.3879  0.0371
 2042TIP3    H127761   2.224   6.035   0.155  0.2794  0.8234 -0.8735
 2042TIP3    H227762   2.272   5.892   0.146  0.6009  0.8891 -0.2591
 2043TIP3   OH227763   0.469   1.872   5.839 -0.2659 -0.3079  0.4650
 2043TIP3    H127764   0.393   1.839   5.790 -1.1421 -0.0094  1.5831
 2043TIP3    H227765   0.445   1.961   5.863  1.2307  0.4700 -0.7345
 2044TIP3   OH227766   1.408   5.172   0.160  0.2354  1.0361 -0.0508
 2044TIP3    H127767   1.315   5.178   0.183  0.6067 -0.7679  2.3346
 2044TIP3    H227768   1.447   5.252   0.196  0.3222 -0.4674  3.6899
 2045TIP3   OH227769   2.709   2.252   8.224 -0.2721  0.1599 -0.2056
 2045TIP3    H127770   2.690   2.298   8.142 -2.4412  1.2998  0.8370
 2045TIP3    H227771   2.647   2.179   8.225 -1.2119  0.9276  0.9630
 2046TIP3   OH227772   2.807   2.303   5.789  0.2803 -0.1687 -0.3440
 2046TIP3    H127773   2.871   2.233   5.799 -1.9680 -2.2874  0.1941
 2046TIP3    H227774   2.749   2.294   5.865 -1.4249  0.7728 -1.4633
 2047TIP3   OH227775   0.949   5.769   5.902  0.3808  0.0823  0.0630
 2047TIP3    H127776   1.026   5.749   5.849  0.3740  1.3788 -0.4531
 2047TIP3    H227777   0.886   5.805   5.840 -0.5472 -0.6747  0.5370
 2048TIP3   OH227778   3.498   4.591   5.958 -0.4233  0.0684  0.1573
 2048TIP3    H127779   3.561   4.663   5.959 -0.2032 -0.1288  1.4198
 2048TIP3    H227780   3.413   4.634   5.961 -0.2962  0.2791  0.8060
 2049TIP3   OH227781   0.231   6.479   8.061  0.5304  0.6498  0.1912
 2049TIP3    H127782   0.279   6.397   8.052 -0.2925  0.1771 -0.0637
 2049TIP3    H227783   0.183   6.489   7.979 -0.6268  0.5456  0.8171
 2050TIP3   OH227784   4.049   3.309   0.091  0.5330  0.0177 -0.0791
 2050TIP3    H127785   3.960   3.302   0.056  0.0140  1.1977  0.8965
 2050TIP3    H227786   4.102   3.340   0.017 -0.0776  0.3000 -0.4059
 2051TIP3   OH227787   6.870   3.007   0.229 -0.0728 -0.3062  0.3169
 2051TIP3    H127788   6.780   2.975   0.240  0.0680 -1.1310 -0.8083
 2051TIP3    H227789   6.924   2.929   0.237  0.4719  0.0295 -0.0656
 2052TIP3   OH227790   0.482   0.802   2.219 -0.1188  0.0028  0.0369
 2052TIP3    H127791   0.427   0.875   2.246 -0.1729  0.4476 -1.2182
 2052TIP3    H227792   0.558   0.842   2.176  1.2845 -0.5889  1.8075
 2053TIP3   OH227793   4.342   0.927   6.215  0.3398 -0.1260  0.2018
 2053TIP3    H127794   4.413   0.988   6.193  1.3856 -1.1282  0.6966
 2053TIP3    H227795   4.381   0.868   6.280 -0.1533 -2.2556 -1.3352
 2054TIP3   OH227796   1.041   4.106   0.042 -0.4077  0.0166  0.0649
 2054TIP3    H127797   0.963   4.053   0.060 -0.4407 -0.0565 -0.2798
 2054TIP3    H227798   1.072   4.134   0.128 -1.3539  0.8197  0.1711
 2055TIP3   OH227799   2.138   1.967   7.986  0.1079  0.5807 -0.3473
 2055TIP3    H127800   2.187   2.000   7.911 -0.9859  0.0189 -1.3426
 2055TIP3    H227801   2.181   2.006   8.062  2.9649 -0.9474 -1.0321
 2056TIP3   OH227802   2.447   6.774   6.910  0.4482  0.0768  0.2736
 2056TIP3    H127803   2.499   6.788   6.990  0.5121 -0.9217  0.4227
 2056TIP3    H227804   2.372   6.723   6.940 -1.1216  2.2045  0.2218
 2057TIP3   OH227805   1.196   3.883   1.359 -0.2061  0.8587 -0.2887
 2057TIP3    H127806   1.111   3.886   1.402  0.3072  0.0612  0.8148
 2057TIP3    H227807   1.176   3.870   1.266 -1.3065 -3.0956  0.3245
 2058TIP3   OH227808   2.257   1.860   7.430 -0.2613  0.1565 -0.2127
 2058TIP3    H127809   2.311   1.884   7.505 -0.0693  1.1861 -0.6566
 2058TIP3    H227810   2.290   1.916   7.359 -0.9630 -0.2329 -0.8531
 2059TIP3   OH227811   0.961   3.295   1.104 -0.1629  0.6032 -0.3205
 2059TIP3    H127812   0.968   3.226   1.037  0.0939 -0.3361  0.6395
 2059TIP3    H227813   0.912   3.254   1.175  0.7992  1.0974  0.6614
 2060TIP3   OH227814   1.424   3.472   0.935 -0.1576  0.0136  0.1675
 2060TIP3    H127815   1.335   3.506   0.939 -0.5806 -0.6647 -1.8809
 2060TIP3    H227816   1.442   3.463   0.841  1.6628 -0.9068  0.5473
 2061TIP3   OH227817   4.882   5.589   0.153  0.7731  0.6438 -0.0661
 2061TIP3    H127818   4.889   5.611   0.246  0.1823 -0.3178  0.2195
 2061TIP3    H227819   4.835   5.505   0.151  0.1500  0.9941 -1.2622
 2062TIP3   OH227820   4.009   4.812   0.228  0.4488  0.0005  0.1214
 2062TIP3    H127821   4.006   4.838   0.136 -1.6314  0.8776  0.3784
 2062TIP3    H227822   3.989   4.718   0.227  0.2879  0.0358 -0.3117
 2063TIP3   OH227823   6.304   2.007   1.182  0.0220 -0.0696  0.2543
 2063TIP3    H127824   6.370   2.056   1.132  0.3299 -0.5752  0.1542
 2063TIP3    H227825   6.286   1.930   1.127 -1.7711  0.8089 -0.4455
 2064TIP3   OH227826   4.452   0.785   7.287  0.0117  0.1145 -0.5229
 2064TIP3    H127827   4.470   0.737   7.206 -0.3863  0.2032 -0.6644
 2064TIP3    H227828   4.506   0.864   7.280  0.5766 -0.2476 -0.3426
 2065TIP3   OH227829   1.440   3.515   7.584 -0.0169  0.2316 -0.5971
 2065TIP3    H127830   1.391   3.441   7.621 -1.3823  1.0377 -0.7175
 2065TIP3    H227831   1.378   3.588   7.586  1.6455  1.6741  0.5208
 2066TIP3   OH227832   6.741   2.673   6.370  0.2433 -0.3519 -0.8977
 2066TIP3    H127833   6.757   2.696   6.278  1.9898 -1.3139 -0.8716
 2066TIP3    H227834   6.827   2.676   6.411 -0.3415 -1.1210  0.4477
 2067TIP3   OH227835   2.130   6.022   7.871  0.0525 -0.2927  0.2811
 2067TIP3    H127836   2.181   6.057   7.945  1.3303 -1.0663 -0.2044
 2067TIP3    H227837   2.147   5.928   7.873  0.4783 -0.2665 -1.2631
 2068TIP3   OH227838   2.661   6.611   7.834 -0.0669  0.1558  0.3201
 2068TIP3    H127839   2.656   6.585   7.926  2.5984 -0.8094  0.2807
 2068TIP3    H227840   2.644   6.705   7.835 -1.5486 -0.0847  1.5593
 2069TIP3   OH227841   3.535   4.803   0.179  0.5676 -0.2674  0.1345
 2069TIP3    H127842   3.587   4.865   0.230  0.5043  0.6271 -0.8651
 2069TIP3    H227843   3.515   4.849   0.097 -2.7906 -0.0817  0.8898
 2070TIP3   OH227844   6.261   0.801   0.439 -0.3764  0.4607  0.2056
 2070TIP3    H127845   6.198   0.735   0.408 -0.0745  0.1694  0.2057
 2070TIP3    H227846   6.326   0.751   0.487 -0.3484  0.8096  0.5338
 2071TIP3   OH227847   3.519   1.541   7.049  0.0764  0.4674 -0.0618
 2071TIP3    H127848   3.602   1.510   7.087 -0.0816  1.5448  1.2453
 2071TIP3    H227849   3.509   1.490   6.969  2.0214  0.3383 -0.2736
 2072TIP3   OH227850   5.043   1.620   1.027 -0.4476 -0.1405  0.1649
 2072TIP3    H127851   5.120   1.654   0.981 -0.1482  0.2668  0.9653
 2072TIP3    H227852   4.998   1.567   0.961 -0.5920  1.2875 -0.9360
 2073TIP3   OH227853   3.670   2.043   1.019 -0.0352  0.7684  0.3338
 2073TIP3    H127854   3.759   2.038   1.053 -0.2517  1.7031  1.1044
 2073TIP3    H227855   3.614   2.038   1.097 -0.7496 -1.3150 -0.2470
 2074TIP3   OH227856   4.188   4.269   5.859 -0.6146 -0.3317  0.7146
 2074TIP3    H127857   4.209   4.353   5.818  0.2660 -0.4847  0.8258
 2074TIP3    H227858   4.210   4.204   5.793 -1.0935 -0.4856  0.7065
 2075TIP3   OH227859   5.753   1.686   0.910 -0.2162  0.0429 -0.0617
 2075TIP3    H127860   5.749   1.770   0.956 -1.4232 -0.4549  0.7864
 2075TIP3    H227861   5.843   1.655   0.926 -0.0540  0.7292  0.4225
 2076TIP3   OH227862   2.662   5.207   7.966  0.2447 -0.0898  0.3083
 2076TIP3    H127863   2.673   5.279   8.028  1.4170  1.4248 -1.5394
 2076TIP3    H227864   2.740   5.153   7.978  0.2129 -0.0921  0.5063
 2077TIP3   OH227865   2.285   5.080   0.183  0.7132 -0.0463 -0.3279
 2077TIP3    H127866   2.370   5.055   0.145  0.3413 -0.3309 -0.9813
 2077TIP3    H227867   2.238   4.998   0.193  0.6055  0.0838  0.2763
 2078TIP3   OH227868   0.940   2.686   8.190 -0.7264  0.4735  0.0255
 2078TIP3    H127869   0.954   2.774   8.224 -0.5245  0.3441  0.2865
 2078TIP3    H227870   0.917   2.634   8.268  0.6039 -0.0153  0.1209
 2079TIP3   OH227871   1.431   4.987   7.421  0.2698  0.3877 -0.6841
 2079TIP3    H127872   1.460   5.077   7.428  0.4982  0.2428  0.4492
 2079TIP3    H227873   1.430   4.955   7.511 -1.8072 -0.1165 -0.8422
 2080TIP3   OH227874   6.251   7.033   0.602 -0.4862 -0.3411  0.6601
 2080TIP3    H127875   6.334   7.080   0.599 -0.2581 -0.7566 -1.8868
 2080TIP3    H227876   6.185   7.097   0.576 -0.3466 -0.9927 -1.5048
 2081TIP3   OH227877   2.484   2.076   0.789 -0.2513 -0.1005  0.7912
 2081TIP3    H127878   2.409   2.041   0.837 -0.9279 -0.1172 -0.2377
 2081TIP3    H227879   2.558   2.070   0.850 -0.7023 -1.7645  1.2086
 2082TIP3   OH227880   5.180   6.204   6.567 -0.0881 -0.2484 -0.2190
 2082TIP3    H127881   5.086   6.205   6.552  0.1128 -0.3227 -1.5644
 2082TIP3    H227882   5.207   6.295   6.553 -0.0608 -0.0349  1.0336
 2083TIP3   OH227883   1.627   2.290   6.764 -0.3536 -0.4597 -0.1877
 2083TIP3    H127884   1.545   2.338   6.778  0.8588  1.3019  1.2260
 2083TIP3    H227885   1.646   2.251   6.849  1.0769  0.4815 -0.0554
 2084TIP3   OH227886   6.596   5.051   0.079 -0.1639  0.2194 -0.3442
 2084TIP3    H127887   6.649   4.997   0.022  2.0849  1.1028  0.7814
 2084TIP3    H227888   6.601   5.007   0.165  2.1207  2.3035  0.7145
 2085TIP3   OH227889   0.555   4.348   6.510  0.5843  0.6747  0.1966
 2085TIP3    H127890   0.556   4.255   6.533 -0.4318  0.8884  1.1954
 2085TIP3    H227891   0.483   4.357   6.448  1.0147  0.7135 -0.3013
 2086TIP3   OH227892   2.333   1.228   7.785 -0.8807 -0.2718  0.0979
 2086TIP3    H127893   2.267   1.285   7.826  0.1606 -0.2651  1.8804
 2086TIP3    H227894   2.307   1.140   7.810 -0.7380 -0.3312  0.0341
 2087TIP3   OH227895   1.163   3.419   2.186 -0.1794  0.1256  0.0776
 2087TIP3    H127896   1.110   3.465   2.251  0.2700  0.7174  0.0273
 2087TIP3    H227897   1.240   3.473   2.175 -0.3760  0.1806 -1.1700
 2088TIP3   OH227898   5.545   0.526   0.074  0.3180 -0.1509  0.0879
 2088TIP3    H127899   5.618   0.469   0.098  1.0782 -0.0484 -1.7655
 2088TIP3    H227900   5.476   0.466   0.045  0.0239 -0.2158  0.9144
 2089TIP3   OH227901   1.422   5.829   0.915 -0.0010 -0.0098 -0.4751
 2089TIP3    H127902   1.452   5.920   0.904  0.0722 -0.0492 -0.6010
 2089TIP3    H227903   1.444   5.808   1.006  0.4204 -0.0598 -0.5843
 2090TIP3   OH227904   2.243   6.895   7.294  0.1627  0.3260  0.3566
 2090TIP3    H127905   2.238   6.953   7.370 -0.4927  1.2743 -0.3968
 2090TIP3    H227906   2.288   6.946   7.227 -0.7782  0.1237 -0.4486
 2091TIP3   OH227907   6.643   5.563   7.536  0.1936  0.1541 -0.0828
 2091TIP3    H127908   6.657   5.482   7.486  2.1192 -0.3411  1.1741
 2091TIP3    H227909   6.573   5.608   7.488 -0.7260 -2.0816 -1.0047
 2092TIP3   OH227910   0.427   0.106   7.716 -0.5518  0.0034  0.1956
 2092TIP3    H127911   0.367   0.132   7.785  1.3341  0.0508  1.9273
 2092TIP3    H227912   0.471   0.028   7.750 -0.6258 -0.9030 -1.6275
 2093TIP3   OH227913   4.657   6.420   6.851 -0.3488 -0.3071  0.0295
 2093TIP3    H127914   4.613   6.453   6.929  0.3097 -0.6085  0.5401
 2093TIP3    H227915   4.639   6.485   6.783  1.3221  1.3754  1.1198
 2094TIP3   OH227916   5.062   4.442   7.050  0.3283  0.2610  0.0424
 2094TIP3    H127917   5.071   4.394   6.968  0.3185  0.0314  0.1746
 2094TIP3    H227918   4.979   4.489   7.043 -1.9862 -3.1934  1.6683
 2095TIP3   OH227919   2.007   0.553   7.672 -0.4100  0.5332 -0.1624
 2095TIP3    H127920   1.986   0.549   7.579  0.6722  3.2566 -0.6066
 2095TIP3    H227921   1.977   0.640   7.700  1.7747  0.8785  1.3436
 2096TIP3   OH227922   1.116   1.527   7.139 -0.1019 -0.7116 -0.2607
 2096TIP3    H127923   1.073   1.612   7.142  0.9493 -0.1621 -0.3478
 2096TIP3    H227924   1.073   1.481   7.067 -1.2039 -0.5565  0.2899
 2097TIP3   OH227925   2.157   0.194   1.314  0.3949  0.0949 -0.6619
 2097TIP3    H127926   2.202   0.178   1.397  0.4915 -0.2003 -0.7707
 2097TIP3    H227927   2.100   0.118   1.302 -0.1945  0.5043 -0.4852
 2098TIP3   OH227928   2.614   1.221   7.670 -0.5431 -0.2253  0.3588
 2098TIP3    H127929   2.651   1.199   7.756 -0.2520  1.0975  0.5973
 2098TIP3    H227930   2.519   1.217   7.683 -0.5325  1.3331  1.1573
 2099TIP3   OH227931   5.099   2.833   1.172 -0.5920 -0.0306 -0.2782
 2099TIP3    H127932   5.052   2.754   1.201 -0.7451 -1.2881 -3.5963
 2099TIP3    H227933   5.192   2.808   1.177 -0.4285  0.7667  1.6436
 2100TIP3   OH227934   4.808   4.520   7.720 -0.1268 -1.3377 -0.6245
 2100TIP3    H127935   4.833   4.498   7.630 -1.5002 -0.3322 -1.2924
 2100TIP3    H227936   4.811   4.436   7.767  1.9823 -1.6544 -1.2145
 2101TIP3   OH227937   0.163   6.260   0.753 -0.7899  0.2827  0.0884
 2101TIP3    H127938   0.124   6.346   0.738 -0.4764  0.5222  0.6270
 2101TIP3    H227939   0.248   6.278   0.792 -1.4056 -0.2814  1.8041
 2102TIP3   OH227940   3.743   3.838   7.209 -0.2350  0.0835 -0.1165
 2102TIP3    H127941   3.738   3.934   7.212  0.1882  0.1151 -0.2840
 2102TIP3    H227942   3.671   3.812   7.152  0.1540  0.3593 -0.7429
 2103TIP3   OH227943   3.588   2.660   6.237  0.3571 -0.3905  0.3596
 2103TIP3    H127944   3.605   2.596   6.168 -0.2707  0.4889 -0.6417
 2103TIP3    H227945   3.495   2.679   6.230  0.6630  1.1698  0.1221
 2104TIP3   OH227946   1.295   1.330   0.023  0.4106 -0.1651  0.0573
 2104TIP3    H127947   1.300   1.323  -0.072  0.7673  0.3750  0.0306
 2104TIP3    H227948   1.284   1.240   0.054  1.0406 -0.4216 -0.4532
 2105TIP3   OH227949   5.074   5.545   7.158 -0.4417  0.4305 -0.1381
 2105TIP3    H127950   5.167   5.530   7.142 -0.4195  0.7708 -0.3306
 2105TIP3    H227951   5.045   5.467   7.206 -0.1079  0.2193 -0.2754
 2106TIP3   OH227952   5.887   3.877   6.909 -0.2540 -0.1182  0.1318
 2106TIP3    H127953   5.924   3.798   6.947  1.2655 -0.2034 -1.3927
 2106TIP3    H227954   5.793   3.867   6.919  0.0057 -0.9186  2.2064
 2107TIP3   OH227955   3.127   6.470   6.017  0.1067 -0.2901 -0.2828
 2107TIP3    H127956   3.155   6.549   6.064  1.9680 -0.6603 -0.6957
 2107TIP3    H227957   3.067   6.427   6.077  1.4114 -0.0767  1.2523
 2108TIP3   OH227958   4.764   4.344   6.620  0.0670 -0.2195  0.2265
 2108TIP3    H127959   4.723   4.260   6.637  0.1971  0.0990  2.3909
 2108TIP3    H227960   4.717   4.406   6.676  0.1173  1.1423 -1.1444
 2109TIP3   OH227961   3.756   4.473   6.025  0.1691  0.3074  0.2909
 2109TIP3    H127962   3.792   4.439   5.943  1.5063 -0.7382  1.2582
 2109TIP3    H227963   3.670   4.508   6.001 -0.8441 -2.7378 -1.0208
 2110TIP3   OH227964   5.921   6.488   6.950 -0.3411 -0.1358  0.1514
 2110TIP3    H127965   5.879   6.558   7.001 -2.4315 -1.2064  0.0266
 2110TIP3    H227966   5.878   6.492   6.864  0.4595 -0.7339 -0.2920
 2111TIP3   OH227967   5.304   2.128   6.484  0.4890 -0.3921 -0.2454
 2111TIP3    H127968   5.312   2.032   6.486  0.6692 -0.3827 -0.4769
 2111TIP3    H227969   5.254   2.146   6.405 -0.2966 -0.3442  0.2566
 2112TIP3   OH227970   4.976   3.043   6.727  0.2399  0.1251 -0.2897
 2112TIP3    H127971   4.920   2.993   6.786  0.1234  0.0813 -0.4370
 2112TIP3    H227972   4.924   3.053   6.647  0.4063  0.1652 -0.3927
 2113TIP3   OH227973   1.523   5.002   1.230 -0.5181  0.7102 -0.1691
 2113TIP3    H127974   1.475   4.945   1.170  2.8879 -2.6180 -0.1405
 2113TIP3    H227975   1.555   5.074   1.176  0.9015 -1.2265 -2.0540
 2114TIP3   OH227976   4.713   0.422   7.443  0.0488 -0.4051  0.0622
 2114TIP3    H127977   4.678   0.333   7.440 -0.1403 -0.3862  1.3811
 2114TIP3    H227978   4.719   0.448   7.351 -0.9944 -1.3457 -0.2930
 2115TIP3   OH227979   5.669   5.485   1.944  0.2659  0.1010 -0.1086
 2115TIP3    H127980   5.594   5.539   1.966  2.1518  1.6034  3.4489
 2115TIP3    H227981   5.635   5.396   1.940 -1.6805  0.6745  1.8753
 2116TIP3   OH227982   6.707   4.993   7.080 -0.2117  0.0982 -0.0567
 2116TIP3    H127983   6.746   4.987   6.993 -3.5785 -1.9026 -1.6290
 2116TIP3    H227984   6.654   5.073   7.077 -0.2078  0.1155  0.2682
 2117TIP3   OH227985   2.930   6.363   0.743 -0.0197  0.3392 -0.2601
 2117TIP3    H127986   2.912   6.439   0.797 -0.0914 -0.3283  0.6815
 2117TIP3    H227987   2.869   6.371   0.669 -1.6755  0.0189  1.0021
 2118TIP3   OH227988   3.890   3.245   7.250 -0.2319  0.3880  0.2136
 2118TIP3    H127989   3.825   3.186   7.288 -0.1377 -1.1926 -1.9427
 2118TIP3    H227990   3.971   3.225   7.297 -0.5996  0.1573  0.7646
 2119TIP3   OH227991   5.226   1.011   6.157 -0.2617 -0.1549  0.5697
 2119TIP3    H127992   5.309   1.051   6.132 -0.0869 -0.3912  0.7672
 2119TIP3    H227993   5.248   0.920   6.178 -0.9755 -0.9466 -1.8137
 2120TIP3   OH227994   4.869   0.160   7.122  0.0428 -0.0040  0.3595
 2120TIP3    H127995   4.935   0.223   7.093 -0.2350  0.9641  1.7200
 2120TIP3    H227996   4.786   0.196   7.091 -0.1309  0.4043  1.2609
 2121TIP3   OH227997   3.399   3.144   1.844 -0.0017 -0.3205  0.2971
 2121TIP3    H127998   3.399   3.202   1.921  1.0250  2.5896 -1.7110
 2121TIP3    H227999   3.482   3.097   1.850  0.7392  0.9301  0.3314
 2122TIP3   OH228000   1.934   3.474   7.931  0.0031 -0.2873  0.9538
 2122TIP3    H128001   1.884   3.394   7.947 -0.8531 -0.1080 -0.6600
 2122TIP3    H228002   1.981   3.458   7.849 -1.1452  1.2677 -0.0745
 2123TIP3   OH228003   1.020   2.912   7.535  0.3037  0.4088 -0.2774
 2123TIP3    H128004   1.078   2.926   7.610  1.1136  1.8627 -1.1355
 2123TIP3    H228005   1.047   2.827   7.500 -2.0885 -1.8407  2.7462
 2124TIP3   OH228006   1.051   5.204   7.782 -0.0148  0.2600  0.4162
 2124TIP3    H128007   1.041   5.172   7.871 -0.7952  2.4215  1.1907
 2124TIP3    H228008   0.965   5.241   7.760  0.3608  0.3878 -0.9761
 2125TIP3   OH228009   4.247   3.087   0.104 -0.0564 -0.4053 -0.1843
 2125TIP3    H128010   4.162   3.130   0.112  0.2848  0.4630 -0.9957
 2125TIP3    H228011   4.283   3.121   0.022 -0.0421 -2.7258 -1.2232
 2126TIP3   OH228012   2.604   0.594   1.956 -0.2467  0.5667  0.1660
 2126TIP3    H128013   2.634   0.682   1.935 -2.6346  0.9059 -2.3305
 2126TIP3    H228014   2.557   0.604   2.039 -1.7682  2.0250 -0.8143
 2127TIP3   OH228015   6.156   5.839   7.515 -0.0824 -0.1688 -0.4823
 2127TIP3    H128016   6.082   5.898   7.501 -0.6094 -1.0908 -1.7736
 2127TIP3    H228017   6.206   5.842   7.434  0.6211 -0.4816 -0.0712
 2128TIP3   OH228018   0.158   5.518   7.799  0.2485 -0.5292 -0.3007
 2128TIP3    H128019   0.127   5.541   7.887 -1.2171 -0.0920 -0.8981
 2128TIP3    H228020   0.098   5.564   7.740  1.0516 -1.0219 -1.5384
 2129TIP3   OH228021   3.352   6.768   1.398 -0.6111 -0.1496 -0.4842
 2129TIP3    H128022   3.348   6.676   1.425  0.3138  0.1692  0.7547
 2129TIP3    H228023   3.260   6.796   1.396 -0.8184 -0.7635  0.2846
 2130TIP3   OH228024   4.867   5.252   1.748  0.4138  0.2704 -0.1713
 2130TIP3    H128025   4.816   5.285   1.673 -1.7389 -0.4269  0.9066
 2130TIP3    H228026   4.801   5.220   1.809  2.0213  1.6589  2.4853
 2131TIP3   OH228027   4.238   0.024   6.191 -0.3391  0.8137  0.9163
 2131TIP3    H128028   4.277  -0.053   6.232  1.0417  0.7700 -0.3970
 2131TIP3    H228029   4.192  -0.011   6.114 -0.1674  1.2367  0.6184
 2132TIP3   OH228030   4.896   3.824   7.494  0.0344 -0.3695  0.1676
 2132TIP3    H128031   4.855   3.876   7.563 -0.2442 -2.4584  1.6681
 2132TIP3    H228032   4.988   3.819   7.519  0.3646  0.6234 -0.7918
 2133TIP3   OH228033   5.103   5.610   6.576 -0.0100 -0.0076 -0.4256
 2133TIP3    H128034   5.052   5.688   6.555  2.1291  1.3217 -1.0570
 2133TIP3    H228035   5.155   5.593   6.498  1.4438 -0.4986  0.5990
 2134TIP3   OH228036   3.925   0.304   0.904 -0.1704 -0.2777  0.0263
 2134TIP3    H128037   3.963   0.352   0.977 -0.2785 -1.3862  0.8312
 2134TIP3    H228038   3.914   0.370   0.835 -0.1562  0.7998  1.0322
 2135TIP3   OH228039   6.755   1.141   0.430  0.0543 -1.2149 -0.3966
 2135TIP3    H128040   6.745   1.182   0.516 -1.0777 -0.4853 -0.8437
 2135TIP3    H228041   6.783   1.213   0.372 -1.6226 -1.0878 -1.1182
 2136TIP3   OH228042   1.803   0.946   0.956 -0.0287 -0.2678  0.0609
 2136TIP3    H128043   1.787   0.907   1.042 -1.6801  2.5428  1.1706
 2136TIP3    H228044   1.857   1.023   0.975  2.2261 -1.2604 -1.8841
 2137TIP3   OH228045   6.245   5.820   0.179 -0.5459 -0.1497  0.8872
 2137TIP3    H128046   6.263   5.772   0.099  1.4167 -2.8189  2.7647
 2137TIP3    H228047   6.330   5.851   0.209 -1.3881  1.8626  1.3841
 2138TIP3   OH228048   3.628   5.567   1.256  0.5651  0.1328 -0.1779
 2138TIP3    H128049   3.709   5.530   1.292 -1.2541 -1.0238  3.2066
 2138TIP3    H228050   3.592   5.497   1.202  0.3826 -0.6016  0.8468
 2139TIP3   OH228051   6.765   3.725   6.134 -0.3641 -0.3796  0.3590
 2139TIP3    H128052   6.725   3.656   6.080 -0.2160  0.9707 -1.6120
 2139TIP3    H228053   6.855   3.695   6.148 -0.2604 -0.5697 -0.5855
 2140TIP3   OH228054   0.960   2.510   6.722  0.1059 -0.2818 -0.8059
 2140TIP3    H128055   0.891   2.468   6.775  0.2592  0.3241 -0.1169
 2140TIP3    H228056   0.985   2.588   6.772 -0.3082  0.7519 -2.1594
 2141TIP3   OH228057   2.526   1.486   0.929  0.0331  0.4089  0.0224
 2141TIP3    H128058   2.469   1.559   0.955  1.4306  1.5364  0.0291
 2141TIP3    H228059   2.610   1.506   0.969  0.8766 -0.3964 -1.2802
 2142TIP3   OH228060   7.077   4.061   7.877  0.2218 -0.0461  0.0432
 2142TIP3    H128061   7.069   4.139   7.822 -1.7410  0.6047  1.1335
 2142TIP3    H228062   7.001   4.007   7.853  0.6627 -0.8516  0.4322
 2143TIP3   OH228063   3.725   5.471   2.034 -0.1598  0.3859  0.0013
 2143TIP3    H128064   3.779   5.468   2.113 -0.4133  0.2563  0.1740
 2143TIP3    H228065   3.739   5.559   1.998  0.8132  0.0634 -0.4201
 2144TIP3   OH228066   4.408   4.920   8.122  0.3374 -0.1136 -0.1286
 2144TIP3    H128067   4.450   4.915   8.209  0.8454 -0.6480 -0.3977
 2144TIP3    H228068   4.443   4.845   8.075 -0.8056 -0.4603 -0.4312
 2145TIP3   OH228069   5.687   1.720   7.978 -0.1663  0.0591 -0.1375
 2145TIP3    H128070   5.630   1.649   8.007  0.9896 -0.3125  1.3338
 2145TIP3    H228071   5.735   1.746   8.057  0.7999  1.1920 -1.0656
 2146TIP3   OH228072   4.869   4.135   6.230  0.3906  0.1226 -0.1581
 2146TIP3    H128073   4.775   4.150   6.221  0.7090  3.2871  0.6011
 2146TIP3    H228074   4.903   4.140   6.141  0.0382  0.8036 -0.2604
 2147TIP3   OH228075   0.449   1.190   6.549  0.1154 -0.4981  0.2987
 2147TIP3    H128076   0.384   1.261   6.554  1.2614  0.5327  1.1429
 2147TIP3    H228077   0.515   1.223   6.488  1.3211 -0.2364  1.6870
 2148TIP3   OH228078   5.224   5.105   0.262  0.0132  0.4932  0.6753
 2148TIP3    H128079   5.282   5.107   0.338 -0.8278 -1.1788  1.4180
 2148TIP3    H228080   5.140   5.076   0.298 -1.3003  2.7863 -0.3670
 2149TIP3   OH228081   6.772   4.559   1.313 -0.4464  0.3317 -0.0774
 2149TIP3    H128082   6.853   4.610   1.325 -0.7479  0.5574  1.1439
 2149TIP3    H228083   6.707   4.624   1.288 -0.3870  0.2316 -0.5060
 2150TIP3   OH228084   0.759   2.215   6.560  0.1630 -0.5704 -0.1934
 2150TIP3    H128085   0.768   2.261   6.477  0.2032  1.2829  0.7786
 2150TIP3    H228086   0.848   2.191   6.584  0.7007  2.2206  1.0311
 2151TIP3   OH228087   4.350   4.361   0.580 -0.3568  0.4242  0.5775
 2151TIP3    H128088   4.422   4.395   0.528  0.6204  0.0798  1.6774
 2151TIP3    H228089   4.369   4.388   0.669 -0.8338 -0.8859  1.1042
 2152TIP3   OH228090   5.645   5.321   0.615  0.3607 -0.6909 -0.0944
 2152TIP3    H128091   5.685   5.348   0.532 -0.1431  0.3353 -0.0250
 2152TIP3    H228092   5.719   5.305   0.673  0.7543  1.8398  0.2457
 2153TIP3   OH228093   5.597   1.857   1.562  0.0727  0.0790 -0.1989
 2153TIP3    H128094   5.519   1.824   1.517 -0.8099  0.5985  0.9027
 2153TIP3    H228095   5.670   1.827   1.508 -0.9022 -0.0147 -1.5151
 2154TIP3   OH228096   5.176   6.591   0.539  0.6230  0.2028 -0.2341
 2154TIP3    H128097   5.195   6.619   0.628 -1.9543 -0.2101  0.5286
 2154TIP3    H228098   5.157   6.497   0.547  0.5868  0.1080 -1.2463
 2155TIP3   OH228099   1.026   7.046   6.671  0.2799 -0.2326 -0.2832
 2155TIP3    H128100   1.056   7.016   6.756 -0.5821  1.5379  0.6929
 2155TIP3    H228101   1.105   7.054   6.619  1.2004  1.4643  1.2873
 2156TIP3   OH228102   2.862   1.337   6.968  0.2705  0.2785 -0.5135
 2156TIP3    H128103   2.863   1.364   7.060  0.0739 -0.0195 -0.4206
 2156TIP3    H228104   2.940   1.377   6.930  0.1769  0.6724 -0.2940
 2157TIP3   OH228105   5.078   2.223   8.217 -0.5528  0.2331 -0.0840
 2157TIP3    H128106   5.014   2.152   8.209  0.3987 -0.5287 -1.4206
 2157TIP3    H228107   5.047   2.289   8.154 -0.3378  0.1083 -0.3219
 2158TIP3   OH228108   0.616   4.651   7.701  0.0465 -0.5443 -0.3960
 2158TIP3    H128109   0.554   4.693   7.641  1.3904  1.6165 -0.3873
 2158TIP3    H228110   0.588   4.679   7.788  1.2894  0.9269 -0.4251
 2159TIP3   OH228111   4.304   3.517   6.282  0.0457  0.1878  0.0385
 2159TIP3    H128112   4.261   3.589   6.330 -0.2437 -0.3414  0.5855
 2159TIP3    H228113   4.379   3.558   6.238 -0.1493  0.8327  0.3026
 2160TIP3   OH228114   2.998   2.542   5.794 -0.1673 -0.0630  0.6708
 2160TIP3    H128115   3.056   2.582   5.859 -0.8815  0.0981  1.2159
 2160TIP3    H228116   3.058   2.509   5.726  0.5892 -0.2788  1.4219
 2161TIP3   OH228117   5.588   2.461   1.489  0.1332  0.3476 -0.5696
 2161TIP3    H128118   5.574   2.517   1.565 -2.2282  0.7525 -1.2300
 2161TIP3    H228119   5.563   2.373   1.518  0.4735  0.2616 -0.5296
 2162TIP3   OH228120   0.816   0.059   6.313 -0.0438 -0.8274  0.0807
 2162TIP3    H128121   0.881  -0.011   6.316 -0.6486 -1.4278 -0.3555
 2162TIP3    H228122   0.780   0.055   6.225  2.4022  2.4171 -1.2492
 2163TIP3   OH228123   2.643   5.107   7.712 -0.6986 -0.0828  0.4325
 2163TIP3    H128124   2.636   5.141   7.801  0.3023  1.2778  0.0177
 2163TIP3    H228125   2.673   5.017   7.723 -3.8810 -1.1571  1.5809
 2164TIP3   OH228126   3.788   5.639   8.199 -0.1954  0.0331  0.1432
 2164TIP3    H128127   3.802   5.560   8.146  1.7875 -0.0938  0.7778
 2164TIP3    H228128   3.820   5.616   8.286  1.1666  1.7510  0.1533
 2165TIP3   OH228129   1.704   6.532   0.611 -0.3222 -0.1592  0.6930
 2165TIP3    H128130   1.710   6.458   0.550  0.1453 -0.5650  1.2140
 2165TIP3    H228131   1.795   6.558   0.625 -0.5354  1.7706 -0.9497
 2166TIP3   OH228132   3.905   4.735   6.916 -0.1413 -0.2787 -0.0937
 2166TIP3    H128133   3.913   4.765   7.006  2.5632 -0.4696 -0.1792
 2166TIP3    H228134   3.909   4.814   6.863 -1.2814 -0.2065 -0.1098
 2167TIP3   OH228135   1.639   5.209   7.772  0.1933  0.2294 -0.2709
 2167TIP3    H128136   1.552   5.215   7.733 -0.4566 -1.3301  0.7994
 2167TIP3    H228137   1.631   5.256   7.855 -0.5718 -2.2757  1.2001
 2168TIP3   OH228138   6.740   2.583   8.203 -0.3485  0.0886 -0.2627
 2168TIP3    H128139   6.762   2.510   8.261  0.2443 -0.1817 -0.8116
 2168TIP3    H228140   6.655   2.561   8.167 -0.9826  0.5242  0.9155
 2169TIP3   OH228141   2.139   3.829   7.713  0.0185 -0.1508 -0.1125
 2169TIP3    H128142   2.083   3.872   7.648  0.7652  0.0058 -0.6674
 2169TIP3    H228143   2.218   3.883   7.716 -0.1456  0.0483  1.1993
 2170TIP3   OH228144   3.782   3.601   0.701  0.0340 -0.9652  0.3343
 2170TIP3    H128145   3.699   3.649   0.704  0.2346 -0.5223  4.0332
 2170TIP3    H228146   3.814   3.614   0.613 -2.1125  1.8948 -0.1818
 2171TIP3   OH228147   0.087   3.251   6.915 -0.6326  1.0423  0.0938
 2171TIP3    H128148   0.054   3.234   6.827 -2.7338 -0.0676  1.0143
 2171TIP3    H228149   0.138   3.174   6.937  0.0731  1.4139 -0.2025
 2172TIP3   OH228150   2.862   6.028   0.090  0.1194  0.3355 -0.7477
 2172TIP3    H128151   2.839   5.960   0.154  1.5480  1.9184  1.5897
 2172TIP3    H228152   2.783   6.081   0.083 -0.4517 -0.5570 -1.2889
 2173TIP3   OH228153   0.817   4.561   8.003  0.7765 -0.1245  0.3815
 2173TIP3    H128154   0.834   4.500   8.074  0.0242  0.7239  1.3233
 2173TIP3    H228155   0.748   4.619   8.036 -0.0166 -0.0600 -1.2568
 2174TIP3   OH228156   4.898   0.548   1.410  0.1994  0.2093  1.0237
 2174TIP3    H128157   4.892   0.641   1.431 -0.5626  0.4659 -0.2404
 2174TIP3    H228158   4.862   0.541   1.322  1.3606 -1.1126  0.6270
 2175TIP3   OH228159   3.906   5.430   2.234 -0.3170 -0.5128 -0.7112
 2175TIP3    H128160   3.865   5.387   2.308  1.2032  0.4845  0.7802
 2175TIP3    H228161   3.979   5.372   2.210  0.7180  0.3550  0.2309
 2176TIP3   OH228162   2.582   3.052   8.209  0.0243  0.2238 -0.0168
 2176TIP3    H128163   2.584   3.146   8.228 -0.7968  0.2374  0.0494
 2176TIP3    H228164   2.517   3.017   8.270  0.0100 -0.3184 -0.3380
 2177TIP3   OH228165   3.487   4.673   7.348  0.0692  0.4917  0.1181
 2177TIP3    H128166   3.550   4.617   7.392 -1.0528 -1.5988 -0.7935
 2177TIP3    H228167   3.487   4.643   7.257 -0.7346  1.8440 -0.3608
 2178TIP3   OH228168   1.879   2.326   6.384 -0.0506  0.3632  0.0607
 2178TIP3    H128169   1.937   2.369   6.446 -2.2144  2.8902  0.4901
 2178TIP3    H228170   1.913   2.351   6.298  0.8938 -0.2686  0.2255
 2179TIP3   OH228171   3.906   0.148   6.886 -0.3998  0.2614 -0.2100
 2179TIP3    H128172   3.926   0.183   6.973  0.0778 -1.0383  0.2407
 2179TIP3    H228173   3.886   0.224   6.832  0.8089  1.2131  0.6523
 2180TIP3   OH228174   3.178   4.914   6.375 -0.3881 -0.1560 -0.3676
 2180TIP3    H128175   3.259   4.964   6.368  0.7171 -1.7299  0.5715
 2180TIP3    H228176   3.121   4.968   6.430 -0.0274  1.0102 -1.1141
 2181TIP3   OH228177   4.742   6.449   0.722  0.4496  0.4440 -0.1219
 2181TIP3    H128178   4.658   6.402   0.723  0.2265  0.8304  0.7423
 2181TIP3    H228179   4.721   6.535   0.686 -0.3022  1.8038  3.1542
 2182TIP3   OH228180   2.078   5.571   6.592 -0.1478  0.5705 -0.3515
 2182TIP3    H128181   2.120   5.560   6.506 -0.0863  2.1818 -0.5623
 2182TIP3    H228182   2.139   5.533   6.654  0.0678 -0.1168 -0.9721
 2183TIP3   OH228183   6.194   4.568   7.708 -0.2425  0.0463  0.6771
 2183TIP3    H128184   6.273   4.600   7.665 -1.6143 -0.4105 -2.4811
 2183TIP3    H228185   6.226   4.516   7.782  2.2517  1.9494  1.0785
 2184TIP3   OH228186   6.239   4.095   0.550 -0.4277  0.1279  0.2691
 2184TIP3    H128187   6.252   4.098   0.645 -0.3001  0.9765  0.2316
 2184TIP3    H228188   6.308   4.038   0.518  0.3981  0.9367  0.5562
 2185TIP3   OH228189   7.049   6.920   1.158  0.1973 -0.1010 -0.0219
 2185TIP3    H128190   7.001   6.975   1.220 -0.2149 -1.8182  1.2407
 2185TIP3    H228191   7.094   6.983   1.102 -1.7395  1.5552  0.1345
 2186TIP3   OH228192   5.111   7.039   0.447 -0.2458  0.1234 -0.2257
 2186TIP3    H128193   5.175   7.059   0.516  0.9923 -2.3582 -0.5348
 2186TIP3    H228194   5.027   7.069   0.482  0.8162  1.8970  0.9384
 2187TIP3   OH228195   7.045   2.988   1.100 -0.2308 -0.3568  0.0786
 2187TIP3    H128196   7.098   3.038   1.162 -1.1641 -0.8962  1.3403
 2187TIP3    H228197   6.963   2.971   1.146 -0.7765 -1.1809 -1.1399
 2188TIP3   OH228198   5.435   0.580   1.455 -0.4781  0.5314  0.6661
 2188TIP3    H128199   5.451   0.555   1.545  0.2014  1.8092  0.9354
 2188TIP3    H228200   5.506   0.642   1.435  0.9655 -1.6709 -1.5866
 2189TIP3   OH228201   0.151   5.368   0.036 -0.1904 -0.3890 -0.2154
 2189TIP3    H128202   0.207   5.445   0.033 -0.4478 -0.1527  0.7133
 2189TIP3    H228203   0.197   5.302  -0.015  1.0836 -0.2968  0.7726
 2190TIP3   OH228204   1.810   5.002   1.074  0.1146  0.8768 -0.1887
 2190TIP3    H128205   1.769   4.921   1.043 -1.6950  2.0377 -0.9820
 2190TIP3    H228206   1.792   5.004   1.167  0.1513  0.3866 -0.1665
 2191TIP3   OH228207   4.976   0.332   1.743 -0.1796  0.0448  0.3711
 2191TIP3    H128208   4.927   0.384   1.806 -0.9699  0.4353 -0.5410
 2191TIP3    H228209   5.049   0.389   1.717  0.6447 -0.4436  1.5442
 2192TIP3   OH228210   1.559   6.452   6.939 -0.3767  0.3195 -0.1980
 2192TIP3    H128211   1.536   6.482   6.851  1.1876  3.4669  0.3186
 2192TIP3    H228212   1.476   6.438   6.983 -1.2060  1.4436 -1.3508
 2193TIP3   OH228213   2.182   0.288   6.754  0.0680 -0.4369 -0.0830
 2193TIP3    H128214   2.273   0.317   6.750 -0.0691 -0.0432 -0.3793
 2193TIP3    H228215   2.139   0.351   6.812  0.2422 -1.3217  1.0344
 2194TIP3   OH228216   6.641   1.867   0.874 -0.1603  0.1972 -0.2955
 2194TIP3    H128217   6.547   1.880   0.884 -0.1422  1.1064 -1.1346
 2194TIP3    H228218   6.673   1.949   0.836  0.9975 -0.0383  0.1222
 2195TIP3   OH228219   2.855   4.354   0.127  0.3048 -0.1648  0.3826
 2195TIP3    H128220   2.764   4.365   0.157  0.3018 -0.1250  0.3594
 2195TIP3    H228221   2.908   4.373   0.204  0.2499 -2.0211  0.9242
 2196TIP3   OH228222   5.367   4.070   1.223  0.1630  0.2894 -0.3610
 2196TIP3    H128223   5.376   4.165   1.212  0.0853  0.1018 -2.5416
 2196TIP3    H228224   5.453   4.041   1.253  0.1268  1.0466  0.5379
 2197TIP3   OH228225   6.945   5.207   2.136 -0.2057 -0.1923  0.2531
 2197TIP3    H128226   6.914   5.297   2.133 -0.5711 -0.2629  1.4813
 2197TIP3    H228227   7.041   5.215   2.142 -0.1902  0.0932 -0.3491
 2198TIP3   OH228228   6.258   3.535   6.449 -0.3784  0.3488 -0.3379
 2198TIP3    H128229   6.331   3.561   6.392  0.2896  0.4339  0.5248
 2198TIP3    H228230   6.231   3.449   6.418  0.6272 -0.0348 -0.1780
 2199TIP3   OH228231   3.311   2.761   1.279  0.2076 -0.3043  0.4776
 2199TIP3    H128232   3.306   2.803   1.364 -0.9294  2.2253 -0.7398
 2199TIP3    H228233   3.354   2.826   1.223 -0.8806 -1.0578 -1.3146
 2200TIP3   OH228234   4.845   2.446   6.804 -0.2681  0.0678 -0.3933
 2200TIP3    H128235   4.786   2.462   6.730  0.9575 -0.2236 -1.4707
 2200TIP3    H228236   4.893   2.367   6.779  0.2410  0.0221  0.6849
 2201TIP3   OH228237   2.402   3.494   6.345 -0.3816  0.0054  0.1615
 2201TIP3    H128238   2.426   3.580   6.310  1.0871  0.1200  1.3678
 2201TIP3    H228239   2.312   3.505   6.377 -0.2472  1.0582  0.1939
 2202TIP3   OH228240   6.489   1.763   0.509  0.3789  0.7501  0.4875
 2202TIP3    H128241   6.518   1.683   0.554 -0.9150 -0.3806 -0.6098
 2202TIP3    H228242   6.481   1.738   0.417 -3.3060  1.1085  0.5535
 2203TIP3   OH228243   1.299   2.192   6.697 -0.0234 -0.0075 -0.2128
 2203TIP3    H128244   1.338   2.266   6.743 -0.0544 -0.4635  0.5714
 2203TIP3    H228245   1.313   2.211   6.604  1.5098  0.1320  0.0247
 2204TIP3   OH228246   2.674   5.290   1.351 -1.1510  0.0452 -0.1179
 2204TIP3    H128247   2.736   5.249   1.291 -0.5186  0.0445  0.5216
 2204TIP3    H228248   2.601   5.318   1.296 -0.0827  1.0528 -1.0443
 2205TIP3   OH228249   2.554   3.788   0.173  0.2730 -0.4233 -0.2545
 2205TIP3    H128250   2.588   3.782   0.262  0.4543 -2.2085 -0.4068
 2205TIP3    H228251   2.624   3.832   0.124 -0.0560  1.0867  0.5542
 2206TIP3   OH228252   0.624   2.503   7.043 -0.4583 -0.0655 -0.1252
 2206TIP3    H128253   0.576   2.472   7.119 -0.5161 -1.2914 -0.6329
 2206TIP3    H228254   0.671   2.581   7.073 -0.9351 -0.2003  0.9890
 2207TIP3   OH228255   1.556   4.316   7.890  0.1297  0.7598 -0.1980
 2207TIP3    H128256   1.588   4.280   7.973  2.1627  0.8410 -0.8734
 2207TIP3    H228257   1.515   4.242   7.845  0.5574  0.2927  0.1700
 2208TIP3   OH228258   4.411   2.229   8.194 -0.2078  0.5330 -0.0443
 2208TIP3    H128259   4.400   2.271   8.109 -1.7731 -0.7211 -0.5223
 2208TIP3    H228260   4.450   2.144   8.174  1.3307  1.0294  0.7249
 2209TIP3   OH228261   1.132   0.257   6.375  0.0576  0.4953 -0.4288
 2209TIP3    H128262   1.143   0.162   6.372  0.0229  0.4674  0.0934
 2209TIP3    H228263   1.142   0.286   6.285 -0.0938 -0.0247 -0.6161
 2210TIP3   OH228264   5.945   2.514   1.701 -0.1612 -0.2927 -0.5449
 2210TIP3    H128265   5.948   2.452   1.774 -1.7171 -0.3427 -0.4922
 2210TIP3    H228266   5.937   2.459   1.623  2.9345 -0.3199 -0.9848
 2211TIP3   OH228267   6.481   6.454   1.654 -0.1601 -0.0328 -0.1337
 2211TIP3    H128268   6.392   6.422   1.641 -0.0127 -0.3293 -0.4100
 2211TIP3    H228269   6.522   6.448   1.568  0.8127 -2.0161  0.4130
 2212TIP3   OH228270   6.411   1.830   1.769 -0.8659  0.3469  0.1208
 2212TIP3    H128271   6.456   1.915   1.765 -0.4559  0.1138 -0.4412
 2212TIP3    H228272   6.422   1.802   1.860 -0.6650  0.7177  0.2155
 2213TIP3   OH228273   2.347   4.844   7.305  0.1443 -0.2528 -0.0090
 2213TIP3    H128274   2.331   4.752   7.285  1.7312 -0.4980 -0.2873
 2213TIP3    H228275   2.330   4.851   7.399  0.2265 -0.8901  0.0600
 2214TIP3   OH228276   0.684   3.495   6.882  0.1317  0.5342 -0.2436
 2214TIP3    H128277   0.760   3.438   6.872  1.0294  1.7390 -0.4326
 2214TIP3    H228278   0.672   3.503   6.977  0.7585  1.0179 -0.2048
 2215TIP3   OH228279   6.755   5.741   1.353 -0.0576 -0.1135  0.7695
 2215TIP3    H128280   6.775   5.834   1.341  0.2228 -0.4002 -1.4504
 2215TIP3    H228281   6.660   5.737   1.358 -0.0481  0.3326  1.3974
 2216TIP3   OH228282   4.213   5.995   0.750  0.4582  0.4793 -0.1225
 2216TIP3    H128283   4.121   5.975   0.731  0.7208 -0.1218 -0.7587
 2216TIP3    H228284   4.208   6.056   0.824 -0.5302  1.8355 -1.2462
 2217TIP3   OH228285   2.654   0.122   5.909 -0.2334  1.0155 -0.0930
 2217TIP3    H128286   2.621   0.153   5.824 -0.7994  1.0713  0.1453
 2217TIP3    H228287   2.580   0.080   5.950 -0.0472  1.2645  0.5124
 2218TIP3   OH228288   2.905   0.473   7.831  0.6199 -0.0487  0.0687
 2218TIP3    H128289   2.821   0.505   7.863  0.2359 -0.3491 -0.6305
 2218TIP3    H228290   2.903   0.378   7.848  0.5229 -0.1680 -0.5953
 2219TIP3   OH228291   1.565   4.369   0.056  0.9621 -0.3852 -0.1515
 2219TIP3    H128292   1.652   4.404   0.075  1.0120 -1.1260  1.1516
 2219TIP3    H228293   1.518   4.378   0.139  0.0468 -0.7227 -0.6250
 2220TIP3   OH228294   3.267   5.143   6.151 -0.6765 -0.2889 -0.2108
 2220TIP3    H128295   3.320   5.080   6.199 -0.1265 -0.0045 -0.4399
 2220TIP3    H228296   3.330   5.202   6.110 -1.1757  0.4469  0.0472
 2221TIP3   OH228297   0.029   5.713   0.303  0.2011  0.2249 -0.3353
 2221TIP3    H128298  -0.011   5.789   0.261  2.3588  1.7398  0.2192
 2221TIP3    H228299  -0.019   5.703   0.385  1.7795  2.9956  1.0804
 2222TIP3   OH228300   4.148   5.885   0.201 -0.7735 -0.4626 -0.0222
 2222TIP3    H128301   4.147   5.896   0.296  1.0505 -0.1253 -0.0107
 2222TIP3    H228302   4.061   5.850   0.180 -1.1532 -0.6813  1.7706
 2223TIP3   OH228303   3.684   4.294   0.984 -0.1528  0.1213 -0.0249
 2223TIP3    H128304   3.753   4.314   1.047 -0.8105 -0.5300  0.9322
 2223TIP3    H228305   3.603   4.298   1.035 -0.7907  0.4841 -1.0392
 2224TIP3   OH228306   3.574   3.309   6.087  0.2259 -0.1797  0.8330
 2224TIP3    H128307   3.567   3.396   6.125 -1.2494  0.7175 -1.3191
 2224TIP3    H228308   3.492   3.266   6.108 -0.3728  0.1265 -0.7097
 2225TIP3   OH228309   3.107   0.837   6.751  0.2807 -0.3173  0.3867
 2225TIP3    H128310   3.034   0.818   6.810  0.7657  0.3880  1.2313
 2225TIP3    H228311   3.075   0.809   6.665 -1.1119  0.2416  0.6771
 2226TIP3   OH228312   4.071   3.438   5.632  0.1635 -0.6448  0.3581
 2226TIP3    H128313   4.147   3.441   5.690  1.6382  0.3555 -1.5283
 2226TIP3    H228314   4.072   3.350   5.595 -0.6061 -1.1843  1.5421
 2227TIP3   OH228315   3.785   2.776   1.971  0.6220  0.1551 -0.0951
 2227TIP3    H128316   3.796   2.766   2.065 -0.6791 -1.0431 -0.0400
 2227TIP3    H228317   3.749   2.693   1.942 -2.4480  1.6776 -1.0823
 2228TIP3   OH228318   2.567   1.585   7.861 -0.1297 -0.2469  0.6382
 2228TIP3    H128319   2.549   1.663   7.807  0.9697 -0.3500  0.0931
 2228TIP3    H228320   2.568   1.513   7.798 -0.9425 -0.6852  1.1139
 2229TIP3   OH228321   3.132   3.700   1.579  0.9989  0.3718  0.0317
 2229TIP3    H128322   3.075   3.727   1.507  0.8405  0.3428  0.1464
 2229TIP3    H228323   3.209   3.756   1.571  0.4029  1.3133  0.6525
 2230TIP3   OH228324   4.244   4.818   6.023 -0.0785 -0.0883  0.4670
 2230TIP3    H128325   4.216   4.889   5.964 -1.8713  0.2149  1.6249
 2230TIP3    H228326   4.307   4.768   5.971  0.6203  1.8685 -0.6733
 2231TIP3   OH228327   4.213   4.820   0.514 -0.2974 -0.4451 -0.1222
 2231TIP3    H128328   4.245   4.769   0.439 -3.0387 -0.8199 -1.1332
 2231TIP3    H228329   4.275   4.892   0.521 -1.5320  1.4933 -4.9224
 2232TIP3   OH228330   3.843   0.099   8.034 -0.2217 -0.2857 -0.4239
 2232TIP3    H128331   3.809   0.155   7.965  1.0965  1.3414  0.1685
 2232TIP3    H228332   3.810   0.137   8.115 -0.1211 -0.9760 -0.0458
 2233TIP3   OH228333   4.781   2.098   8.169  0.0070 -0.3014  0.0309
 2233TIP3    H128334   4.834   2.071   8.093  0.5920  1.3672 -0.1981
 2233TIP3    H228335   4.707   2.037   8.170 -0.6106  0.2835 -2.5667
 2234TIP3   OH228336   6.572   4.823   6.253 -0.4321 -0.6090  0.0563
 2234TIP3    H128337   6.596   4.914   6.266  1.5031 -1.1327  0.3868
 2234TIP3    H228338   6.476   4.823   6.259 -0.5972  1.5837 -1.2621
 2235TIP3   OH228339   5.712   1.264   1.899 -0.8909 -0.3090 -0.4128
 2235TIP3    H128340   5.747   1.181   1.932 -1.5267  0.0167  1.2070
 2235TIP3    H228341   5.624   1.242   1.869 -1.0404 -0.2355 -0.0312
 2236TIP3   OH228342   0.258   1.143   2.542 -0.9963 -0.0775 -0.0696
 2236TIP3    H128343   0.308   1.211   2.588  0.1793  0.2999 -1.8088
 2236TIP3    H228344   0.178   1.188   2.513 -2.2134 -0.5678  2.3455
 2237TIP3   OH228345   6.470   1.061   0.691  0.5759 -0.0135 -0.6516
 2237TIP3    H128346   6.404   1.002   0.729  1.4580 -2.1493 -2.2409
 2237TIP3    H228347   6.504   1.111   0.766 -1.2068 -0.4847  0.5338
 2238TIP3   OH228348   7.052   5.662   0.584  0.3929  0.1258 -0.0858
 2238TIP3    H128349   7.092   5.703   0.660  1.1672 -0.7215 -0.0129
 2238TIP3    H228350   7.066   5.568   0.597  0.6324 -0.0254 -1.3083
 2239TIP3   OH228351   6.530   6.783   7.553 -0.1120  0.0788  0.0638
 2239TIP3    H128352   6.596   6.771   7.485  1.4621 -2.2846  1.8407
 2239TIP3    H228353   6.448   6.796   7.505  1.2008  0.4687 -2.2189
 2240TIP3   OH228354   4.726   2.668   2.068 -0.1773 -0.2686  0.3972
 2240TIP3    H128355   4.805   2.690   2.019 -0.0837  0.5044  0.8759
 2240TIP3    H228356   4.750   2.683   2.160  0.3769 -3.8330  0.9541
 2241TIP3   OH228357   1.681   3.949   0.377 -0.7858  0.0854  0.0951
 2241TIP3    H128358   1.671   4.038   0.345 -1.1589  0.1769  0.4557
 2241TIP3    H228359   1.617   3.898   0.327 -2.4353  0.4833  1.6609
 2242TIP3   OH228360   5.047   0.902   6.544  0.2458  0.2165  0.2166
 2242TIP3    H128361   5.012   0.983   6.581  0.8848  0.6709 -0.1507
 2242TIP3    H228362   5.033   0.837   6.613  1.6655  1.1107  1.4179
 2243TIP3   OH228363   1.176   3.692   2.084 -0.0830  0.0340  0.1815
 2243TIP3    H128364   1.212   3.729   2.165  0.6461  1.9373 -0.9503
 2243TIP3    H228365   1.082   3.705   2.092  0.0190  0.5838  0.5721
 2244TIP3   OH228366   3.534   6.147   7.246 -0.1529 -0.7620  0.8671
 2244TIP3    H128367   3.459   6.106   7.202  0.3615 -1.1067  0.2965
 2244TIP3    H228368   3.581   6.074   7.287  0.7090 -0.7533 -0.0636
 2245TIP3   OH228369   0.707   3.494   1.019  0.2707 -0.1793 -0.4559
 2245TIP3    H128370   0.795   3.499   1.056 -0.0849 -1.9361  0.7239
 2245TIP3    H228371   0.694   3.580   0.978  1.2514  1.3691  2.2478
 2246TIP3   OH228372   4.739   2.201   7.611  0.2632  0.5814  0.4976
 2246TIP3    H128373   4.780   2.283   7.583  0.6250  0.0944 -0.4632
 2246TIP3    H228374   4.653   2.200   7.567  1.4177 -0.8762 -2.0011
 2247TIP3   OH228375   0.323   0.791   6.346 -0.0839  0.2776  0.0980
 2247TIP3    H128376   0.285   0.704   6.335  1.8850 -0.5897 -0.3038
 2247TIP3    H228377   0.255   0.851   6.315 -1.2431 -1.1490 -0.2276
 2248TIP3   OH228378   6.497   0.088   0.643  0.4018  0.3385  0.2066
 2248TIP3    H128379   6.489   0.140   0.723  1.2969  1.3228 -0.3193
 2248TIP3    H228380   6.471   0.147   0.573  1.6553  0.1592 -0.4329
 2249TIP3   OH228381   2.640   3.802   7.354  0.2854 -0.3342 -0.2865
 2249TIP3    H128382   2.655   3.708   7.367  0.2478 -0.5946 -1.9525
 2249TIP3    H228383   2.629   3.812   7.259  0.9173  1.4459 -0.2045
 2250TIP3   OH228384   3.490   1.856   2.014 -0.3853  0.3196  0.2085
 2250TIP3    H128385   3.536   1.830   2.094  0.3874 -1.1248 -0.6532
 2250TIP3    H228386   3.499   1.780   1.956 -1.7531  0.9668 -0.9045
 2251TIP3   OH228387   0.361   3.679   8.020 -0.3677  0.1430 -0.2278
 2251TIP3    H128388   0.430   3.736   8.054  0.7727 -0.3177 -1.6915
 2251TIP3    H228389   0.332   3.723   7.940  0.3604 -1.1744 -1.2418
 2252TIP3   OH228390   4.471   3.281   6.499  0.0239 -0.3357  0.1758
 2252TIP3    H128391   4.408   3.237   6.556  0.3808 -0.0764  0.7893
 2252TIP3    H228392   4.423   3.356   6.464 -0.2326 -0.5612  0.0405
 2253TIP3   OH228393   5.450   3.517   7.121 -0.2381 -0.0358  0.2556
 2253TIP3    H128394   5.503   3.447   7.159  1.1856  1.6865  1.6189
 2253TIP3    H228395   5.463   3.509   7.027  2.2679  0.1436  0.5372
 2254TIP3   OH228396   1.580   4.630   7.872  0.5250 -0.3957  0.3933
 2254TIP3    H128397   1.557   4.537   7.885  0.1710 -0.0986  2.2360
 2254TIP3    H228398   1.669   4.628   7.837 -0.2477 -1.4501 -1.6712
 2255TIP3   OH228399   1.352   0.726   1.172 -0.0220 -0.2475  0.5328
 2255TIP3    H128400   1.430   0.675   1.149  0.5421 -0.3465  2.5117
 2255TIP3    H228401   1.307   0.673   1.239  0.0647  1.3710  1.9391
 2256TIP3   OH228402   4.225   5.917   0.467  0.0604  0.4412 -0.1760
 2256TIP3    H128403   4.284   5.938   0.540 -0.0077  0.4439 -0.1208
 2256TIP3    H228404   4.139   5.911   0.508 -0.1509  1.4949 -0.4274
 2257TIP3   OH228405   0.220   3.651   7.078 -0.4911  0.2244  0.1395
 2257TIP3    H128406   0.186   3.687   6.996  1.1670 -0.1303 -0.7553
 2257TIP3    H228407   0.296   3.600   7.051  0.5290  0.6932  1.9998
 2258TIP3   OH228408   5.768   5.700   6.058 -0.4055  0.0070  0.3334
 2258TIP3    H128409   5.729   5.748   6.131  2.6522 -0.5583  2.5888
 2258TIP3    H228410   5.829   5.762   6.019  2.3446 -1.2920  2.2108
 2259TIP3   OH228411   1.910   1.314   0.908  0.7103 -0.1542 -0.2864
 2259TIP3    H128412   1.867   1.364   0.977  3.0599  0.9640  0.4571
 2259TIP3    H228413   1.959   1.246   0.954  3.2963  1.3467 -0.6189
 2260TIP3   OH228414   4.062   4.129   7.350 -0.9417 -0.0783  0.6579
 2260TIP3    H128415   4.134   4.155   7.293 -0.9956 -1.4739 -0.0975
 2260TIP3    H228416   4.102   4.116   7.436 -0.6464  0.8892  0.6819
 2261TIP3   OH228417   6.478   1.515   8.169  0.7708 -0.5082 -0.2415
 2261TIP3    H128418   6.469   1.420   8.170 -0.4917 -0.4185  1.3842
 2261TIP3    H228419   6.562   1.532   8.211  0.5002 -0.8880  0.4668
 2262TIP3   OH228420   3.868   5.192   0.533  0.4444 -0.3263  0.5872
 2262TIP3    H128421   3.918   5.129   0.481 -0.1231 -0.0112 -0.3769
 2262TIP3    H228422   3.803   5.227   0.472 -0.2040  0.1149  1.5058
 2263TIP3   OH228423   3.039   0.239   7.503  0.5622 -0.5433  0.3271
 2263TIP3    H128424   2.953   0.210   7.534 -0.8854  0.7205 -2.1647
 2263TIP3    H228425   3.022   0.323   7.461  2.6757 -1.0459 -1.7580
 2264TIP3   OH228426   2.361   4.314   6.576 -0.1769 -0.0917  0.4197
 2264TIP3    H128427   2.292   4.375   6.604  0.5562  1.0440 -0.1561
 2264TIP3    H228428   2.366   4.249   6.646 -0.8542  0.6242  1.1506
 2265TIP3   OH228429   5.439   1.389   6.734  0.2016 -0.1680 -0.1281
 2265TIP3    H128430   5.481   1.313   6.694  0.5360  0.8586 -1.8447
 2265TIP3    H228431   5.511   1.449   6.753 -0.0509 -0.2908  1.3028
 2266TIP3   OH228432   6.359   0.975   2.308 -0.1784 -0.0328  0.1685
 2266TIP3    H128433   6.445   0.956   2.271  0.4766  0.7600  1.2341
 2266TIP3    H228434   6.343   0.905   2.370 -0.2920 -0.1552  0.0034
 2267TIP3   OH228435   5.344   2.674   1.120 -0.1343 -0.3067  0.0409
 2267TIP3    H128436   5.367   2.625   1.041  0.1879 -0.1596  0.0420
 2267TIP3    H228437   5.369   2.616   1.192  1.1787  0.2448  0.0631
 2268TIP3   OH228438   6.361   2.735   1.056 -0.1051 -0.1840 -0.3439
 2268TIP3    H128439   6.343   2.796   0.985  1.8291  0.0624 -0.6547
 2268TIP3    H228440   6.439   2.769   1.099  1.4789 -2.7500 -0.9566
 2269TIP3   OH228441   5.994   1.534   7.224  0.2473 -0.4167 -0.8935
 2269TIP3    H128442   5.959   1.498   7.306 -0.3268  0.3766 -0.7771
 2269TIP3    H228443   6.077   1.487   7.211  0.3637 -0.5320  0.1572
 2270TIP3   OH228444   6.652   2.859   7.978 -0.2599  0.1114  0.0606
 2270TIP3    H128445   6.718   2.791   7.991 -1.9955 -1.6906 -0.1505
 2270TIP3    H228446   6.701   2.933   7.942  1.4059 -1.7536 -1.7552
 2271TIP3   OH228447   0.320   4.286   6.036  0.3344 -0.3672 -0.1886
 2271TIP3    H128448   0.274   4.342   5.973  0.4544  0.1509  0.1846
 2271TIP3    H228449   0.291   4.197   6.014 -0.4635 -0.0927 -0.2757
 2272TIP3   OH228450   2.037   4.892   0.301  0.0885  0.5938 -0.3173
 2272TIP3    H128451   2.092   4.851   0.367  0.4881  0.6178 -0.6285
 2272TIP3    H228452   1.981   4.952   0.350 -0.5216 -0.3328  0.1411
 2273TIP3   OH228453   5.635   5.941   6.875 -0.4551 -0.2451  0.8092
 2273TIP3    H128454   5.708   5.932   6.936 -1.1603 -1.5617  1.4902
 2273TIP3    H228455   5.628   6.035   6.859  1.3256 -0.0903  0.7902
 2274TIP3   OH228456   6.995   1.645   1.916 -0.0252  0.3729  0.2834
 2274TIP3    H128457   7.065   1.651   1.981 -0.2498  0.4363  0.5217
 2274TIP3    H228458   6.918   1.619   1.966 -0.3358  0.9790  0.1375
 2275TIP3   OH228459   4.201   0.085   0.708  0.1306  0.2625 -0.2997
 2275TIP3    H128460   4.215   0.179   0.705  0.9181  0.1323 -1.5054
 2275TIP3    H228461   4.268   0.049   0.649  0.5560 -1.1303  0.9617
 2276TIP3   OH228462   4.017   2.108   7.560  0.6548  0.0310 -0.2365
 2276TIP3    H128463   3.961   2.072   7.629  0.5766  0.8860  0.1509
 2276TIP3    H228464   4.090   2.046   7.555  0.3743 -0.3497  0.2112
 2277TIP3   OH228465   4.103   1.536   7.561  0.0095  1.1399 -0.4257
 2277TIP3    H128466   4.186   1.531   7.609  1.5527  0.2882 -2.9864
 2277TIP3    H228467   4.045   1.476   7.608  1.3834  0.4501  0.4659
 2278TIP3   OH228468   6.888   2.140   7.131 -0.9505  0.8110 -0.5457
 2278TIP3    H128469   6.898   2.060   7.183 -1.1104  0.5960 -0.8462
 2278TIP3    H228470   6.865   2.208   7.196 -2.0204  0.3670 -0.4333
 2279TIP3   OH228471   6.195   3.182   0.297 -0.3225 -0.6020 -0.1417
 2279TIP3    H128472   6.110   3.180   0.342 -0.7848 -0.6154 -0.9841
 2279TIP3    H228473   6.237   3.100   0.321 -0.0778 -0.1183  1.1471
 2280TIP3   OH228474   4.034   6.791   0.301  0.3775 -0.2342  0.4507
 2280TIP3    H128475   3.976   6.753   0.235  0.4839 -0.2968  0.3944
 2280TIP3    H228476   4.113   6.738   0.297 -0.0842 -1.0577  1.5050
 2281TIP3   OH228477   5.490   4.645   7.616  0.3803  0.1018  0.6863
 2281TIP3    H128478   5.502   4.552   7.638 -1.0201 -0.2197  0.2429
 2281TIP3    H228479   5.413   4.645   7.559  0.4212  1.5420  0.6136
 2282TIP3   OH228480   5.049   0.631   0.471  0.3844 -0.0379  0.4437
 2282TIP3    H128481   5.137   0.632   0.509  1.3049 -0.7492 -1.5730
 2282TIP3    H228482   5.063   0.619   0.377 -1.8751 -0.0960  0.0630
 2283TIP3   OH228483   3.971   1.681   0.770  0.2690  0.3060  0.4779
 2283TIP3    H128484   4.060   1.717   0.766 -0.0815  1.2547  0.9268
 2283TIP3    H228485   3.925   1.738   0.831 -0.4761 -0.5804  0.7649
 2284TIP3   OH228486   4.219   2.879   1.174 -0.1309  0.7045  0.4962
 2284TIP3    H128487   4.135   2.922   1.188 -0.2328  0.6823 -0.0509
 2284TIP3    H228488   4.284   2.940   1.209 -0.4064  0.4988  1.3905
 2285TIP3   OH228489   0.183   3.498   0.221  0.7736  0.3726 -0.2227
 2285TIP3    H128490   0.127   3.556   0.272 -0.6558 -0.0303 -1.2752
 2285TIP3    H228491   0.156   3.513   0.130  3.4503  1.3050 -0.9737
 2286TIP3   OH228492   5.659   5.559   5.750 -0.3217 -0.1678 -0.0593
 2286TIP3    H128493   5.625   5.485   5.699 -1.8198  0.8209 -0.5678
 2286TIP3    H228494   5.661   5.632   5.688  1.4006  0.1928  0.3601
 2287TIP3   OH228495   6.524   5.496   1.289 -0.5717 -0.5046 -0.0936
 2287TIP3    H128496   6.496   5.472   1.378 -0.5845 -1.4856 -0.3497
 2287TIP3    H228497   6.536   5.590   1.293 -0.8361 -0.4949  0.8845
 2288TIP3   OH228498   4.241   0.982   0.788 -0.2580 -0.4488 -0.0464
 2288TIP3    H128499   4.271   0.964   0.699  0.4841 -1.7049  0.4317
 2288TIP3    H228500   4.170   0.919   0.802  1.8965 -2.6868  1.4119
 2289TIP3   OH228501   0.709   4.355   0.131 -0.0159  0.2352  0.0075
 2289TIP3    H128502   0.719   4.385   0.221 -0.6283 -1.9752  0.8800
 2289TIP3    H228503   0.614   4.352   0.117 -0.0132 -1.4740  0.0927
 2290TIP3   OH228504   4.497   1.082   0.243  0.3062  0.0681 -0.2409
 2290TIP3    H128505   4.450   1.058   0.163  0.2274 -0.3443 -0.0701
 2290TIP3    H228506   4.554   1.008   0.262 -0.0834 -0.0822  0.3950
 2291TIP3   OH228507   3.887   3.015   2.205 -0.0486  0.0013  0.1750
 2291TIP3    H128508   3.832   2.939   2.223 -0.4913 -0.0095 -1.1123
 2291TIP3    H228509   3.834   3.090   2.230  0.5186 -0.1013  1.7715
 2292TIP3   OH228510   5.421   6.868   6.461  0.2959 -0.4473 -0.2690
 2292TIP3    H128511   5.349   6.805   6.452 -0.4036  0.0900  1.1651
 2292TIP3    H228512   5.498   6.815   6.481  0.0409 -0.9458 -0.6062
 2293TIP3   OH228513   6.149   5.360   7.847 -0.3123  0.0874 -0.7552
 2293TIP3    H128514   6.138   5.379   7.754 -1.0087 -0.0453 -0.7030
 2293TIP3    H228515   6.074   5.305   7.870  1.4538 -2.5749 -0.8680
 2294TIP3   OH228516   3.239   2.305   1.245 -0.0606  0.1636 -0.5089
 2294TIP3    H128517   3.295   2.316   1.168 -0.1260  0.1296 -0.5618
 2294TIP3    H228518   3.150   2.313   1.211 -0.1260 -0.7180 -0.5868
 2295TIP3   OH228519   3.625   0.866   1.899  0.6622  0.3795  0.1901
 2295TIP3    H128520   3.661   0.781   1.924  0.4382  0.6261  1.4313
 2295TIP3    H228521   3.697   0.910   1.854  1.5095  0.3647  1.4750
 2296TIP3   OH228522   1.437   6.467   1.606 -0.0703 -0.2351  0.2823
 2296TIP3    H128523   1.439   6.372   1.620 -2.3427 -0.8810 -2.8380
 2296TIP3    H228524   1.381   6.501   1.676  0.2127 -1.2567  1.0288
 2297TIP3   OH228525   2.229   0.400   7.274 -0.2701  0.5429  0.0225
 2297TIP3    H128526   2.143   0.441   7.270 -0.4290  0.2228  0.0950
 2297TIP3    H228527   2.289   0.465   7.237 -0.8435 -0.0397 -2.1171
 2298TIP3   OH228528   3.499   2.609   7.071 -0.2566  0.7706 -0.1539
 2298TIP3    H128529   3.554   2.676   7.030  0.5976  0.0604 -0.2012
 2298TIP3    H228530   3.528   2.527   7.032 -0.9962  0.3190  0.2174
 2299TIP3   OH228531   0.881   6.488   0.218 -0.4201 -0.1558  0.2346
 2299TIP3    H128532   0.817   6.423   0.248 -0.4537 -0.2160  0.0300
 2299TIP3    H228533   0.941   6.497   0.292 -0.9686  0.2996  0.6383
 2300TIP3   OH228534   0.399   2.577   7.228  0.6946  0.5287  0.3842
 2300TIP3    H128535   0.383   2.547   7.317  2.3572  1.4580  1.0322
 2300TIP3    H228536   0.374   2.669   7.229 -1.1824  0.0964 -0.6996
 2301TIP3   OH228537   2.720   6.207   7.032  0.4598 -0.3182 -0.2205
 2301TIP3    H128538   2.718   6.180   7.123 -1.6795 -0.0688 -0.1418
 2301TIP3    H228539   2.732   6.302   7.036 -0.1885 -0.2375 -0.1748
 2302TIP3   OH228540   1.690   3.352   6.746 -0.9404 -0.7312 -0.2420
 2302TIP3    H128541   1.637   3.432   6.750 -0.0733 -0.1869  0.6296
 2302TIP3    H228542   1.730   3.354   6.659 -2.5911 -1.3264 -1.0560
 2303TIP3   OH228543   2.909   5.927   6.272 -1.2704 -0.2167  0.2778
 2303TIP3    H128544   2.855   5.918   6.350 -1.7349 -1.6455 -0.1871
 2303TIP3    H228545   2.957   5.844   6.266  0.8701  0.9071  0.5672
 2304TIP3   OH228546   0.962   4.483   0.977 -0.1875  0.1582 -0.0218
 2304TIP3    H128547   1.031   4.417   0.981 -0.5833 -0.4726 -2.4855
 2304TIP3    H228548   0.945   4.496   0.884  0.1112  4.0175  0.2927
 2305TIP3   OH228549   3.384   5.836   6.397  0.7393  0.0718 -0.0625
 2305TIP3    H128550   3.421   5.918   6.363  0.0870  0.8525  1.0531
 2305TIP3    H228551   3.297   5.860   6.427  0.7105 -0.9432  0.7110
 2306TIP3   OH228552   6.901   6.077   0.934  0.4469 -0.1613 -0.0674
 2306TIP3    H128553   6.899   6.171   0.918 -1.4619 -0.1699 -0.0752
 2306TIP3    H228554   6.966   6.043   0.872  0.0483  0.9551 -1.1314
 2307TIP3   OH228555   5.643   6.794   1.163  0.7955  0.0351 -0.2536
 2307TIP3    H128556   5.663   6.885   1.185  1.4508  0.0876 -1.0547
 2307TIP3    H228557   5.593   6.763   1.239  0.0435  1.2271 -0.2262
 2308TIP3   OH228558   2.676   4.060   1.285 -0.5719  0.2914 -0.0508
 2308TIP3    H128559   2.671   4.024   1.196  0.3300  1.2191 -0.4918
 2308TIP3    H228560   2.768   4.051   1.310 -0.7347  0.4318  0.6205
 2309TIP3   OH228561   4.997   4.475   6.758  0.1239 -0.2746  0.0488
 2309TIP3    H128562   5.008   4.473   6.663  0.2559  0.5434  0.0343
 2309TIP3    H228563   4.945   4.397   6.778  0.8662 -0.9483 -0.5824
 2310TIP3   OH228564   3.210   0.997   0.020  0.0823  0.1662 -0.2960
 2310TIP3    H128565   3.133   1.054   0.015 -0.1989 -0.2537 -0.9626
 2310TIP3    H228566   3.253   1.008  -0.065  1.1590  0.9302  0.3299
 2311TIP3   OH228567   3.303   0.366   6.454  0.0988 -0.4537 -0.1754
 2311TIP3    H128568   3.313   0.411   6.370 -0.9143 -0.7331 -0.4545
 2311TIP3    H228569   3.290   0.274   6.430  0.3215 -0.6135  0.3142
 2312TIP3   OH228570   4.988   0.859   7.225 -0.3280  0.1449  0.1819
 2312TIP3    H128571   5.074   0.900   7.216 -0.1623 -0.4963 -1.3183
 2312TIP3    H228572   4.936   0.925   7.271  0.2477  1.5982 -1.1662
 2313TIP3   OH228573   0.637   2.022   1.183 -0.1994 -0.3536  0.4412
 2313TIP3    H128574   0.567   1.963   1.154 -0.0316 -1.6952  2.5334
 2313TIP3    H228575   0.593   2.105   1.201 -0.3429  0.5351 -3.2339
 2314TIP3   OH228576   5.243   7.008   1.256  0.2257 -0.0173  0.1729
 2314TIP3    H128577   5.252   6.918   1.288  2.2750 -0.2545 -0.8797
 2314TIP3    H228578   5.326   7.050   1.278 -0.1775  1.2157 -0.5388
 2315TIP3   OH228579   4.808   5.525   1.037  0.3075 -0.8081 -0.3561
 2315TIP3    H128580   4.774   5.453   1.090 -0.5603 -1.8423 -2.2403
 2315TIP3    H228581   4.738   5.589   1.036  0.6610 -0.3935  0.4226
 2316TIP3   OH228582   0.693   3.484   0.385  0.5330 -0.4311  0.7594
 2316TIP3    H128583   0.638   3.513   0.457  1.1135  0.6871  0.7708
 2316TIP3    H228584   0.632   3.452   0.319 -0.2026  1.4041  0.4914
 2317TIP3   OH228585   6.638   5.113   7.816 -0.5971  0.2164  0.1763
 2317TIP3    H128586   6.680   5.074   7.894 -1.8901  0.0227  0.8092
 2317TIP3    H228587   6.589   5.187   7.850 -0.2319  0.8568 -0.6566
 2318TIP3   OH228588   2.772   5.245   1.090  0.3458 -0.0504  0.0062
 2318TIP3    H128589   2.864   5.258   1.067 -0.0043  0.9967 -0.8821
 2318TIP3    H228590   2.735   5.197   1.016  0.0929 -0.1273  0.1796
 2319TIP3   OH228591   1.416   6.514   8.011 -0.5908  0.0588 -0.2183
 2319TIP3    H128592   1.444   6.423   8.005 -1.0343 -0.4364  3.1809
 2319TIP3    H228593   1.497   6.565   8.003  0.4450 -0.9787  2.4025
 2320TIP3   OH228594   3.486   1.423   2.267  0.2210  0.1587 -0.1425
 2320TIP3    H128595   3.529   1.477   2.333 -0.3633 -0.0942  0.4542
 2320TIP3    H228596   3.426   1.366   2.317 -0.9676  0.6544 -0.9527
 2321TIP3   OH228597   4.182   7.027   0.300 -0.6081 -0.2323 -0.4326
 2321TIP3    H128598   4.115   7.090   0.276 -1.7952 -1.4888 -0.5774
 2321TIP3    H228599   4.134   6.945   0.313  0.8069 -1.0014  0.2100
 2322TIP3   OH228600   4.680   0.126   1.310 -0.4148  0.1402 -0.2918
 2322TIP3    H128601   4.635   0.193   1.361 -0.0018 -0.5637  1.0566
 2322TIP3    H228602   4.749   0.174   1.263 -1.3714  0.9306 -0.9271
 2323TIP3   OH228603   5.961   3.006   1.216 -0.4423 -0.0824 -0.1658
 2323TIP3    H128604   5.980   2.918   1.183 -1.1936  0.1389 -1.2542
 2323TIP3    H228605   6.017   3.063   1.164  0.0367  0.0968  0.5316
 2324TIP3   OH228606   0.681   0.010   6.048  0.5706  0.0628  0.8122
 2324TIP3    H128607   0.690   0.007   5.953 -0.0231 -1.0651  0.7885
 2324TIP3    H228608   0.587   0.005   6.064  0.4438  2.7147  1.4010
 2325TIP3   OH228609   5.084   2.373   1.138  0.1827  0.1373 -0.2497
 2325TIP3    H128610   5.001   2.341   1.171  0.4915 -0.8446 -0.3809
 2325TIP3    H228611   5.062   2.453   1.089 -1.1381 -1.6820 -2.8742
 2326TIP3   OH228612   2.855   6.770   2.164 -0.4135  0.1816  0.0814
 2326TIP3    H128613   2.900   6.691   2.135  2.0501  1.3018  0.5925
 2326TIP3    H228614   2.763   6.754   2.143  0.2816 -1.9071 -1.8246
 2327TIP3   OH228615   2.803   3.439   1.620 -0.3191 -0.7108 -0.1741
 2327TIP3    H128616   2.714   3.411   1.642 -0.2842 -0.4928  0.2494
 2327TIP3    H228617   2.791   3.517   1.566 -0.3921 -0.8673 -0.3834
 2328TIP3   OH228618   5.658   5.427   6.258  0.2708 -0.8227 -1.2024
 2328TIP3    H128619   5.595   5.360   6.233 -0.6747 -1.3789  2.2447
 2328TIP3    H228620   5.616   5.510   6.235 -0.6412 -1.2751 -1.1875
 2329TIP3   OH228621   0.597   6.822   1.147 -0.3202 -0.2209 -0.0265
 2329TIP3    H128622   0.626   6.866   1.226 -0.6494  0.6025 -0.3581
 2329TIP3    H228623   0.591   6.891   1.081 -1.9449 -0.5374 -0.2608
 2330TIP3   OH228624   3.381   4.111   1.950  0.6568  0.1428 -0.3334
 2330TIP3    H128625   3.437   4.036   1.929  0.3395 -0.0322 -0.5688
 2330TIP3    H228626   3.442   4.181   1.973  0.9682 -0.0636 -0.5250
 2331TIP3   OH228627   0.363   0.360   7.353 -0.0478  0.0239  0.3113
 2331TIP3    H128628   0.313   0.302   7.409 -1.5694 -0.2707 -1.2540
 2331TIP3    H228629   0.330   0.448   7.373  0.5834  0.1160  1.0044
 2332TIP3   OH228630   7.074   4.034   0.901  0.4761 -0.8652  0.4263
 2332TIP3    H128631   7.168   4.016   0.911  0.5594 -2.1249 -1.8918
 2332TIP3    H228632   7.035   3.948   0.885 -0.9224 -0.2348  0.3326
 2333TIP3   OH228633   6.727   4.030   2.265 -0.1468 -0.0746  0.0679
 2333TIP3    H128634   6.805   3.980   2.291  0.1029  0.4828  0.4161
 2333TIP3    H228635   6.759   4.120   2.254 -0.2983 -0.2120 -1.9053
 2334TIP3   OH228636   5.080   3.847   1.546 -0.3803 -0.3220 -0.5485
 2334TIP3    H128637   5.139   3.774   1.561  1.1118  0.4661 -2.2503
 2334TIP3    H228638   5.104   3.881   1.460 -1.9708  1.3047 -0.4236
 2335TIP3   OH228639   6.217   3.916   1.103  0.3977  0.7574 -0.3541
 2335TIP3    H128640   6.240   3.901   1.195  1.2426  1.4071 -0.4547
 2335TIP3    H228641   6.126   3.888   1.097  1.0205 -1.5655  0.1282
 2336TIP3   OH228642   5.940   5.935   1.091 -0.1646 -0.1367 -0.0313
 2336TIP3    H128643   5.934   6.000   1.021 -0.1444  0.0219  0.1127
 2336TIP3    H228644   6.007   5.969   1.150 -2.5446  1.5543  1.9348
 2337TIP3   OH228645   5.970   1.354   0.849 -0.0474 -0.0014 -0.5457
 2337TIP3    H128646   5.984   1.404   0.930 -0.8275 -1.7032  0.6982
 2337TIP3    H228647   5.951   1.420   0.783  0.1823  1.4171  0.7527
 2338TIP3   OH228648   5.479   2.544   6.836 -0.2798  0.1679 -0.7806
 2338TIP3    H128649   5.484   2.466   6.782 -1.1242  0.8998 -1.9665
 2338TIP3    H228650   5.553   2.598   6.808  1.5702 -1.0265  1.4885
 2339TIP3   OH228651   1.329   2.422   0.973  0.2365 -0.2425  0.0347
 2339TIP3    H128652   1.344   2.390   0.884  2.1751  1.1495 -0.1943
 2339TIP3    H228653   1.402   2.482   0.990 -1.7317  1.9435  1.4188
 2340TIP3   OH228654   3.084   4.527   7.836  0.1131 -1.1084 -0.5177
 2340TIP3    H128655   3.151   4.474   7.793  0.8959  0.6591 -1.5805
 2340TIP3    H228656   3.117   4.539   7.925  0.8932 -0.8479 -0.8270
 2341TIP3   OH228657   2.051   5.877   7.544  0.0721  0.1224  0.3714
 2341TIP3    H128658   1.972   5.843   7.586  0.1458 -0.6259 -0.0953
 2341TIP3    H228659   2.122   5.851   7.603  0.0955 -0.2529  0.1774
 2342TIP3   OH228660   3.948   1.406   0.597  0.2718 -0.2722  1.1160
 2342TIP3    H128661   4.026   1.419   0.543 -0.3649  0.8405  0.4264
 2342TIP3    H228662   3.960   1.465   0.671 -0.3307  0.6195  0.5236
 2343TIP3   OH228663   3.551   4.057   7.980  0.7331  0.1823 -0.2555
 2343TIP3    H128664   3.523   4.108   8.056  2.2926  2.1842 -0.9386
 2343TIP3    H228665   3.619   3.999   8.013 -0.6824 -1.1789  0.4196
 2344TIP3   OH228666   0.161   0.592   7.225 -0.3875  0.2456  0.1645
 2344TIP3    H128667   0.222   0.661   7.197 -0.0200 -1.1481 -2.7722
 2344TIP3    H228668   0.197   0.561   7.308  3.5061 -1.0540 -1.7767
 2345TIP3   OH228669   3.954   1.873   6.684  0.0717  0.2611  0.3000
 2345TIP3    H128670   3.947   1.795   6.740 -2.1699 -0.0353 -0.2727
 2345TIP3    H228671   4.031   1.857   6.630 -0.3965 -1.6584  0.1218
 2346TIP3   OH228672   4.537   4.290   1.219  0.4634 -0.5923  0.0059
 2346TIP3    H128673   4.632   4.300   1.208  0.5180  0.2561  1.0933
 2346TIP3    H228674   4.527   4.207   1.264  0.7463 -0.3736  0.4853
 2347TIP3   OH228675   3.762   3.236   7.603  0.1732  0.5212 -0.3295
 2347TIP3    H128676   3.684   3.216   7.552 -0.4618  1.0210  0.4134
 2347TIP3    H228677   3.806   3.305   7.554 -0.6333  1.2648 -0.0287
 2348TIP3   OH228678   6.878   5.967   5.741 -0.1112 -0.5202  0.5656
 2348TIP3    H128679   6.863   6.032   5.672 -0.6491 -0.3318  0.8567
 2348TIP3    H228680   6.853   6.012   5.822  1.1016 -0.5278  0.9659
 2349TIP3   OH228681   0.029   2.599   7.408 -0.7028  0.0009  0.8479
 2349TIP3    H128682   0.035   2.537   7.335 -2.6987 -0.8300  1.3372
 2349TIP3    H228683   0.120   2.617   7.431 -0.0492 -1.0407 -0.7352
 2350TIP3   OH228684   5.628   6.262   7.515  0.0832  0.4238 -0.4354
 2350TIP3    H128685   5.721   6.261   7.492 -0.3857  0.6212 -2.5639
 2350TIP3    H228686   5.612   6.175   7.552  1.0427  0.2856 -0.3151
 2351TIP3   OH228687   4.132   2.034   7.210  0.0266 -0.2478  0.0633
 2351TIP3    H128688   4.082   2.104   7.252  1.2705 -1.3152  3.7234
 2351TIP3    H228689   4.203   2.079   7.165 -0.9635  0.9465 -0.3763
 2352TIP3   OH228690   3.444   4.164   7.163  0.1997  0.3289 -0.1194
 2352TIP3    H128691   3.416   4.230   7.226 -1.4610  0.8802 -1.3462
 2352TIP3    H228692   3.410   4.196   7.079  0.5384 -1.4084 -0.9579
 2353TIP3   OH228693   0.958   3.858   0.457 -0.5465  0.8142  0.2790
 2353TIP3    H128694   0.902   3.868   0.534  0.8793 -0.2414  1.4993
 2353TIP3    H228695   1.038   3.818   0.490 -0.6283 -1.5944 -2.0327
 2354TIP3   OH228696   2.757   2.653   8.281 -0.0545 -0.0816 -0.6155
 2354TIP3    H128697   2.693   2.626   8.347  0.5982 -1.8086 -0.6535
 2354TIP3    H228698   2.704   2.675   8.204 -0.7971  1.6495  0.3390
 2355TIP3   OH228699   3.517   0.056   8.212  0.3800 -0.5902 -0.0168
 2355TIP3    H128700   3.498   0.055   8.306  1.2516  0.9465  0.2235
 2355TIP3    H228701   3.492  -0.031   8.181 -1.0914 -0.7176  1.3874
 2356TIP3   OH228702   5.264   5.700   8.006  0.1702 -0.2725 -0.1968
 2356TIP3    H128703   5.239   5.706   8.098 -0.9202 -0.6188 -0.4543
 2356TIP3    H228704   5.183   5.676   7.961  1.1831 -2.5966 -0.9475
 2357TIP3   OH228705   3.010   3.023   7.319 -0.3824 -0.4356 -0.2516
 2357TIP3    H128706   2.928   3.049   7.363  0.4295  2.1474 -0.1373
 2357TIP3    H228707   3.008   2.927   7.321 -3.0692 -0.4480  0.3595
 2358TIP3   OH228708   3.856   0.491   0.493  0.6936 -0.0491  0.8792
 2358TIP3    H128709   3.822   0.412   0.537  1.6136 -0.3738  1.0382
 2358TIP3    H228710   3.898   0.541   0.564 -0.1854  0.7626  0.8398
 2359TIP3   OH228711   1.915   1.179   1.995  0.1102 -0.2982 -0.2907
 2359TIP3    H128712   1.835   1.127   2.002 -0.2631 -0.0739 -2.1655
 2359TIP3    H228713   1.931   1.211   2.083 -0.2696 -2.6386  0.7093
 2360TIP3   OH228714   1.350   3.842   2.248 -0.2123  0.7854 -0.5538
 2360TIP3    H128715   1.403   3.862   2.171  1.8320  1.7380  1.0142
 2360TIP3    H228716   1.331   3.927   2.288  0.1678  0.2438  0.8533
 2361TIP3   OH228717   5.263   0.878   0.784  0.2778  0.2155  1.1500
 2361TIP3    H128718   5.211   0.807   0.746  0.1175  0.3145  1.1840
 2361TIP3    H228719   5.201   0.950   0.795  0.5006  0.4505  0.8727
 2362TIP3   OH228720   1.970   3.509   0.185 -0.4420 -0.2184  0.3164
 2362TIP3    H128721   2.018   3.592   0.191 -0.7596  0.3188 -2.8123
 2362TIP3    H228722   1.878   3.535   0.180 -0.5192 -0.6671 -1.1454
 2363TIP3   OH228723   1.994   1.645   6.531  1.0220  0.4386 -0.2325
 2363TIP3    H128724   1.915   1.643   6.478  1.3115  0.6765 -0.6719
 2363TIP3    H228725   2.024   1.554   6.532 -1.4837 -0.5940  3.3365
 2364TIP3   OH228726   0.841   1.857   1.266  0.1340 -0.0947  0.1687
 2364TIP3    H128727   0.778   1.925   1.243 -0.2128 -0.8044 -1.0669
 2364TIP3    H228728   0.900   1.899   1.328 -0.1224  1.2975 -0.4975
 2365TIP3   OH228729   2.297   3.604   7.776 -1.1903  0.1491 -0.1086
 2365TIP3    H128730   2.284   3.540   7.706 -3.7914  1.3020 -0.8207
 2365TIP3    H228731   2.229   3.670   7.761 -0.2976  1.7119  2.1213
 2366TIP3   OH228732   2.086   1.789   1.528  0.5687 -0.0220  0.2287
 2366TIP3    H128733   2.125   1.702   1.536  1.1729  0.3514  1.6274
 2366TIP3    H228734   2.151   1.840   1.479  0.2409 -0.3204 -0.5388
 2367TIP3   OH228735   0.676   6.536   1.393 -0.4424 -0.3012  0.1921
 2367TIP3    H128736   0.726   6.466   1.436 -0.9754  1.0852  3.3691
 2367TIP3    H228737   0.731   6.563   1.320  0.9214 -2.3785  0.3740
 2368TIP3   OH228738   1.003   6.709   7.347  0.2351  0.3605  0.6643
 2368TIP3    H128739   1.078   6.731   7.292 -0.4776  0.2697 -0.3685
 2368TIP3    H228740   1.042   6.671   7.426  1.2972  0.9462  0.4469
 2369TIP3   OH228741   7.066   3.406   5.837  0.2676 -0.4239  0.1332
 2369TIP3    H128742   6.971   3.414   5.836  0.2850  0.0844  1.4698
 2369TIP3    H228743   7.083   3.324   5.790 -0.8094 -0.4243 -0.2921
 2370TIP3   OH228744   2.235   1.749   7.139  0.0038  0.4507 -0.1844
 2370TIP3    H128745   2.316   1.727   7.186 -0.3788  1.2861  0.9254
 2370TIP3    H228746   2.182   1.795   7.204 -1.1549  0.3797 -1.0513
 2371TIP3   OH228747   0.563   2.922   0.852  0.0588  0.5407 -0.1679
 2371TIP3    H128748   0.514   2.861   0.797  1.7287  0.5234 -1.7425
 2371TIP3    H228749   0.554   3.006   0.808 -1.2335  1.2483  1.3416
 2372TIP3   OH228750   4.321   1.423   7.060 -0.2676 -0.2118  0.4056
 2372TIP3    H128751   4.301   1.445   7.151  0.2947  0.2950  0.4088
 2372TIP3    H228752   4.266   1.481   7.008  0.5134  0.5598  0.4202
 2373TIP3   OH228753   6.791   2.152   7.531  0.4851 -0.1399 -0.3482
 2373TIP3    H128754   6.845   2.221   7.569 -1.4716  1.7131 -0.6817
 2373TIP3    H228755   6.778   2.179   7.440 -0.4566 -0.8604 -0.4476
 2374TIP3   OH228756   3.436   0.293   7.722  0.1191  0.0472 -0.1335
 2374TIP3    H128757   3.410   0.213   7.676  0.5119  0.1168 -0.4822
 2374TIP3    H228758   3.354   0.343   7.729 -0.1970 -0.5368  0.4056
 2375TIP3   OH228759   5.531   2.608   7.223 -0.3747  0.0926 -0.0874
 2375TIP3    H128760   5.500   2.681   7.169  1.4858 -0.2704 -1.7347
 2375TIP3    H228761   5.603   2.570   7.174  0.2730 -1.3845  1.8722
 2376TIP3   OH228762   0.865   3.912   0.202  0.1509  0.0378  0.0122
 2376TIP3    H128763   0.790   3.854   0.190 -1.8256  2.4205  0.1195
 2376TIP3    H228764   0.903   3.885   0.286  0.2494 -2.0349 -0.6554
 2377TIP3   OH228765   2.911   5.853   1.387 -0.0558 -0.6580 -0.2780
 2377TIP3    H128766   2.819   5.876   1.371  0.2059  0.6021 -0.0152
 2377TIP3    H228767   2.917   5.841   1.482  0.2822  0.3089 -0.1736
 2378TIP3   OH228768   1.192   5.337   6.332  0.2227 -0.7059 -0.0284
 2378TIP3    H128769   1.107   5.355   6.290  0.4508  2.1165  0.5361
 2378TIP3    H228770   1.254   5.333   6.259 -0.1018 -0.6638 -0.3101
 2379TIP3   OH228771   3.612   6.279   1.350  0.5540  0.4498  0.0193
 2379TIP3    H128772   3.682   6.217   1.371 -0.1284  0.2825  1.9829
 2379TIP3    H228773   3.568   6.241   1.274  1.4489 -0.3756 -0.1098
 2380TIP3   OH228774   0.298   5.005   1.676  0.2456  0.2112  0.0425
 2380TIP3    H128775   0.355   5.033   1.605 -0.3307  1.3829  0.0217
 2380TIP3    H228776   0.258   5.086   1.709 -1.7703 -0.6048 -0.2511
 2381TIP3   OH228777   2.246   6.010   7.116  0.2518 -0.0203  0.1443
 2381TIP3    H128778   2.263   5.970   7.030  1.2497 -1.6052  1.0372
 2381TIP3    H228779   2.172   5.960   7.151  0.7078 -0.2645  0.7599
 2382TIP3   OH228780   3.515   1.201   7.160  0.2922  0.2404  0.6629
 2382TIP3    H128781   3.580   1.272   7.161  1.2163 -0.5387 -1.0387
 2382TIP3    H228782   3.530   1.155   7.077 -0.5152 -1.7500  1.5571
 2383TIP3   OH228783   3.710   2.883   8.175  0.3913  0.1912 -0.4150
 2383TIP3    H128784   3.616   2.898   8.163  0.4317  0.3214 -0.5516
 2383TIP3    H228785   3.745   2.876   8.087  0.4888 -0.0009 -0.3621
 2384TIP3   OH228786   1.896   1.912   0.802 -0.0794 -0.0530 -0.0653
 2384TIP3    H128787   1.885   1.949   0.714  1.0911 -0.4754 -0.4007
 2384TIP3    H228788   1.931   1.983   0.854  0.1560 -0.0812 -0.1850
 2385TIP3   OH228789   5.021   5.097   7.002  0.3946  0.6336  0.2051
 2385TIP3    H128790   5.078   5.025   6.974  0.3393  1.0527 -1.0712
 2385TIP3    H228791   4.933   5.065   6.981  0.2477  0.4651  1.0630
 2386TIP3   OH228792   4.992   2.999   2.088  0.1603 -0.6587  0.0273
 2386TIP3    H128793   4.995   2.912   2.048  1.6477 -1.3933  1.6065
 2386TIP3    H228794   5.040   3.055   2.027 -1.3896 -0.7499 -1.3392
 2387TIP3   OH228795   3.256   6.639   7.915  0.6220  0.3850  0.2275
 2387TIP3    H128796   3.228   6.553   7.946 -2.9052  1.2330 -0.0930
 2387TIP3    H228797   3.274   6.626   7.822 -1.8951  0.2410 -0.3215
 2388TIP3   OH228798   4.302   3.381   7.901  0.0178 -0.3508  0.3935
 2388TIP3    H128799   4.240   3.342   7.839 -0.7964  0.2865  0.7795
 2388TIP3    H228800   4.308   3.473   7.875 -0.8651  0.0957  1.6264
 2389TIP3   OH228801   3.637   6.141   1.079 -0.3410  0.4784  0.0806
 2389TIP3    H128802   3.671   6.137   0.989 -0.9542 -0.0008 -0.1383
 2389TIP3    H228803   3.622   6.050   1.103 -2.9843  0.7042 -0.4302
 2390TIP3   OH228804   3.152   4.736   7.126 -0.5596 -0.3631 -0.0152
 2390TIP3    H128805   3.118   4.682   7.198  1.1916 -1.1028  0.3102
 2390TIP3    H228806   3.189   4.813   7.169  0.0824 -0.5919 -0.1381
 2391TIP3   OH228807   1.857   6.178   0.786 -0.3054 -0.7836 -0.0978
 2391TIP3    H128808   1.918   6.191   0.713 -0.4246 -0.6614 -0.1756
 2391TIP3    H228809   1.908   6.200   0.864 -0.2312 -0.7437 -0.1574
 2392TIP3   OH228810   3.784   0.713   1.328  0.8535  0.2035 -0.1054
 2392TIP3    H128811   3.710   0.671   1.284  0.7259 -0.7418  0.9593
 2392TIP3    H228812   3.754   0.725   1.418  0.7931  2.8848 -0.4174
 2393TIP3   OH228813   2.124   3.891   6.248 -0.3855 -0.1272 -0.2152
 2393TIP3    H128814   2.182   3.964   6.272 -2.0885  0.8883  1.0846
 2393TIP3    H228815   2.181   3.814   6.246  1.1380  0.9491  0.1576
 2394TIP3   OH228816   4.983   3.766   1.129 -0.0840  0.4983 -0.0021
 2394TIP3    H128817   4.966   3.741   1.038 -1.7424  0.7850  0.2028
 2394TIP3    H228818   4.915   3.829   1.150  0.8286  1.1384  1.1705
 2395TIP3   OH228819   2.192   0.835   1.084  0.1052 -0.3430  0.5631
 2395TIP3    H128820   2.101   0.808   1.098  0.5960 -1.7770  1.1098
 2395TIP3    H228821   2.204   0.909   1.145 -1.0530  0.7299 -0.4612
 2396TIP3   OH228822   1.570   1.601   7.286 -0.4981  0.4750 -0.7515
 2396TIP3    H128823   1.565   1.549   7.366 -0.8982  2.3753  0.5194
 2396TIP3    H228824   1.488   1.651   7.285 -0.5881  0.3547 -2.4699
 2397TIP3   OH228825   6.928   5.946   6.294 -0.7072  0.1881  0.8944
 2397TIP3    H128826   6.981   5.866   6.293  0.4257  0.8307  2.7273
 2397TIP3    H228827   6.899   5.953   6.385 -0.8132  1.8361  0.7577
 2398TIP3   OH228828   5.308   5.005   1.583  0.1891 -0.0209  0.8196
 2398TIP3    H128829   5.367   5.041   1.650  1.4972  0.4488 -0.5280
 2398TIP3    H228830   5.327   4.911   1.584  0.2813 -0.0026  1.0344
 2399TIP3   OH228831   0.491   3.540   1.823 -0.1168  0.2581  0.4672
 2399TIP3    H128832   0.497   3.604   1.893  0.0552  0.8862 -0.1049
 2399TIP3    H228833   0.552   3.470   1.848  0.5138  0.8403  0.5795
 2400TIP3   OH228834   3.839   3.364   1.228 -0.5218 -0.1816  0.8992
 2400TIP3    H128835   3.768   3.302   1.214 -0.1236 -0.7359  1.2802
 2400TIP3    H228836   3.857   3.401   1.142 -0.2648 -1.1516  0.5246
 2401TIP3   OH228837   5.067   6.648   6.793 -0.2474  0.1883  0.2281
 2401TIP3    H128838   5.093   6.605   6.874  0.7841  1.5815  0.6787
 2401TIP3    H228839   5.009   6.586   6.750  1.6622 -1.9092  0.5203
 2402TIP3   OH228840   6.728   1.346   2.261 -0.4713  0.1105 -0.2293
 2402TIP3    H128841   6.777   1.277   2.306  0.3386 -0.0267 -1.2503
 2402TIP3    H228842   6.796   1.403   2.224 -1.1205  1.7164  0.9479
 2403TIP3   OH228843   1.431   3.905   6.401  0.1653 -0.0196  0.3324
 2403TIP3    H128844   1.427   3.954   6.320  0.7679  2.4054  1.6675
 2403TIP3    H228845   1.409   3.815   6.377 -1.5208  0.9847 -2.1519
 2404TIP3   OH228846   5.045   0.606   8.192  0.4744 -0.7266  0.2596
 2404TIP3    H128847   5.113   0.541   8.174  1.4454  0.6766 -1.4349
 2404TIP3    H228848   4.969   0.576   8.143  0.7968 -0.7894 -0.2090
 2405TIP3   OH228849   2.903   0.407   7.259 -0.5820  0.2323  0.0349
 2405TIP3    H128850   2.872   0.473   7.321  0.8419  1.0739 -0.1205
 2405TIP3    H228851   2.994   0.430   7.241 -0.6452 -0.5834 -1.5909
 2406TIP3   OH228852   5.453   3.618   6.113  0.4430 -0.6858  0.3284
 2406TIP3    H128853   5.501   3.689   6.155 -3.0278  1.2285  1.4473
 2406TIP3    H228854   5.417   3.568   6.186 -1.9426 -0.0162 -0.3003
 2407TIP3   OH228855   6.014   4.368   6.501 -0.4006 -0.0464 -0.4739
 2407TIP3    H128856   5.926   4.391   6.530  0.5874  1.9475  1.2050
 2407TIP3    H228857   6.002   4.341   6.410 -2.8132 -0.5573 -0.0881
 2408TIP3   OH228858   2.772   0.220   7.602 -0.0049  0.0660  0.1176
 2408TIP3    H128859   2.713   0.295   7.598  0.9570  0.8165 -0.5417
 2408TIP3    H228860   2.770   0.193   7.694 -0.4189  0.8579  0.3487
 2409TIP3   OH228861   1.190   6.899   2.041 -0.9275  0.2782  0.1884
 2409TIP3    H128862   1.231   6.985   2.032 -1.0791  0.4458  1.0099
 2409TIP3    H228863   1.192   6.862   1.953 -0.0045  0.7365  0.0046
 2410TIP3   OH228864   3.238   0.306   0.091  0.5550  0.3974 -0.3661
 2410TIP3    H128865   3.216   0.352   0.010 -0.1263  1.5462  0.4430
 2410TIP3    H228866   3.323   0.342   0.117  2.5872 -2.5186 -2.3733
 2411TIP3   OH228867   0.284   0.956   2.320  0.1936  0.2257  0.7335
 2411TIP3    H128868   0.240   0.878   2.354 -0.6086  0.7533  0.9163
 2411TIP3    H228869   0.323   0.997   2.397  2.3152 -1.0132  0.4031
 2412TIP3   OH228870   1.896   5.209   7.656 -0.1995 -0.1878 -0.3710
 2412TIP3    H128871   1.803   5.229   7.665 -0.1924 -0.6864  1.0979
 2412TIP3    H228872   1.937   5.253   7.730 -0.0427 -4.3522  2.4085
 2413TIP3   OH228873   4.273   2.037   0.339 -0.2276  0.0375 -0.3342
 2413TIP3    H128874   4.367   2.027   0.325 -0.1191 -0.0756  0.4161
 2413TIP3    H228875   4.245   1.951   0.372 -0.3689  0.4147  0.5645
 2414TIP3   OH228876   5.875   5.537   8.140 -0.4163  0.2725  0.1207
 2414TIP3    H128877   5.902   5.452   8.105  0.9915  0.6732  0.1683
 2414TIP3    H228878   5.874   5.595   8.064  0.7712  0.7019  0.4103
 2415TIP3   OH228879   1.133   6.610   0.161  0.1764  0.1606 -0.0335
 2415TIP3    H128880   1.158   6.692   0.117 -1.5349  0.5911 -0.2495
 2415TIP3    H228881   1.038   6.612   0.163  0.1300 -1.5416  0.5505
 2416TIP3   OH228882   0.853   4.744   7.625 -0.6642 -0.1438  0.4192
 2416TIP3    H128883   0.762   4.716   7.636  0.0041 -2.0278  1.6716
 2416TIP3    H228884   0.890   4.737   7.713 -0.1795  4.2223  0.7737
 2417TIP3   OH228885   0.188   6.539   1.776  0.1221  0.3627  0.1770
 2417TIP3    H128886   0.168   6.628   1.745 -0.7480 -0.0571 -0.4878
 2417TIP3    H228887   0.223   6.494   1.700  0.0858 -0.0175  0.3845
 2418TIP3   OH228888   2.535   2.272   1.734 -0.1993 -0.5136  0.0342
 2418TIP3    H128889   2.461   2.328   1.760 -0.5556 -0.9775  0.0474
 2418TIP3    H228890   2.540   2.282   1.639  0.1346  0.0152  0.1049
 2419TIP3   OH228891   4.569   2.663   7.896 -0.3220 -0.1352 -0.6949
 2419TIP3    H128892   4.664   2.675   7.889 -0.4485  2.6876  0.8598
 2419TIP3    H228893   4.533   2.716   7.825 -0.7414 -0.1353 -0.4849
 2420TIP3   OH228894   0.969   2.746   6.465 -0.4382 -0.0051 -0.4021
 2420TIP3    H128895   0.903   2.704   6.521  0.9404 -0.8488  0.6697
 2420TIP3    H228896   0.991   2.827   6.511 -2.9113  1.9258 -2.3426
 2421TIP3   OH228897   0.607   1.430   0.802 -0.0736  0.7413  0.8424
 2421TIP3    H128898   0.619   1.360   0.738  0.3748  2.9119 -1.6725
 2421TIP3    H228899   0.528   1.407   0.850 -0.7200 -0.7859 -0.8577
 2422TIP3   OH228900   6.282   4.990   6.475 -0.3859  0.1735  0.0278
 2422TIP3    H128901   6.299   4.901   6.506  2.7809  1.3062  2.0975
 2422TIP3    H228902   6.275   4.982   6.380  2.2870 -2.0778 -0.1011
 2423TIP3   OH228903   3.718   2.852   6.712  0.4828  0.2419  0.0732
 2423TIP3    H128904   3.664   2.879   6.637  0.0031  0.2402  0.4103
 2423TIP3    H228905   3.795   2.811   6.673  0.6592  1.0369 -0.4275
 2424TIP3   OH228906   2.759   3.593   1.374  0.2640  0.1007 -0.7924
 2424TIP3    H128907   2.819   3.667   1.384 -0.1485  0.2417  1.2556
 2424TIP3    H228908   2.693   3.623   1.311 -0.3507  1.8404  0.5802
 2425TIP3   OH228909   3.345   2.398   6.472  0.4463 -0.6957  0.0385
 2425TIP3    H128910   3.327   2.319   6.423 -0.0703 -1.3899  1.3000
 2425TIP3    H228911   3.369   2.463   6.406  1.3333 -2.0205 -0.9711
 2426TIP3   OH228912   0.935   3.293   0.378  0.1774  0.5036  0.0353
 2426TIP3    H128913   0.883   3.228   0.426 -0.9442  0.9675 -0.5012
 2426TIP3    H228914   0.884   3.373   0.384  1.0552  1.0884 -0.1701
 2427TIP3   OH228915   3.298   1.398   2.678 -0.3447  0.2396  0.3165
 2427TIP3    H128916   3.211   1.436   2.660  0.6600  2.5646  0.0205
 2427TIP3    H228917   3.352   1.473   2.703  1.8599 -0.9905 -0.5264
 2428TIP3   OH228918   1.881   1.815   0.058  0.3105  0.5356  0.1409
 2428TIP3    H128919   1.912   1.728   0.032  1.2763  0.8655  0.1471
 2428TIP3    H228920   1.878   1.865  -0.023  0.4924  0.7202  0.2483
 2429TIP3   OH228921   6.068   3.124   7.568 -0.1307 -0.0281  0.0293
 2429TIP3    H128922   6.132   3.188   7.598  0.7116 -0.3300 -1.0705
 2429TIP3    H228923   5.984   3.170   7.573  0.4453  1.1441 -0.6861
 2430TIP3   OH228924   4.927   5.694   6.992 -0.0133 -0.2647  0.1770
 2430TIP3    H128925   4.961   5.622   7.045 -0.5598 -0.5783  0.1091
 2430TIP3    H228926   4.906   5.762   7.055  0.2312 -0.2742  0.2700
 2431TIP3   OH228927   5.859   6.681   0.766 -0.1349 -0.0463 -0.1053
 2431TIP3    H128928   5.828   6.620   0.700 -0.0516  0.2278 -0.4002
 2431TIP3    H228929   5.813   6.656   0.846 -0.5832 -0.0905 -0.3734
 2432TIP3   OH228930   1.805   1.969   1.113 -0.5237 -0.6094 -0.0370
 2432TIP3    H128931   1.754   1.901   1.069 -1.0453  0.0749 -0.5133
 2432TIP3    H228932   1.760   1.983   1.196 -0.8211 -0.3736 -0.2339
 2433TIP3   OH228933   6.124   2.697   0.735  0.1622  0.1156  0.2595
 2433TIP3    H128934   6.166   2.776   0.770 -0.8574  1.0846 -0.6430
 2433TIP3    H228935   6.067   2.668   0.806 -0.6143  1.0920  0.0606
 2434TIP3   OH228936   6.852   2.874   6.592  0.0279 -0.5119 -0.3523
 2434TIP3    H128937   6.871   2.786   6.560  1.1441 -1.0452  1.6140
 2434TIP3    H228938   6.796   2.860   6.669  0.0303  0.5009 -0.1501
 2435TIP3   OH228939   5.827   2.804   6.977  0.1244 -0.3833 -0.5322
 2435TIP3    H128940   5.734   2.787   6.966  0.0805  0.2689 -1.3390
 2435TIP3    H228941   5.870   2.729   6.935 -0.0180 -0.9428  0.2911
 2436TIP3   OH228942   1.310   0.626   7.996  0.3457  0.5709 -0.3880
 2436TIP3    H128943   1.252   0.554   8.019  1.6042 -0.2741  0.2667
 2436TIP3    H228944   1.296   0.691   8.065  0.5400  0.1417  0.0663
 2437TIP3   OH228945   2.845   1.688   1.967  0.3101 -0.2322  0.1686
 2437TIP3    H128946   2.904   1.694   1.891  0.1203  0.1314  0.0470
 2437TIP3    H228947   2.825   1.779   1.989 -0.7581 -0.3557 -0.2321
 2438TIP3   OH228948   4.485   2.160   1.248 -0.0859 -0.1657  0.1846
 2438TIP3    H128949   4.531   2.173   1.165 -0.7309  0.9886 -0.0200
 2438TIP3    H228950   4.519   2.230   1.305  1.1573 -1.6086  1.2793
 2439TIP3   OH228951   4.260   1.785   1.700 -0.3912  0.6219  0.2743
 2439TIP3    H128952   4.232   1.874   1.680 -0.9380  0.3421 -0.2550
 2439TIP3    H228953   4.325   1.764   1.633  1.1007  1.2582  1.4820
 2440TIP3   OH228954   4.956   3.044   0.769  0.0484 -0.3532  0.4624
 2440TIP3    H128955   5.049   3.064   0.782 -0.0074  0.5598 -0.4054
 2440TIP3    H228956   4.956   2.970   0.709  0.2196 -0.2575  0.3415
 2441TIP3   OH228957   3.057   6.118   6.136 -0.5374  0.8096 -0.8539
 2441TIP3    H128958   2.990   6.175   6.174 -0.6786  0.3473 -0.3960
 2441TIP3    H228959   3.020   6.030   6.144  0.6367  0.4127  0.5227
 2442TIP3   OH228960   0.728   6.495   5.875  0.0112  0.7194  0.0326
 2442TIP3    H128961   0.725   6.400   5.867 -1.6630  0.7524 -0.0561
 2442TIP3    H228962   0.659   6.516   5.938  0.9827  1.8213  0.7734
 2443TIP3   OH228963   4.194   1.627   1.134  0.3328 -0.2692  0.3584
 2443TIP3    H128964   4.288   1.637   1.123  0.3685 -0.2883  0.6544
 2443TIP3    H228965   4.181   1.533   1.150 -0.1301 -1.1154 -3.8338
 2444TIP3   OH228966   3.259   1.551   6.284 -0.5197 -0.2956 -0.2460
 2444TIP3    H128967   3.280   1.605   6.208  1.0333  0.9810  1.0219
 2444TIP3    H228968   3.167   1.568   6.302  0.3588  3.7657  1.3954
 2445TIP3   OH228969   0.965   5.061   8.065 -0.4288  0.2539 -0.0112
 2445TIP3    H128970   1.010   4.978   8.082 -0.8671 -0.5208 -2.3119
 2445TIP3    H228971   0.947   5.097   8.152  1.4011 -1.1530  1.0167
 2446TIP3   OH228972   1.175   5.085   5.971 -0.3539  0.4807 -0.1310
 2446TIP3    H128973   1.218   5.170   5.971  0.3835  0.1232 -0.1828
 2446TIP3    H228974   1.126   5.083   5.889  1.0470  0.1856 -1.0098
 2447TIP3   OH228975   1.550   0.504   7.997  0.0034  0.5405 -0.3902
 2447TIP3    H128976   1.506   0.419   7.985  0.9958 -0.2403  1.1714
 2447TIP3    H228977   1.479   0.564   8.017 -0.5139 -0.4177  0.7640
 2448TIP3   OH228978   6.145   2.697   8.038 -0.5802 -0.3304  1.1310
 2448TIP3    H128979   6.097   2.684   8.120 -1.2970 -0.7638  0.6528
 2448TIP3    H228980   6.077   2.715   7.973 -0.0184  0.0047  0.6255
 2449TIP3   OH228981   6.320   1.070   0.455 -0.5061  0.3247 -0.2521
 2449TIP3    H128982   6.373   1.073   0.535  0.5875  3.1523 -0.9719
 2449TIP3    H228983   6.325   0.979   0.427 -1.2282 -0.8934  3.0376
 2450TIP3   OH228984   3.709   3.563   6.999  0.4482  0.0138  0.2486
 2450TIP3    H128985   3.702   3.635   6.937 -0.6595  0.0939  0.4559
 2450TIP3    H228986   3.619   3.537   7.017  0.8218 -2.6375 -1.1802
 2451TIP3   OH228987   5.516   1.616   0.065 -0.7159  0.1621 -0.0735
 2451TIP3    H128988   5.527   1.646  -0.025 -1.5685  1.7903  0.3454
 2451TIP3    H228989   5.448   1.671   0.101 -1.3664 -1.3852  1.1824
 2452TIP3   OH228990   0.795   4.712   0.573  0.2485 -0.4186  0.3164
 2452TIP3    H128991   0.845   4.777   0.622  0.6684  0.7856 -1.6199
 2452TIP3    H228992   0.704   4.736   0.587  0.3587 -0.1171  0.5276
 2453TIP3   OH228993   0.493   0.429   6.749  0.4155 -0.0411  0.3702
 2453TIP3    H128994   0.443   0.464   6.675  0.0991  2.4150  1.6272
 2453TIP3    H228995   0.427   0.388   6.805  0.8213 -3.2484 -1.2475
 2454TIP3   OH228996   6.709   4.819   0.492  0.1844 -0.4193  0.4373
 2454TIP3    H128997   6.701   4.724   0.490  1.0403 -0.5390  1.9116
 2454TIP3    H228998   6.619   4.851   0.498 -0.0995 -1.1173 -0.0087
 2455TIP3   OH228999   1.184   4.456   8.050 -0.0993  0.0629 -0.1492
 2455TIP3    H129000   1.242   4.381   8.044 -0.0391  0.1349 -0.4576
 2455TIP3    H229001   1.140   4.459   7.966 -0.9280 -0.2944  0.2559
 2456TIP3   OH229002   2.508   0.216   2.212  0.0076  0.2388 -0.0948
 2456TIP3    H129003   2.466   0.234   2.128 -0.9244  3.2766  0.8600
 2456TIP3    H229004   2.441   0.171   2.263  0.3994 -1.1458 -0.7523
 2457TIP3   OH229005   6.704   6.017   7.831 -0.5828  0.4940  0.2360
 2457TIP3    H129006   6.641   5.977   7.771  0.2476  0.7784 -0.8579
 2457TIP3    H229007   6.762   5.945   7.857 -1.2792  0.2507  1.1734
 2458TIP3   OH229008   0.373   0.776   7.191  0.2751 -0.4201  0.4418
 2458TIP3    H129009   0.400   0.818   7.273 -1.3010  2.9183 -0.5568
 2458TIP3    H229010   0.443   0.798   7.129  1.4671 -2.9390  0.7867
 2459TIP3   OH229011   7.030   2.861   0.853  0.4743  0.7490 -0.5739
 2459TIP3    H129012   7.109   2.862   0.907  2.2903  0.0979 -3.0169
 2459TIP3    H229013   6.973   2.797   0.894  1.7865  0.2438  0.5308
 2460TIP3   OH229014   3.502   0.285   8.024  0.1916 -0.0544  0.3774
 2460TIP3    H129015   3.483   0.249   7.937 -0.4962 -0.5264  0.7117
 2460TIP3    H229016   3.495   0.209   8.083  0.3464  0.3219  0.8851
 2461TIP3   OH229017   3.570   0.947   0.740 -0.5590 -0.2579 -0.2629
 2461TIP3    H129018   3.494   0.934   0.684  0.1591 -2.5443 -0.7829
 2461TIP3    H229019   3.542   0.913   0.826 -0.4784 -0.0735 -0.1633
 2462TIP3   OH229020   0.454   3.383   1.167 -0.4995  0.0032 -0.0776
 2462TIP3    H129021   0.379   3.442   1.166  0.6490  1.6590  2.3237
 2462TIP3    H229022   0.525   3.433   1.129  0.1762 -0.3117  0.7347
 2463TIP3   OH229023   4.455   4.911   0.140 -0.2551 -0.8792  0.0079
 2463TIP3    H129024   4.392   4.980   0.162 -2.6253 -2.7598 -0.3968
 2463TIP3    H229025   4.425   4.834   0.189 -0.0822 -2.6366 -2.4457
 2464TIP3   OH229026   5.489   0.417   6.662  0.0735  0.6726 -0.0560
 2464TIP3    H129027   5.584   0.415   6.669  0.0357  1.0572  0.7514
 2464TIP3    H229028   5.463   0.496   6.710 -0.7671 -0.5372  1.6261
 2465TIP3   OH229029   3.908   2.996   7.617 -0.6997 -0.1885 -0.2038
 2465TIP3    H129030   3.999   2.981   7.591 -0.9778  0.3160 -1.5027
 2465TIP3    H229031   3.891   3.087   7.595 -1.9435 -0.6597 -1.2990
 2466TIP3   OH229032   3.169   5.934   0.458  0.2277 -0.5257 -0.2759
 2466TIP3    H129033   3.202   5.857   0.503  1.5931  0.0675 -0.2353
 2466TIP3    H229034   3.229   5.947   0.385 -0.5675 -0.0704 -0.8718
 2467TIP3   OH229035   5.185   5.156   1.327 -0.2073 -0.1508 -0.4226
 2467TIP3    H129036   5.198   5.214   1.253 -1.5573  0.0220 -0.5639
 2467TIP3    H229037   5.214   5.206   1.403 -0.8526  0.5112 -0.6046
 2468TIP3   OH229038   0.270   3.527   6.278 -0.0198  0.7756 -0.3200
 2468TIP3    H129039   0.223   3.458   6.231  0.4521 -0.2380  0.6418
 2468TIP3    H229040   0.213   3.547   6.352  1.0074 -0.4940  0.8811
 2469TIP3   OH229041   0.452   3.577   5.821 -0.0195 -0.0907  0.6985
 2469TIP3    H129042   0.391   3.547   5.888  1.5765 -0.2543  2.1245
 2469TIP3    H229043   0.442   3.672   5.821 -0.6351 -0.1464  0.5297
 2470TIP3   OH229044   2.262   6.136   0.320  0.2537  0.4257  0.2748
 2470TIP3    H129045   2.258   6.060   0.378  1.5200 -0.0195 -0.1923
 2470TIP3    H229046   2.324   6.195   0.363  1.1755  0.1087 -0.5835
 2471TIP3   OH229047   2.928   6.365   0.325  0.0631 -0.2082 -0.2078
 2471TIP3    H129048   3.010   6.320   0.342 -0.5417 -2.5378 -2.7552
 2471TIP3    H229049   2.870   6.337   0.397  0.8562 -0.3051  0.4057
 2472TIP3   OH229050   2.022   5.845   6.573 -0.5876  0.2983 -0.5647
 2472TIP3    H129051   2.081   5.770   6.571 -2.5918 -1.4124  0.4717
 2472TIP3    H229052   2.053   5.902   6.503  1.6744 -0.9509 -0.6649
 2473TIP3   OH229053   2.428   2.903   0.655 -0.3482 -0.1628 -0.3479
 2473TIP3    H129054   2.477   2.976   0.616  1.4032 -1.1508 -0.1296
 2473TIP3    H229055   2.390   2.939   0.735  2.4102  0.0523  1.0102
 2474TIP3   OH229056   4.036   5.631   6.732  0.0688 -0.1131  0.3077
 2474TIP3    H129057   4.046   5.613   6.639 -1.0070 -1.3819  0.4122
 2474TIP3    H229058   4.123   5.613   6.770  0.3019 -0.3331 -0.3273
 2475TIP3   OH229059   3.739   3.473   2.363 -0.0365  0.2442 -0.0715
 2475TIP3    H129060   3.735   3.382   2.392 -0.5247  0.1776 -0.3365
 2475TIP3    H229061   3.651   3.492   2.331  0.5030  0.2719 -1.6196
 2476TIP3   OH229062   4.873   3.487   1.956  0.0716  0.2882 -0.5483
 2476TIP3    H129063   4.819   3.417   1.992  2.2496 -0.9361  0.5583
 2476TIP3    H229064   4.821   3.567   1.968 -1.5716 -0.8455  0.1584
 2477TIP3   OH229065   1.968   5.636   5.631  0.3559  0.1410  0.3598
 2477TIP3    H129066   1.909   5.711   5.636  0.1091  0.0055 -0.3544
 2477TIP3    H229067   1.919   5.564   5.672 -1.4664 -0.8593 -3.1690
 2478TIP3   OH229068   0.271   4.932   0.287  0.3108 -0.1939  0.0913
 2478TIP3    H129069   0.366   4.935   0.276  0.2996  0.3315  0.1195
 2478TIP3    H229070   0.243   5.023   0.280 -0.1682 -0.3222  0.3021
 2479TIP3   OH229071   6.915   1.815   1.677 -0.5921 -0.3030 -0.7558
 2479TIP3    H129072   6.823   1.794   1.689 -0.3643 -0.0537  2.1680
 2479TIP3    H229073   6.962   1.738   1.707  0.1867 -0.0956 -1.3767
 2480TIP3   OH229074   2.669   1.491   2.013  0.6450 -0.4898 -0.4998
 2480TIP3    H129075   2.723   1.569   2.019 -0.1293  0.0358 -0.2052
 2480TIP3    H229076   2.655   1.478   1.919 -1.3088  1.2267 -0.5152
 2481TIP3   OH229077   0.787   5.498   6.774 -0.0107  0.5724 -0.0755
 2481TIP3    H129078   0.735   5.476   6.852  0.3597  2.6212  0.8150
 2481TIP3    H229079   0.874   5.462   6.793 -0.2091  0.0753 -0.0733
 2482TIP3   OH229080   4.038   3.605   7.295 -0.0587 -0.2192  0.1607
 2482TIP3    H129081   4.089   3.674   7.337 -0.2857 -1.2340  2.2166
 2482TIP3    H229082   4.096   3.528   7.296 -0.9164 -0.8769  0.7905
 2483TIP3   OH229083   3.130   2.562   6.230 -0.5556 -0.3919 -0.2864
 2483TIP3    H129084   3.147   2.559   6.324  2.5458  1.4685 -0.6353
 2483TIP3    H229085   3.035   2.566   6.223 -0.9089 -0.9931  2.7296
 2484TIP3   OH229086   6.833   3.525   6.993 -0.6441  0.1348 -0.0492
 2484TIP3    H129087   6.915   3.557   6.955 -0.0211  0.5347  1.5672
 2484TIP3    H229088   6.802   3.459   6.931 -1.5132  3.1187 -3.1215
 2485TIP3   OH229089   5.852   6.383   0.337 -0.6903  0.8422 -0.6997
 2485TIP3    H129090   5.928   6.331   0.364 -2.0052 -1.2319 -0.7595
 2485TIP3    H229091   5.868   6.402   0.245  0.1468  1.1769 -0.4976
 2486TIP3   OH229092   2.561   0.462   0.268  0.2976 -0.2988 -0.0604
 2486TIP3    H129093   2.609   0.462   0.185  1.8949 -0.1447  0.8099
 2486TIP3    H229094   2.495   0.394   0.258 -0.6779  0.8714 -2.0439
 2487TIP3   OH229095   2.125   4.435   6.634 -0.0363 -0.1769  0.2353
 2487TIP3    H129096   2.169   4.459   6.715  0.9121 -0.9099 -0.0508
 2487TIP3    H229097   2.034   4.461   6.648  0.6042  2.2318  0.4996
 2488TIP3   OH229098   4.552   1.449   0.607 -0.2946 -0.0624 -0.2962
 2488TIP3    H129099   4.490   1.380   0.631 -0.0075 -0.1603  0.1822
 2488TIP3    H229100   4.605   1.462   0.686 -0.8384  1.2414 -0.1195
 2489TIP3   OH229101   2.941   3.301   7.993 -0.0165 -0.4095 -0.0340
 2489TIP3    H129102   2.908   3.218   8.029 -1.1330 -0.9208 -2.0741
 2489TIP3    H229103   3.034   3.284   7.977 -0.1046 -1.0758  0.1049
 2490TIP3   OH229104   2.480   1.042   0.293  0.3459 -0.4199  0.3075
 2490TIP3    H129105   2.470   1.136   0.304 -0.8085 -0.4942  0.0716
 2490TIP3    H229106   2.464   1.027   0.200 -0.3872 -0.9433  0.5094
 2491TIP3   OH229107   5.809   2.218   7.234  0.3515  0.1539  0.0210
 2491TIP3    H129108   5.798   2.126   7.257  1.2731 -0.0562 -0.3624
 2491TIP3    H229109   5.834   2.218   7.142  1.2706  0.7328  0.2561
 2492TIP3   OH229110   1.372   0.361   1.084  0.3750  0.0770  0.3534
 2492TIP3    H129111   1.454   0.409   1.088 -0.0810  0.9412 -0.4508
 2492TIP3    H229112   1.310   0.415   1.134 -0.0033  0.0455 -0.0792
 2493TIP3   OH229113   6.531   1.314   0.150 -0.1650 -0.2920 -0.1056
 2493TIP3    H129114   6.594   1.370   0.105  0.4466 -0.6921  0.2436
 2493TIP3    H229115   6.560   1.314   0.241 -0.3478 -0.9141 -0.0426
 2494TIP3   OH229116   1.187   2.182   6.953 -0.0829 -0.0666 -0.6353
 2494TIP3    H129117   1.093   2.200   6.959  0.1280  0.7071  0.8225
 2494TIP3    H229118   1.207   2.189   6.860 -1.3126  0.5782 -0.8776
 2495TIP3   OH229119   0.233   6.366   6.745 -0.2336 -0.3012  0.0629
 2495TIP3    H129120   0.249   6.460   6.740 -3.9982  0.4386 -0.6861
 2495TIP3    H229121   0.286   6.329   6.674  1.6208  1.1170  0.6173
 2496TIP3   OH229122   3.784   4.170   0.135  0.4234  0.0175 -0.1769
 2496TIP3    H129123   3.853   4.141   0.195  0.3806 -1.8127 -0.9639
 2496TIP3    H229124   3.704   4.167   0.188  0.9332  2.7237  0.9194
 2497TIP3   OH229125   0.215   2.566   1.999  0.4961  0.0610 -0.3368
 2497TIP3    H129126   0.278   2.501   1.967  1.2466  0.2843  0.6368
 2497TIP3    H229127   0.256   2.603   2.077  0.6939  2.6392 -1.5457
 2498TIP3   OH229128   0.129   5.789   7.220 -0.1010 -0.0780  0.4065
 2498TIP3    H129129   0.076   5.861   7.253 -1.4603 -0.8361 -0.0328
 2498TIP3    H229130   0.080   5.710   7.245 -0.0358 -0.7409 -1.4330
 2499TIP3   OH229131   1.620   6.024   5.998  0.2880 -0.4287 -0.2624
 2499TIP3    H129132   1.571   6.104   6.017  0.3717 -0.4827  0.1733
 2499TIP3    H229133   1.554   5.962   5.967  0.1762 -0.2952 -0.2929
 2500TIP3   OH229134   3.840   0.941   7.519 -0.2719  0.0781  0.1810
 2500TIP3    H129135   3.886   0.967   7.439 -0.8738 -0.9703 -0.5337
 2500TIP3    H229136   3.792   1.019   7.546 -1.1856  0.0428 -1.2875
 2501TIP3   OH229137   0.569   2.159   7.168  0.2130 -0.1140  0.6034
 2501TIP3    H129138   0.614   2.115   7.095 -0.0826 -1.4334  1.1947
 2501TIP3    H229139   0.489   2.194   7.128  0.1660 -0.6211  0.2399
 2502TIP3   OH229140   4.718   6.753   1.436 -0.1109  0.0067 -0.0612
 2502TIP3    H129141   4.625   6.761   1.417 -0.3835  1.3819  1.5194
 2502TIP3    H229142   4.728   6.663   1.468 -1.6086  0.7146  2.8004
 2503TIP3   OH229143   6.910   5.256   7.120 -0.4011 -0.1023 -0.3448
 2503TIP3    H129144   6.932   5.183   7.178  1.7377  0.3860 -0.4612
 2503TIP3    H229145   6.878   5.324   7.179  0.5408 -0.0635  0.1416
 2504TIP3   OH229146   4.718   1.547   1.739 -0.4292 -0.4148  0.0398
 2504TIP3    H129147   4.674   1.508   1.814  0.9178  1.4858  1.9218
 2504TIP3    H229148   4.806   1.509   1.740 -0.3250 -0.1926 -0.4425
 2505TIP3   OH229149   2.536   7.010   6.387 -0.3984  0.3368  0.5348
 2505TIP3    H129150   2.560   7.103   6.392 -0.3616  0.5047 -1.8502
 2505TIP3    H229151   2.612   6.968   6.347 -0.9364 -0.4961  0.3788
 2506TIP3   OH229152   3.827   4.246   7.400  0.1700 -1.3410 -0.7074
 2506TIP3    H129153   3.783   4.161   7.395 -0.3215 -1.1411  0.1267
 2506TIP3    H229154   3.914   4.229   7.363 -0.1807 -2.0248 -1.2439
 2507TIP3   OH229155   3.915   3.022   0.582  0.0058  0.3808  0.2107
 2507TIP3    H129156   3.963   2.988   0.506 -2.4961  0.1127 -1.3552
 2507TIP3    H229157   3.844   3.073   0.544 -1.4344  0.1059  2.3825
 2508TIP3   OH229158   4.846   1.540   0.445 -0.4997 -0.8116 -0.2744
 2508TIP3    H129159   4.891   1.613   0.405  0.2417  0.2778  2.3252
 2508TIP3    H229160   4.762   1.535   0.399 -0.9991  2.3432  0.0534
 2509TIP3   OH229161   6.890   3.124   6.970  0.1822  1.2822 -0.0993
 2509TIP3    H129162   6.901   3.088   6.882 -0.9272 -0.2850  0.3773
 2509TIP3    H229163   6.978   3.155   6.993  1.2100 -1.0225 -0.6034
 2510TIP3   OH229164   3.158   2.769   7.354 -0.2787  0.0143  0.5601
 2510TIP3    H129165   3.209   2.732   7.282 -0.2807  3.8195 -1.6572
 2510TIP3    H229166   3.080   2.714   7.360 -0.3660 -0.3647 -2.5464
 2511TIP3   OH229167   0.273   2.265   2.197 -0.0924 -0.3773 -0.2754
 2511TIP3    H129168   0.291   2.214   2.118 -0.9214  0.1546 -0.8291
 2511TIP3    H229169   0.197   2.223   2.237 -0.5368  0.1796 -0.5240
 2512TIP3   OH229170   5.938   5.317   6.154  0.8648  0.6394 -0.3388
 2512TIP3    H129171   6.003   5.249   6.136  1.1033  0.9431 -0.6327
 2512TIP3    H229172   5.910   5.347   6.068 -0.6075 -0.3665 -0.2436
 2513TIP3   OH229173   6.750   3.154   1.042  0.8102  0.5334  0.1882
 2513TIP3    H129174   6.713   3.189   1.123  0.7533 -0.2550  0.5144
 2513TIP3    H229175   6.719   3.064   1.038 -0.2530  0.9170 -1.3709
 2514TIP3   OH229176   2.070   7.059   6.828  0.0968  0.0986  0.0212
 2514TIP3    H129177   2.157   7.023   6.815 -0.0481  0.3536 -1.8201
 2514TIP3    H229178   2.038   7.080   6.740 -1.5452  0.6633  0.7038
 2515TIP3   OH229179   0.862   4.483   6.609 -0.3114 -0.2749 -0.0783
 2515TIP3    H129180   0.926   4.421   6.575 -1.2959 -1.1686 -0.3728
 2515TIP3    H229181   0.862   4.469   6.703 -0.0760 -0.2875 -0.0814
 2516TIP3   OH229182   6.401   0.122   7.806  0.4102  0.6475  0.1419
 2516TIP3    H129183   6.431   0.125   7.897 -0.6536 -0.0715  0.5458
 2516TIP3    H229184   6.389   0.029   7.788 -2.1642  0.8693  0.2705
 2517TIP3   OH229185   5.763   3.488   7.896 -0.4668 -0.3581  0.8199
 2517TIP3    H129186   5.704   3.478   7.822  1.3676 -1.0705 -0.6104
 2517TIP3    H229187   5.805   3.573   7.882 -0.7648 -0.0780  1.5626
 2518TIP3   OH229188   0.551   5.201   8.231  0.1904  0.6349 -0.1837
 2518TIP3    H129189   0.561   5.109   8.204  1.9856  0.1204  1.9220
 2518TIP3    H229190   0.618   5.247   8.181 -0.6394  0.8111 -1.1610
 2519TIP3   OH229191   1.046   2.357   1.104 -0.0816  0.1165 -0.3151
 2519TIP3    H129192   1.045   2.410   1.024  0.3414  0.0131 -0.3941
 2519TIP3    H229193   1.042   2.421   1.175  0.6069  0.2704 -0.4065
 2520TIP3   OH229194   3.106   0.686   7.931  0.2461  0.4970  0.9957
 2520TIP3    H129195   3.164   0.647   7.866  2.0558 -1.7586  3.7002
 2520TIP3    H229196   3.021   0.691   7.887  0.9418 -2.5566 -1.0444
 2521TIP3   OH229197   1.102   5.665   7.786  0.3338 -0.0785  0.4584
 2521TIP3    H129198   1.104   5.570   7.798  1.3115 -0.3880 -1.7510
 2521TIP3    H229199   1.051   5.697   7.860 -0.9955 -2.4276  0.6585
 2522TIP3   OH229200   3.635   3.224   8.099  0.3517  0.1051 -0.1833
 2522TIP3    H129201   3.721   3.265   8.092 -0.0066  0.8813 -0.1664
 2522TIP3    H229202   3.621   3.183   8.014  1.4696 -1.5324  0.3869
 2523TIP3   OH229203   1.192   3.410   0.493  0.4024 -0.2714 -0.6384
 2523TIP3    H129204   1.187   3.477   0.424  0.6256  1.6319  1.1078
 2523TIP3    H229205   1.134   3.442   0.562  2.5601 -0.4208  1.3915
 2524TIP3   OH229206   1.960   0.620   1.485  0.4895  0.2638 -0.2195
 2524TIP3    H129207   1.879   0.655   1.448  0.6495  0.1457 -0.6848
 2524TIP3    H229208   2.005   0.580   1.411  0.8119  0.0205  0.1041
 2525TIP3   OH229209   5.972   2.218   7.484  0.1602 -0.1015  0.2223
 2525TIP3    H129210   5.937   2.180   7.564 -2.2177  0.2235 -0.5860
 2525TIP3    H229211   5.944   2.158   7.415  0.9209  0.3796 -0.5210
 2526TIP3   OH229212   2.878   2.025   1.207 -0.7325  0.0400 -0.3944
 2526TIP3    H129213   2.846   1.965   1.275  1.7795 -0.2196  0.6441
 2526TIP3    H229214   2.969   2.001   1.195 -1.0273  0.1852 -3.8280
 2527TIP3   OH229215   5.102   1.551   1.830 -0.4957  0.6846  0.4875
 2527TIP3    H129216   5.195   1.541   1.847 -0.6437 -0.2112  0.8297
 2527TIP3    H229217   5.066   1.583   1.913 -0.5169  0.9217  0.3891
 2528TIP3   OH229218   6.332   2.571   6.770 -0.2637  0.1924  0.2737
 2528TIP3    H129219   6.391   2.502   6.800 -1.3754 -0.9243 -0.0281
 2528TIP3    H229220   6.369   2.652   6.806  1.4635 -0.4590  0.0332
 2529TIP3   OH229221   7.018   2.382   1.984  0.0927  0.0001 -0.2007
 2529TIP3    H129222   6.932   2.423   1.980  0.1014  0.0992  0.5407
 2529TIP3    H229223   7.079   2.455   2.001  0.6377  0.3085 -2.9865
 2530TIP3   OH229224   3.827   4.681   1.074  0.2251  0.4429 -0.1917
 2530TIP3    H129225   3.894   4.749   1.063  0.1364  0.4582 -0.6527
 2530TIP3    H229226   3.762   4.720   1.132  0.7567  0.3254  0.4929
 2531TIP3   OH229227   3.372   2.671   0.148  0.5655 -0.2557 -0.5260
 2531TIP3    H129228   3.307   2.613   0.109 -0.7383 -0.0374  1.2057
 2531TIP3    H229229   3.434   2.689   0.077 -0.3194 -1.8213 -1.7540
 2532TIP3   OH229230   1.389   5.242   7.646  0.5475 -0.0870  0.1998
 2532TIP3    H129231   1.421   5.252   7.556  0.3088  1.9546  0.3024
 2532TIP3    H229232   1.392   5.330   7.683 -0.9118 -0.5960  1.6682
 2533TIP3   OH229233   6.726   6.514   6.944 -0.2815  0.3232 -0.0096
 2533TIP3    H129234   6.642   6.507   6.990 -0.1777 -1.9679 -0.0458
 2533TIP3    H229235   6.704   6.499   6.852  0.2647 -1.3660  0.1134
 2534TIP3   OH229236   6.016   5.183   6.841  0.0279 -0.1954  0.3951
 2534TIP3    H129237   5.929   5.203   6.807 -1.6558 -2.5349  2.8784
 2534TIP3    H229238   6.067   5.155   6.765 -0.8187  2.6951 -1.3527
 2535TIP3   OH229239   3.739   4.964   0.290  0.2582 -0.6132  0.0306
 2535TIP3    H129240   3.804   4.927   0.349 -2.3893 -1.4304  2.6761
 2535TIP3    H229241   3.660   4.973   0.343 -2.5761 -1.9329 -3.5030
 2536TIP3   OH229242   4.894   0.235   1.144 -0.6121  0.1202 -0.5399
 2536TIP3    H129243   4.851   0.318   1.165 -2.8366 -0.9535 -0.6142
 2536TIP3    H229244   4.932   0.248   1.058  0.5825  1.5871  0.1647
 2537TIP3   OH229245   3.479   1.514   7.894  0.3768  0.0587 -0.1580
 2537TIP3    H129246   3.470   1.533   7.987 -0.2575 -0.8678 -0.0189
 2537TIP3    H229247   3.483   1.418   7.888  0.0407  0.0838 -1.1046
 2538TIP3   OH229248   3.405   0.627   7.682  0.1427 -0.1802 -0.1702
 2538TIP3    H129249   3.437   0.635   7.772  0.0176  1.1876 -0.2188
 2538TIP3    H229250   3.347   0.552   7.684 -0.4195  0.2528  1.0744
 2539TIP3   OH229251   2.873   5.062   8.080 -0.0272 -1.1359 -0.2961
 2539TIP3    H129252   2.945   5.116   8.111  0.2654 -1.6127 -0.1403
 2539TIP3    H229253   2.901   4.972   8.097 -1.0350 -1.2988  0.6265
 2540TIP3   OH229254   5.139   0.118   6.025  0.2998  0.1237 -0.3105
 2540TIP3    H129255   5.128   0.210   6.052 -0.3941 -0.0005 -0.1484
 2540TIP3    H229256   5.054   0.093   5.990  0.3716 -0.5706 -0.0123
 2541TIP3   OH229257   6.496   2.377   7.463 -0.0605 -0.2574 -0.2111
 2541TIP3    H129258   6.545   2.445   7.509 -1.4105  0.1934  0.6050
 2541TIP3    H229259   6.523   2.295   7.506  0.8503 -0.1653 -0.5711
 2542TIP3   OH229260   4.457   4.449   0.253  0.2079  0.2751  0.1465
 2542TIP3    H129261   4.457   4.361   0.217 -0.8643  0.1655  0.3834
 2542TIP3    H229262   4.527   4.449   0.318  2.0557  0.4149 -1.7256
 2543TIP3   OH229263   0.322   5.199   0.673 -0.3861  0.0079  0.1357
 2543TIP3    H129264   0.360   5.178   0.587  0.4337  1.7544  0.0351
 2543TIP3    H229265   0.337   5.121   0.725  0.6891 -0.4324 -0.7972
 2544TIP3   OH229266   1.468   6.792   5.856 -0.3428 -0.4981  0.3526
 2544TIP3    H129267   1.544   6.828   5.902 -0.2171  0.6293 -0.6766
 2544TIP3    H229268   1.427   6.868   5.814 -1.7452 -1.1632  0.4541
 2545TIP3   OH229269   2.717   1.502   8.213 -0.5004 -0.3181 -0.3635
 2545TIP3    H129270   2.667   1.583   8.227  0.0573 -0.2923  1.8657
 2545TIP3    H229271   2.687   1.470   8.128 -1.8522  1.4263 -0.6076
 2546TIP3   OH229272   4.776   0.773   8.133  0.1292 -0.0678 -0.2672
 2546TIP3    H129273   4.703   0.826   8.104 -0.2395 -2.2096 -3.7736
 2546TIP3    H229274   4.747   0.682   8.121  3.0606 -1.0045 -1.1343
 2547TIP3   OH229275   6.101   5.243   0.022  0.2371 -0.4378 -0.6860
 2547TIP3    H129276   6.108   5.149   0.036  1.5823 -0.2640 -0.1147
 2547TIP3    H229277   6.165   5.262  -0.047 -0.4844 -0.0226 -1.2628
 2548TIP3   OH229278   1.122   6.957   6.914  0.4932  0.3123 -0.4036
 2548TIP3    H129279   1.136   6.932   7.005  2.8165  0.8174 -0.5822
 2548TIP3    H229280   1.163   7.043   6.905 -1.2949  1.1164 -1.5209
 2549TIP3   OH229281   6.774   0.072   0.078  0.1460  0.8388  0.1417
 2549TIP3    H129282   6.732   0.015   0.142  1.5983  0.2685  0.6241
 2549TIP3    H229283   6.716   0.148   0.072 -0.5631  0.4203  1.3205
 2550TIP3   OH229284   1.331   1.473   1.182 -0.0080 -0.5092 -0.1821
 2550TIP3    H129285   1.378   1.555   1.172 -0.9223 -0.1916 -2.1145
 2550TIP3    H229286   1.242   1.492   1.154 -0.0868 -2.2963 -1.2788
 2551TIP3   OH229287   5.432   4.738   1.598  0.4593 -0.0530 -0.1008
 2551TIP3    H129288   5.396   4.657   1.634  1.5826  0.1817  1.6487
 2551TIP3    H229289   5.513   4.752   1.647  1.1524  1.2513 -1.5325
 2552TIP3   OH229290   1.147   2.239   6.310 -0.1522 -0.2039 -0.8067
 2552TIP3    H129291   1.162   2.313   6.251 -0.9211 -0.3961 -1.2595
 2552TIP3    H229292   1.107   2.279   6.388  0.2355 -0.0373 -0.6904
 2553TIP3   OH229293   2.785   5.042   0.809 -0.3054  0.4354  0.7050
 2553TIP3    H129294   2.817   4.955   0.833 -0.1936  0.3806  0.3624
 2553TIP3    H229295   2.707   5.054   0.862 -0.5178 -0.0182  0.5001
 2554TIP3   OH229296   0.564   4.679   7.185  0.2865  0.6243  0.3410
 2554TIP3    H129297   0.507   4.734   7.131  0.0322  0.1410  0.1082
 2554TIP3    H229298   0.543   4.703   7.275 -0.8441 -0.0809  0.2803
 2555TIP3   OH229299   4.025   0.839   0.969 -0.4699  0.4568  0.0797
 2555TIP3    H129300   4.012   0.766   1.029  1.5581  0.4699  0.6019
 2555TIP3    H229301   3.990   0.915   1.015  0.7750  0.4132  1.1447
 2556TIP3   OH229302   1.852   0.106   7.499  0.1687  0.2234 -0.0482
 2556TIP3    H129303   1.872   0.031   7.555  0.5211  0.1020 -0.3310
 2556TIP3    H229304   1.911   0.096   7.424 -0.5028  0.2294 -0.5795
 2557TIP3   OH229305   5.170   5.342   0.604  0.0150  0.4850  0.0021
 2557TIP3    H129306   5.178   5.396   0.526 -0.0297 -0.9337 -1.0144
 2557TIP3    H229307   5.093   5.287   0.589 -0.2106  0.4276  1.2085
 2558TIP3   OH229308   6.365   3.142   1.218  0.1639 -0.4924 -0.3104
 2558TIP3    H129309   6.278   3.169   1.188  0.8650  1.1880 -0.9583
 2558TIP3    H229310   6.348   3.070   1.278 -1.8276  1.0962  1.1823
 2559TIP3   OH229311   0.621   3.676   7.445 -0.0714 -0.0866 -0.1937
 2559TIP3    H129312   0.563   3.740   7.405  0.4297  0.7315  0.3629
 2559TIP3    H229313   0.659   3.629   7.370  0.5781  1.1768 -0.6980
 2560TIP3   OH229314   1.725   5.873   0.827 -0.1652 -0.3792  0.0496
 2560TIP3    H129315   1.678   5.804   0.780 -1.4959  1.3789 -1.3898
 2560TIP3    H229316   1.662   5.944   0.833  2.1295  1.9907 -1.6164
 2561TIP3   OH229317   4.124   4.765   1.280 -0.0666 -0.4631 -1.0969
 2561TIP3    H129318   4.202   4.777   1.334 -0.7824  0.6330 -0.2672
 2561TIP3    H229319   4.058   4.730   1.339  0.1722 -2.7846 -2.1217
 2562TIP3   OH229320   2.414   3.519   8.016  0.1072  0.3905 -0.5877
 2562TIP3    H129321   2.381   3.565   7.940 -0.7830  2.5806  1.0078
 2562TIP3    H229322   2.502   3.554   8.029 -0.2868  1.1298  0.1925
 2563TIP3   OH229323   3.062   2.706   1.132 -0.9941  0.1884  0.1737
 2563TIP3    H129324   3.040   2.796   1.155 -1.0317 -0.0796  1.2279
 2563TIP3    H229325   3.144   2.689   1.178 -0.2316  0.1401 -1.1673
 2564TIP3   OH229326   3.809   1.218   8.220 -1.1060  0.4719 -0.5172
 2564TIP3    H129327   3.873   1.215   8.291 -0.1863  0.4705 -1.3351
 2564TIP3    H229328   3.752   1.292   8.242  0.8747  2.2727 -1.1955
 2565TIP3   OH229329   6.256   4.552   0.087  0.3611  0.5097 -0.5520
 2565TIP3    H129330   6.173   4.546   0.136  0.3486  0.7417 -0.5424
 2565TIP3    H229331   6.245   4.629   0.031  0.1264 -0.1372 -1.4056
 2566TIP3   OH229332   6.102   0.150   6.970 -0.0002 -0.2647 -0.0916
 2566TIP3    H129333   6.110   0.204   7.049 -0.5428 -1.3150  0.7126
 2566TIP3    H229334   6.103   0.212   6.898 -2.7009  1.0613  0.8693
 2567TIP3   OH229335   1.681   0.264   1.414  0.1622  0.3037 -0.7031
 2567TIP3    H129336   1.728   0.215   1.347  0.2674 -0.8598  0.1756
 2567TIP3    H229337   1.746   0.279   1.482 -0.8995 -2.4415  1.1158
 2568TIP3   OH229338   4.757   1.331   1.518  0.1014  0.2561 -0.2906
 2568TIP3    H129339   4.730   1.333   1.426  0.3625 -0.0914 -0.3756
 2568TIP3    H229340   4.804   1.413   1.531 -0.6753  0.7052 -0.2375
 2569TIP3   OH229341   0.604   3.260   0.939 -0.1741 -0.3015  1.2166
 2569TIP3    H129342   0.536   3.222   0.994 -1.1281  0.6006  0.7118
 2569TIP3    H229343   0.638   3.334   0.989  0.9767 -1.1799  1.7772
 2570TIP3   OH229344   3.955   6.874   1.321  0.6879  0.4442 -0.2315
 2570TIP3    H129345   4.037   6.879   1.369  0.2341  1.9137  0.4599
 2570TIP3    H229346   3.981   6.882   1.229  1.2228  3.8040  0.0799
 2571TIP3   OH229347   5.752   3.690   1.525 -0.2547  0.4638 -0.1773
 2571TIP3    H129348   5.673   3.681   1.578  0.5743  1.3367  1.2585
 2571TIP3    H229349   5.723   3.740   1.449 -1.2830 -0.0632 -0.1588
 2572TIP3   OH229350   1.107   3.197   7.493  0.5165 -0.0287 -0.5889
 2572TIP3    H129351   1.096   3.206   7.588 -0.6578 -0.2749 -0.6928
 2572TIP3    H229352   1.104   3.103   7.477 -1.3219  0.0715 -1.0734
 2573TIP3   OH229353   0.286   0.154   0.832 -0.7770  0.0101  0.0264
 2573TIP3    H129354   0.309   0.241   0.797  0.1445  0.1615  0.9712
 2573TIP3    H229355   0.260   0.170   0.922  1.1756 -0.8827  0.7994
 2574TIP3   OH229356   2.336   5.466   2.032  0.0293  0.0632  0.6587
 2574TIP3    H129357   2.318   5.530   1.963 -1.3525  1.1639  1.9696
 2574TIP3    H229358   2.260   5.471   2.089  1.2854 -0.5634  2.4641
 2575TIP3   OH229359   1.821   4.382   1.050 -0.1615  0.6669  0.5540
 2575TIP3    H129360   1.820   4.472   1.080 -0.9119  1.1346 -0.7611
 2575TIP3    H229361   1.729   4.363   1.029  0.1010 -0.1302  0.0707
 2576TIP3   OH229362   1.090   4.268   0.275 -0.1023 -0.0816 -0.4266
 2576TIP3    H129363   1.036   4.260   0.354  1.1969  0.3856  0.5594
 2576TIP3    H229364   1.050   4.339   0.225 -0.1981  0.5080  0.4679
 2577TIP3   OH229365   0.901   3.699   2.160 -0.9186 -0.3324 -0.5862
 2577TIP3    H129366   0.863   3.620   2.122 -0.7050 -0.3348 -0.8017
 2577TIP3    H229367   0.831   3.764   2.154 -1.3269 -0.6912  0.2370
 2578TIP3   OH229368   2.437   5.764   1.630  0.3929 -0.5278 -0.3214
 2578TIP3    H129369   2.531   5.767   1.612  0.4621 -0.3776  0.0399
 2578TIP3    H229370   2.429   5.699   1.700  0.2892 -0.1888 -0.0135
 2579TIP3   OH229371   6.481   4.040   8.093 -0.1002  0.1159  0.3696
 2579TIP3    H129372   6.424   3.969   8.121  1.3047 -0.9628  0.6480
 2579TIP3    H229373   6.558   4.033   8.150  0.2294  1.6656  0.1792
 2580TIP3   OH229374   1.831   5.108   6.298 -0.4769 -0.3539 -0.1467
 2580TIP3    H129375   1.885   5.033   6.321  0.1669 -0.4767 -1.8898
 2580TIP3    H229376   1.887   5.184   6.314 -1.1427 -0.1862  1.6580
 2581TIP3   OH229377   4.527   0.906   0.941  0.0057  0.5857 -0.3165
 2581TIP3    H129378   4.517   1.001   0.948 -0.4174  0.5042  0.2297
 2581TIP3    H229379   4.453   0.870   0.991 -0.5035 -0.0322 -1.4664
 2582TIP3   OH229380   0.089   5.257   1.080  0.2936  0.3998 -0.6696
 2582TIP3    H129381   0.007   5.256   1.130  1.1412  0.4192  0.7895
 2582TIP3    H229382   0.096   5.168   1.044  0.7170 -0.3435  1.1249
 2583TIP3   OH229383   3.023   2.331   1.094  0.4400 -0.1049 -0.5097
 2583TIP3    H129384   2.991   2.242   1.113  1.0367 -0.1935  0.1215
 2583TIP3    H229385   2.958   2.367   1.034 -0.9848 -0.2073  0.8892
 2584TIP3   OH229386   0.761   1.409   1.836 -0.0657  0.0594 -0.9370
 2584TIP3    H129387   0.822   1.366   1.777 -0.5759 -0.6242 -0.9840
 2584TIP3    H229388   0.800   1.400   1.923  0.7425  1.1684 -1.1681
 2585TIP3   OH229389   6.548   1.974   6.802 -0.2984  0.0123  0.0138
 2585TIP3    H129390   6.534   1.919   6.724 -0.5124  1.0046 -0.6577
 2585TIP3    H229391   6.643   1.990   6.803 -0.3498  0.3434 -0.2835
 2586TIP3   OH229392   5.451   4.513   5.955 -0.1988 -0.5384  0.5632
 2586TIP3    H129393   5.517   4.447   5.937 -0.5492 -0.0634 -3.5828
 2586TIP3    H229394   5.368   4.466   5.950 -0.4788  0.0176 -2.8577
 2587TIP3   OH229395   1.109   6.565   8.114 -0.0417  0.2509  0.3495
 2587TIP3    H129396   1.182   6.564   8.052 -0.4788  2.5306 -0.3108
 2587TIP3    H229397   1.142   6.615   8.189  0.2450 -1.8755  1.7315
 2588TIP3   OH229398   4.176   6.158   7.186 -0.0589  0.2622  0.7845
 2588TIP3    H129399   4.236   6.121   7.121 -0.2137  2.1817 -0.5569
 2588TIP3    H229400   4.151   6.084   7.241  1.4395 -1.1058 -0.2733
 2589TIP3   OH229401   0.150   4.324   7.261  0.0373 -0.0335  0.3822
 2589TIP3    H129402   0.172   4.284   7.176 -1.1120  0.7668 -0.3173
 2589TIP3    H229403   0.060   4.298   7.277  0.6490 -1.3354  2.0789
 2590TIP3   OH229404   6.401   4.654   7.118  0.3390  0.0265  0.0764
 2590TIP3    H129405   6.325   4.598   7.133 -0.8503  1.0835 -1.6435
 2590TIP3    H229406   6.434   4.627   7.033 -0.2139  1.7995 -0.7584
 2591TIP3   OH229407   3.384   4.145   6.238 -0.3523 -0.0867  0.2097
 2591TIP3    H129408   3.471   4.161   6.201  0.1319 -2.5384  0.1005
 2591TIP3    H229409   3.328   4.132   6.162 -1.2803  3.1794  0.2210
 2592TIP3   OH229410   6.083   1.774   1.819 -0.0323  0.7072  0.4583
 2592TIP3    H129411   6.135   1.845   1.856 -0.2670  0.6291  0.9417
 2592TIP3    H229412   6.048   1.727   1.895 -1.0139  0.9093  0.1469
 2593TIP3   OH229413   0.608   5.805   7.057  0.0180 -0.0625 -0.2313
 2593TIP3    H129414   0.516   5.830   7.046 -0.1551 -0.5199  0.1354
 2593TIP3    H229415   0.646   5.876   7.108 -0.4506 -0.4983  0.7416
 2594TIP3   OH229416   5.901   6.884   7.239 -0.1034 -0.6541 -0.1479
 2594TIP3    H129417   5.944   6.967   7.219  0.9167 -0.7321  1.5002
 2594TIP3    H229418   5.882   6.889   7.333 -1.6163 -1.5862 -0.3759
 2595TIP3   OH229419   5.337   2.563   7.942  0.5319 -0.2425  0.1937
 2595TIP3    H129420   5.347   2.494   8.007  0.0037 -0.1387  0.3971
 2595TIP3    H229421   5.242   2.577   7.938  0.5244 -0.5555 -0.9227
 2596TIP3   OH229422   3.437   5.393   8.074 -0.1935 -0.0357  0.3274
 2596TIP3    H129423   3.367   5.368   8.135 -0.8341 -0.2354 -0.4686
 2596TIP3    H229424   3.500   5.321   8.078 -0.8870 -0.6877 -0.2240
 2597TIP3   OH229425   1.101   0.518   7.339  0.0198  0.4389 -0.4552
 2597TIP3    H129426   1.014   0.516   7.298 -0.1758  2.4006 -0.2416
 2597TIP3    H229427   1.136   0.604   7.317  0.5957  0.9481  2.0534
 2598TIP3   OH229428   1.372   4.451   6.616 -0.4465  0.6434  0.2754
 2598TIP3    H129429   1.427   4.375   6.632 -0.3812  0.0370 -2.3387
 2598TIP3    H229430   1.369   4.498   6.699  1.2712 -1.0671  1.3549
 2599TIP3   OH229431   1.906   1.697   1.690  0.1884  0.6176  0.5024
 2599TIP3    H129432   1.831   1.727   1.742 -0.7783 -1.1012  0.1553
 2599TIP3    H229433   1.932   1.774   1.639 -1.3476  1.2429  0.6168
 2600TIP3   OH229434   4.474   7.041   1.171 -0.1062  0.4854 -0.0679
 2600TIP3    H129435   4.431   7.098   1.108 -1.2755  0.7277  0.9134
 2600TIP3    H229436   4.530   7.101   1.222 -1.5047  0.8625  1.1116
 2601TIP3   OH229437   2.168   0.472   5.890 -0.7678  0.5446 -0.4305
 2601TIP3    H129438   2.134   0.498   5.975 -1.3627  1.4838 -0.9312
 2601TIP3    H229439   2.204   0.552   5.852  2.9716 -0.5752  0.4318
 2602TIP3   OH229440   2.227   3.168   6.350  0.4122 -0.4578 -0.5230
 2602TIP3    H129441   2.187   3.247   6.386  0.4834 -0.1748 -1.0505
 2602TIP3    H229442   2.321   3.188   6.348  0.4873 -0.7886 -0.0839
 2603TIP3   OH229443   6.078   1.696   1.245 -0.1392 -0.1669  0.1643
 2603TIP3    H129444   6.105   1.668   1.333  0.3551 -1.8288 -0.4797
 2603TIP3    H229445   5.984   1.682   1.243 -0.1179 -0.3453  0.3512
 2604TIP3   OH229446   2.429   0.231   6.528 -0.1137 -0.0910  0.6917
 2604TIP3    H129447   2.434   0.275   6.443  1.5784 -0.6058  0.4916
 2604TIP3    H229448   2.359   0.166   6.517  0.0187 -0.0859 -0.2772
 2605TIP3   OH229449   2.146   6.470   6.786  0.3550 -0.2997 -0.5061
 2605TIP3    H129450   2.130   6.549   6.733  3.6705 -0.4969 -2.0476
 2605TIP3    H229451   2.212   6.422   6.737  0.7649 -2.4902  1.9988
 2606TIP3   OH229452   3.446   0.104   1.677  0.0069  0.7956  0.1734
 2606TIP3    H129453   3.411   0.054   1.603  1.8785  1.0026 -0.9236
 2606TIP3    H229454   3.375   0.106   1.741 -1.7365  0.7257 -1.6710
 2607TIP3   OH229455   6.510   0.566   7.135  0.4272 -0.2944 -0.0293
 2607TIP3    H129456   6.542   0.486   7.176  0.4126  0.0231  0.6071
 2607TIP3    H229457   6.490   0.625   7.208 -3.5994 -1.1549 -0.1877
 2608TIP3   OH229458   5.220   2.005   7.516 -0.5780  0.3540  0.2090
 2608TIP3    H129459   5.248   2.095   7.531  0.0407  0.3473 -0.8490
 2608TIP3    H229460   5.235   1.990   7.423  1.1715 -1.4669  0.7150
 2609TIP3   OH229461   4.617   2.682   8.165 -0.0502  0.0337  0.1548
 2609TIP3    H129462   4.556   2.635   8.223  1.5347 -0.6826  1.3159
 2609TIP3    H229463   4.594   2.650   8.077 -0.4082 -1.3459  0.7080
 2610TIP3   OH229464   5.566   2.961   0.276 -0.6868  0.1340 -0.4055
 2610TIP3    H129465   5.531   2.912   0.351  0.3944 -1.2732 -0.7687
 2610TIP3    H229466   5.507   2.940   0.204  0.4231 -1.6911 -0.8540
 2611TIP3   OH229467   2.528   5.345   6.764 -0.6581  0.1495  0.3480
 2611TIP3    H129468   2.569   5.415   6.714  0.5473  0.2341  1.4042
 2611TIP3    H229469   2.437   5.344   6.735 -0.5559  1.7746 -0.0875
 2612TIP3   OH229470   2.680   0.182   6.333 -0.5315 -0.1769  0.1502
 2612TIP3    H129471   2.656   0.247   6.399 -1.9269  0.8135 -1.2627
 2612TIP3    H229472   2.775   0.175   6.339 -0.4063  1.5946  0.7113
 2613TIP3   OH229473   4.798   3.644   0.674  0.6625 -0.1679 -0.6090
 2613TIP3    H129474   4.747   3.581   0.624 -0.8887 -0.5812  1.3717
 2613TIP3    H229475   4.830   3.595   0.750 -0.8221  1.3831  1.1339
 2614TIP3   OH229476   5.925   4.080   0.474 -0.0876 -0.3516 -0.0252
 2614TIP3    H129477   5.889   4.072   0.386 -0.0396  0.7807 -0.1638
 2614TIP3    H229478   6.016   4.053   0.466 -0.0427 -0.1015 -0.3660
 2615TIP3   OH229479   4.619   5.160   1.866 -0.1234  0.4237 -0.2803
 2615TIP3    H129480   4.577   5.110   1.936 -0.1758  0.5639 -0.2116
 2615TIP3    H229481   4.610   5.105   1.789 -1.7999  1.0912 -0.6183
 2616TIP3   OH229482   3.242   6.771   0.107 -0.6763 -0.4256 -0.3652
 2616TIP3    H129483   3.287   6.808   0.183  1.9675 -0.8241 -1.5874
 2616TIP3    H229484   3.155   6.748   0.138  0.3657 -0.7742  2.5885
 2617TIP3   OH229485   5.317   1.792   0.093 -0.0749 -0.0128 -0.2617
 2617TIP3    H129486   5.259   1.725   0.057  1.4830 -0.9018 -1.2100
 2617TIP3    H229487   5.330   1.854   0.021 -2.1564  1.8559  0.8462
 2618TIP3   OH229488   0.501   5.187   1.075  0.3399  0.2446 -0.7150
 2618TIP3    H129489   0.459   5.101   1.073 -0.2014  0.2980  2.5680
 2618TIP3    H229490   0.435   5.245   1.114  2.1141  1.1339  1.1474
 2619TIP3   OH229491   2.102   2.956   0.779 -0.2480  0.3193 -0.1512
 2619TIP3    H129492   2.114   2.954   0.874 -1.0736 -0.4185 -0.0439
 2619TIP3    H229493   2.170   3.015   0.747 -1.7201  2.9136  1.1653
 2620TIP3   OH229494   3.708   0.584   6.282 -0.0452 -0.5034  0.2250
 2620TIP3    H129495   3.803   0.573   6.269 -0.4443 -1.0910 -3.3257
 2620TIP3    H229496   3.674   0.494   6.282 -0.6863 -0.2638  0.6777
 2621TIP3   OH229497   5.420   1.020   0.101 -0.1024  0.1610  0.4715
 2621TIP3    H129498   5.483   0.963   0.056  0.1771 -0.5067  1.6508
 2621TIP3    H229499   5.334   0.991   0.070  0.1085  0.0355  0.0073
 2622TIP3   OH229500   4.423   1.932   7.423  0.4702  0.7205 -0.1569
 2622TIP3    H129501   4.385   1.956   7.338 -1.0251  0.8656  0.5152
 2622TIP3    H229502   4.358   1.874   7.462  1.8012 -0.5003  0.3076
 2623TIP3   OH229503   0.640   2.861   0.003  0.0223  0.1312  0.1585
 2623TIP3    H129504   0.733   2.867   0.026  0.5039 -0.5079 -1.5299
 2623TIP3    H229505   0.614   2.952  -0.014  0.7365  0.1660 -0.8098
 2624TIP3   OH229506   0.834   7.032   5.606  0.2357 -0.1038 -0.1588
 2624TIP3    H129507   0.890   6.965   5.568 -0.6193 -0.3828 -0.9535
 2624TIP3    H229508   0.746   6.994   5.606  0.2183 -0.2835  2.4674
 2625TIP3   OH229509   4.823   2.928   0.200  0.5378 -0.1121 -0.7903
 2625TIP3    H129510   4.771   3.007   0.190 -1.2855 -1.2723 -0.9141
 2625TIP3    H229511   4.834   2.895   0.111 -1.8679 -1.8717 -0.5363
 2626TIP3   OH229512   0.707   2.521   1.956 -0.1723  0.1012  0.5279
 2626TIP3    H129513   0.756   2.477   2.026  0.8925 -2.8307 -1.8354
 2626TIP3    H229514   0.774   2.562   1.902 -1.0371  3.0610  1.5333
 2627TIP3   OH229515   1.907   4.862   6.836 -0.2668 -0.4130  0.2314
 2627TIP3    H129516   1.888   4.843   6.928  0.8721  0.4372  0.6698
 2627TIP3    H229517   1.957   4.944   6.838  0.5749 -0.8595 -1.0664
 2628TIP3   OH229518   0.086   0.502   1.054 -0.5383 -0.1489  0.0745
 2628TIP3    H129519   0.009   0.509   0.998 -0.7915  1.2728  0.5585
 2628TIP3    H229520   0.051   0.509   1.143 -0.0070 -1.1358  0.3802
 2629TIP3   OH229521   4.832   1.890   0.709 -0.4977 -0.2263 -0.1460
 2629TIP3    H129522   4.815   1.826   0.778 -0.1363  0.6803  0.7932
 2629TIP3    H229523   4.910   1.855   0.665 -0.4374 -0.5522  0.2088
 2630TIP3   OH229524   2.505   2.093   8.265 -0.0391 -0.3166  0.1108
 2630TIP3    H129525   2.416   2.080   8.232 -0.0548 -2.3791  0.7898
 2630TIP3    H229526   2.547   2.008   8.254  1.5223  0.3346  0.7685
 2631TIP3   OH229527   1.656   2.496   7.687 -0.2703  0.3113 -0.5621
 2631TIP3    H129528   1.573   2.503   7.640 -0.0726  0.8010 -0.8506
 2631TIP3    H229529   1.634   2.453   7.770 -0.5791 -0.7575 -1.1945
 2632TIP3   OH229530   2.451   1.994   1.129  0.2357  0.1965  0.3991
 2632TIP3    H129531   2.543   1.988   1.100  0.5101  1.8137  0.8574
 2632TIP3    H229532   2.403   2.020   1.050 -0.2630 -2.9271 -0.4561
 2633TIP3   OH229533   5.369   7.033   0.874  0.5222  0.0426  0.0467
 2633TIP3    H129534   5.401   7.096   0.939  0.3405 -1.0008  1.1972
 2633TIP3    H229535   5.448   6.997   0.834  0.6858 -0.2198  0.6010
 2634TIP3   OH229536   1.379   6.451   0.211 -0.1159 -0.1464 -0.1017
 2634TIP3    H129537   1.449   6.505   0.246  0.6357 -0.8706 -0.4704
 2634TIP3    H229538   1.302   6.508   0.213  0.2882  0.3907  1.0626
 2635TIP3   OH229539   6.364   6.551   6.205 -0.0499 -0.0752  0.1259
 2635TIP3    H129540   6.417   6.500   6.267 -0.8811  2.1723  2.8920
 2635TIP3    H229541   6.428   6.607   6.161  0.1865  1.0442  1.8237
 2636TIP3   OH229542   4.003   0.062   1.510  0.0965  0.0043 -0.5454
 2636TIP3    H129543   4.076   0.001   1.522 -1.2416 -2.2302 -2.7035
 2636TIP3    H229544   3.943   0.043   1.582  0.4925  0.0223 -0.2105
 2637TIP3   OH229545   2.187   6.152   7.609  0.3948 -0.1542 -0.4787
 2637TIP3    H129546   2.272   6.124   7.572  1.2425 -1.6475  2.3337
 2637TIP3    H229547   2.175   6.096   7.685 -2.6182  0.8391 -0.1153
 2638TIP3   OH229548   2.583   3.389   0.758  0.0026  0.2047 -0.3071
 2638TIP3    H129549   2.582   3.446   0.835  0.5514  0.2077 -0.3019
 2638TIP3    H229550   2.576   3.300   0.794  0.9145  0.1665 -0.2112
 2639TIP3   OH229551   0.765   6.967   1.315  0.7073 -1.2688 -0.0739
 2639TIP3    H129552   0.690   6.974   1.373 -1.1229  1.3022 -2.5213
 2639TIP3    H229553   0.838   7.003   1.366 -1.0758  2.0644  0.4184
 2640TIP3   OH229554   6.144   6.775   8.237 -0.7882  0.2647 -0.0448
 2640TIP3    H129555   6.132   6.759   8.330  1.3803 -0.7538  0.1255
 2640TIP3    H229556   6.105   6.698   8.194  0.4213 -0.4963  0.1875
 2641TIP3   OH229557   4.064   4.866   5.757  0.3807  0.0114  0.5335
 2641TIP3    H129558   4.010   4.809   5.811 -1.3655 -0.9333 -2.0299
 2641TIP3    H229559   4.124   4.807   5.711 -0.6079  0.2827 -1.2158
 2642TIP3   OH229560   0.509   0.603   0.388 -0.1301 -0.1839 -0.6913
 2642TIP3    H129561   0.573   0.537   0.361 -1.1272 -1.2420 -0.5622
 2642TIP3    H229562   0.489   0.652   0.309  0.0775 -0.5219 -0.9528
 2643TIP3   OH229563   4.968   4.750   7.509 -0.0247 -0.1350 -0.0239
 2643TIP3    H129564   4.943   4.751   7.417 -0.4118 -1.3043  0.0526
 2643TIP3    H229565   4.952   4.659   7.537 -0.9380  0.4556  1.4669
 2644TIP3   OH229566   4.797   2.390   1.874  0.4798 -0.3504 -0.4117
 2644TIP3    H129567   4.885   2.360   1.898  0.4695 -0.5173 -0.5814
 2644TIP3    H229568   4.751   2.311   1.846  0.4065 -0.2012 -0.7179
 2645TIP3   OH229569   3.645   4.686   1.275  0.3282 -0.2888 -0.0740
 2645TIP3    H129570   3.712   4.680   1.344 -0.6255 -1.6450  0.8037
 2645TIP3    H229571   3.569   4.723   1.320 -0.3343 -1.2846 -0.3475
 2646TIP3   OH229572   4.270   4.391   8.224 -0.4002 -0.3418 -0.2790
 2646TIP3    H129573   4.266   4.431   8.311 -2.1200 -2.5548  0.7412
 2646TIP3    H229574   4.214   4.314   8.229  0.8895 -1.6034 -2.8246
 2647TIP3   OH229575   3.648   0.851   0.463 -0.6139  0.0111 -0.0582
 2647TIP3    H129576   3.662   0.902   0.543 -0.3029 -1.0155  0.5619
 2647TIP3    H229577   3.555   0.828   0.463 -0.6927  0.3293 -0.1888
 2648TIP3   OH229578   2.646   3.399   6.419  0.0038 -0.5592  0.1756
 2648TIP3    H129579   2.664   3.460   6.348  1.1645 -2.1943 -1.0073
 2648TIP3    H229580   2.552   3.382   6.412 -0.1487  0.3381 -0.0850
 2649TIP3   OH229581   0.210   6.544   6.072  0.3029  0.4100 -0.1487
 2649TIP3    H129582   0.118   6.542   6.045  0.0089  0.3362  0.8359
 2649TIP3    H229583   0.247   6.462   6.038 -0.4144 -0.3568  0.8612
 2650TIP3   OH229584   4.794   5.354   1.513  0.2350  0.0248 -0.2206
 2650TIP3    H129585   4.845   5.359   1.432 -0.4350  0.0992 -0.6447
 2650TIP3    H229586   4.774   5.445   1.535 -1.7377 -0.0637 -1.3795
 2651TIP3   OH229587   6.510   0.210   2.457 -0.0589 -0.4749  0.0551
 2651TIP3    H129588   6.491   0.167   2.374  3.1698 -1.9158 -0.0863
 2651TIP3    H229589   6.464   0.159   2.522 -2.0280  0.2307 -0.7068
 2652TIP3   OH229590   4.456   3.111   0.626  0.6440  0.3461 -0.2434
 2652TIP3    H129591   4.431   3.019   0.638  0.5249  0.3110 -0.7384
 2652TIP3    H229592   4.551   3.109   0.615  0.7088  0.3419  0.3220
 2653TIP3   OH229593   3.820   0.448   1.556 -0.6798  0.6665  0.0949
 2653TIP3    H129594   3.775   0.369   1.587 -0.2311  0.4152  0.1051
 2653TIP3    H229595   3.751   0.514   1.554 -0.9962  0.3555  0.3829
 2654TIP3   OH229596   1.609   1.340   0.448  0.3395 -0.5915  0.5049
 2654TIP3    H129597   1.514   1.338   0.464 -0.0032  0.1399 -1.2056
 2654TIP3    H229598   1.640   1.417   0.496  0.0032 -0.6313  0.7886
 2655TIP3   OH229599   2.530   3.044   2.053 -0.1480  0.4409 -0.3332
 2655TIP3    H129600   2.605   3.065   2.109  0.9261  2.2302 -2.2587
 2655TIP3    H229601   2.542   2.952   2.030  0.5933  0.2882  0.5976
 2656TIP3   OH229602   3.892   1.385   7.677 -0.1903 -0.0460  0.5656
 2656TIP3    H129603   3.883   1.404   7.771 -1.1805 -1.0630  0.7017
 2656TIP3    H229604   3.803   1.373   7.646  0.1948 -1.0941 -0.2065
 2657TIP3   OH229605   5.390   0.047   1.469  0.6645  0.1611 -0.3695
 2657TIP3    H129606   5.417  -0.021   1.532  0.8922  1.0928  0.5673
 2657TIP3    H229607   5.344   0.111   1.522  0.9874  1.0425 -1.1379
 2658TIP3   OH229608   3.964   4.264   5.581  0.4676 -0.6095 -0.2124
 2658TIP3    H129609   4.056   4.256   5.609  0.7052 -1.4090 -1.1657
 2658TIP3    H229610   3.939   4.175   5.556 -0.3785 -0.2872 -0.5447
 2659TIP3   OH229611   6.719   5.755   1.912  0.0480 -0.2768 -0.6115
 2659TIP3    H129612   6.659   5.773   1.839 -0.2135 -2.2542 -0.9455
 2659TIP3    H229613   6.676   5.684   1.960  0.6840  0.3506  0.9377
 2660TIP3   OH229614   0.664   5.083   7.925  0.2059  0.3742  0.2214
 2660TIP3    H129615   0.682   4.992   7.944 -1.2831  0.3729  1.8975
 2660TIP3    H229616   0.720   5.132   7.985 -1.5691  0.4457  1.9116
 2661TIP3   OH229617   2.379   0.595   7.904  1.1028 -0.2448 -0.3131
 2661TIP3    H129618   2.402   0.569   7.815  1.4626 -1.5727  0.1356
 2661TIP3    H229619   2.286   0.620   7.899  1.3874  0.6779 -1.2377
 2662TIP3   OH229620   4.511   3.345   7.479 -0.0326  0.2936  0.5122
 2662TIP3    H129621   4.581   3.407   7.502  1.0423 -0.7698  0.1994
 2662TIP3    H229622   4.557   3.270   7.442 -1.0147 -1.9463  3.4486
 2663TIP3   OH229623   3.110   4.253   1.227  0.4163 -0.5133  0.3637
 2663TIP3    H129624   3.109   4.158   1.234  0.2617 -0.5740 -0.3688
 2663TIP3    H229625   3.025   4.274   1.187 -0.3254  0.0829  2.1268
 2664TIP3   OH229626   6.079   3.024   6.860 -0.4495  0.5136  0.2490
 2664TIP3    H129627   6.001   2.984   6.897 -1.4478  3.0588  1.1577
 2664TIP3    H229628   6.125   3.063   6.935  2.0227 -1.2715 -0.1886
 2665TIP3   OH229629   3.361   3.123   1.584  0.8208 -0.0452  0.1126
 2665TIP3    H129630   3.377   3.123   1.678  1.8586 -0.5241 -0.0521
 2665TIP3    H229631   3.411   3.197   1.551  0.9534 -0.2469 -0.1426
 2666TIP3   OH229632   0.463   2.376   0.338 -0.0580 -0.7029  0.4686
 2666TIP3    H129633   0.487   2.285   0.356  0.9662 -0.5886 -0.2886
 2666TIP3    H229634   0.527   2.406   0.274 -1.1241  0.1863 -0.2094
 2667TIP3   OH229635   6.784   4.096   0.229  0.6073 -0.5162  0.2306
 2667TIP3    H129636   6.872   4.112   0.196  1.0321 -2.0999  0.5312
 2667TIP3    H229637   6.771   4.002   0.219 -0.9797 -0.3385  0.3815
 2668TIP3   OH229638   0.192   4.758   0.476  0.2099 -0.0160 -0.5057
 2668TIP3    H129639   0.218   4.811   0.400  2.1361  0.6918  0.5902
 2668TIP3    H229640   0.097   4.771   0.482  0.2477  1.1521 -1.8605
 2669TIP3   OH229641   5.550   4.694   8.164  0.2758  0.2897 -0.2081
 2669TIP3    H129642   5.464   4.653   8.152  1.2893 -2.0635 -0.1098
 2669TIP3    H229643   5.538   4.784   8.134 -2.2827  0.1268  0.0793
 2670TIP3   OH229644   6.759   0.023   6.670  0.0655  0.3287 -0.2688
 2670TIP3    H129645   6.741   0.084   6.741 -0.9393 -0.6449  0.3418
 2670TIP3    H229646   6.828  -0.034   6.705 -0.6553 -0.3541  0.0735
 2671TIP3   OH229647   4.299   5.139   7.215  0.3974  0.1797 -0.2460
 2671TIP3    H129648   4.241   5.113   7.144 -0.4987  0.8803  0.2095
 2671TIP3    H229649   4.262   5.221   7.248  1.3412  0.3627  0.4062
 2672TIP3   OH229650   4.987   5.385   1.331  0.0894 -0.1595 -0.3458
 2672TIP3    H129651   5.041   5.305   1.332 -0.3166 -0.4664 -1.4998
 2672TIP3    H229652   5.033   5.445   1.390  0.8972 -0.9236 -0.1641
 2673TIP3   OH229653   1.253   5.196   7.115  0.0053  0.0445 -0.0410
 2673TIP3    H129654   1.184   5.219   7.053 -1.2545  0.5878  1.4992
 2673TIP3    H229655   1.302   5.277   7.127  1.9544 -0.6891 -2.2752
 2674TIP3   OH229656   0.767   6.167   0.756 -0.2210  0.2580  0.5487
 2674TIP3    H129657   0.780   6.167   0.661 -1.7700  0.0854  0.3126
 2674TIP3    H229658   0.710   6.091   0.772  1.2509 -0.6389  1.8190
 2675TIP3   OH229659   6.997   1.628   7.486 -0.1307 -0.6953  0.4632
 2675TIP3    H129660   6.944   1.707   7.484  1.8372  0.6925  0.8517
 2675TIP3    H229661   6.970   1.583   7.567 -0.4510  0.1608  0.8436
 2676TIP3   OH229662   6.740   5.294   8.257 -0.3091  0.3970  0.0666
 2676TIP3    H129663   6.754   5.241   8.179  0.0589  1.8533 -0.8794
 2676TIP3    H229664   6.738   5.230   8.329 -1.8907 -1.1044 -1.2233
 2677TIP3   OH229665   6.046   2.321   6.151 -0.0872  0.0426  0.0828
 2677TIP3    H129666   5.996   2.300   6.072  0.7340 -0.4783 -0.3159
 2677TIP3    H229667   6.102   2.245   6.165  2.5868  1.6330 -1.1130
 2678TIP3   OH229668   3.458   5.892   1.191  0.1263  0.1603 -0.2275
 2678TIP3    H129669   3.398   5.828   1.155  0.7898 -0.4728 -0.2298
 2678TIP3    H229670   3.407   5.939   1.257 -0.9750  1.0531 -1.6622
 2679TIP3   OH229671   3.378   5.330   7.007  0.4457 -0.0470 -0.5738
 2679TIP3    H129672   3.299   5.290   7.042 -0.0272  0.2170 -1.3108
 2679TIP3    H229673   3.427   5.258   6.968 -0.0239 -0.0366 -1.1974
 2680TIP3   OH229674   0.066   2.285   0.025 -0.2094  0.2433  0.3963
 2680TIP3    H129675   0.126   2.343   0.072  0.1177  1.0108 -0.9198
 2680TIP3    H229676   0.098   2.286  -0.066 -0.5850 -1.4946  0.2078
 2681TIP3   OH229677   5.689   1.097   0.727 -0.4277  0.0789 -0.0297
 2681TIP3    H129678   5.729   1.107   0.813 -1.3682  3.2846  0.1386
 2681TIP3    H229679   5.752   1.136   0.666 -0.9512  0.2677 -0.4579
 2682TIP3   OH229680   1.397   5.861   7.999  0.1788  0.2780  0.1046
 2682TIP3    H129681   1.378   5.935   8.057  0.8797  1.2106 -0.8283
 2682TIP3    H229682   1.492   5.855   7.998  0.1218 -1.4394  1.1178
 2683TIP3   OH229683   6.760   5.693   0.969 -0.0314 -0.3911  0.1013
 2683TIP3    H129684   6.709   5.680   0.890 -1.0123 -0.6094  0.7525
 2683TIP3    H229685   6.738   5.617   1.024  3.0250 -1.9979 -0.6171
 2684TIP3   OH229686   5.373   5.472   7.432  0.1089 -0.4697  0.0074
 2684TIP3    H129687   5.296   5.528   7.440 -0.3321 -1.1076  0.4104
 2684TIP3    H229688   5.445   5.531   7.412 -0.1208  0.3875  1.5680
 2685TIP3   OH229689   0.168   3.031   7.010  0.0264  0.1951  0.1182
 2685TIP3    H129690   0.145   2.938   7.021  0.3135  0.1806  0.6555
 2685TIP3    H229691   0.226   3.049   7.084  0.3895  0.6681 -0.2842
 2686TIP3   OH229692   2.684   0.644   0.517  0.4620 -0.0491  0.0882
 2686TIP3    H129693   2.592   0.645   0.488  1.1886 -0.5121 -2.4245
 2686TIP3    H229694   2.683   0.695   0.598 -2.0404 -0.1930  0.2348
 2687TIP3   OH229695   1.759   1.192   0.236 -0.1786 -0.0215 -0.0289
 2687TIP3    H129696   1.706   1.118   0.206  0.9748 -1.2623  0.9015
 2687TIP3    H229697   1.724   1.213   0.323  0.9409 -0.9840  0.6809
 2688TIP3   OH229698   3.416   5.828   1.499 -0.5483  0.0829 -0.3038
 2688TIP3    H129699   3.347   5.863   1.443 -1.4762 -1.3131 -0.0696
 2688TIP3    H229700   3.371   5.792   1.575  0.4610 -0.5159  0.0340
 2689TIP3   OH229701   4.550   2.603   1.352  0.7165 -0.7112 -0.0660
 2689TIP3    H129702   4.547   2.696   1.375  0.9474 -0.9429  0.9381
 2689TIP3    H229703   4.493   2.596   1.276 -1.0945 -0.1178  1.1757
 2690TIP3   OH229704   0.932   5.733   8.026 -0.2062 -0.3730 -0.2291
 2690TIP3    H129705   0.891   5.819   8.043  0.6270  0.1377 -0.7425
 2690TIP3    H229706   0.988   5.718   8.102  1.1532  0.4784 -1.0098
 2691TIP3   OH229707   4.554   5.834   6.674  0.4818  0.1448  0.0816
 2691TIP3    H129708   4.566   5.928   6.691 -0.1874 -0.1519  2.5620
 2691TIP3    H229709   4.643   5.798   6.678  0.4402  0.1088  3.5762
 2692TIP3   OH229710   5.121   7.022   7.658 -0.7700 -0.1654  0.3234
 2692TIP3    H129711   5.110   6.969   7.579 -0.4737  0.7434 -0.3296
 2692TIP3    H229712   5.032   7.044   7.685 -0.8449  0.1949 -0.2152
 2693TIP3   OH229713   7.076   2.867   1.487  0.4939 -0.8580  0.0370
 2693TIP3    H129714   7.089   2.882   1.581 -0.4201 -0.4235  0.1057
 2693TIP3    H229715   7.161   2.889   1.448  0.2685  1.1597  0.5343
 2694TIP3   OH229716   1.985   6.008   8.209 -0.3248  0.2135  0.2862
 2694TIP3    H129717   2.054   5.982   8.270 -0.4043 -0.2963  0.1627
 2694TIP3    H229718   2.023   6.082   8.161  0.0313  0.1209  0.4175
 2695TIP3   OH229719   1.843   0.662   7.008  0.1352  0.0834  0.5071
 2695TIP3    H129720   1.884   0.717   6.941 -0.9886  0.2349 -0.0900
 2695TIP3    H229721   1.753   0.697   7.015 -1.3170 -2.8920 -1.3766
 2696TIP3   OH229722   2.117   4.653   7.186  0.2656  0.1776  0.7580
 2696TIP3    H129723   2.077   4.654   7.273 -1.5901 -2.0613  0.0378
 2696TIP3    H229724   2.174   4.576   7.187  1.1961  0.8426  0.3571
 2697TIP3   OH229725   1.393   2.422   6.814  0.2057  0.4492  0.5096
 2697TIP3    H129726   1.387   2.482   6.740  2.3488 -0.2669 -0.3122
 2697TIP3    H229727   1.337   2.461   6.881 -1.3609  1.4077 -1.2543
 2698TIP3   OH229728   2.148   1.779   0.803  0.6394 -0.7911 -0.2182
 2698TIP3    H129729   2.068   1.830   0.792  0.3027 -1.6799 -2.4573
 2698TIP3    H229730   2.118   1.692   0.830  1.1724 -0.0958  2.9811
 2699TIP3   OH229731   1.689   2.749   1.579 -0.6330 -0.0775 -0.2784
 2699TIP3    H129732   1.755   2.814   1.606  0.7496 -1.4467 -0.2046
 2699TIP3    H229733   1.612   2.801   1.557 -0.0125  1.4946  1.0271
 2700TIP3   OH229734   1.819   3.336   7.468 -0.1785  0.2759  0.5942
 2700TIP3    H129735   1.739   3.370   7.428 -1.4778 -0.6834  2.2602
 2700TIP3    H229736   1.849   3.268   7.406 -0.5114  0.7938 -0.1495
 2701TIP3   OH229737   0.059   3.040   0.650  0.2285  0.4571 -0.3499
 2701TIP3    H129738  -0.036   3.036   0.642  0.2114  0.2827 -0.0725
 2701TIP3    H229739   0.077   3.011   0.740  0.6065 -0.4887 -0.7173
 2702TIP3   OH229740   5.035   5.996   0.748  0.3098  0.0291  0.5736
 2702TIP3    H129741   4.980   6.045   0.810  0.1705 -1.0819  1.3471
 2702TIP3    H229742   4.991   5.912   0.739 -0.7819  0.8193 -2.6055
 2703TIP3   OH229743   7.033   5.528   0.132  0.3377  0.5377 -0.4909
 2703TIP3    H129744   7.118   5.487   0.114 -0.8363 -2.1026 -0.5599
 2703TIP3    H229745   7.054   5.607   0.180  2.7998 -0.9612  1.1041
 2704TIP3   OH229746   6.320   3.368   7.056  0.3740  0.1791  0.4297
 2704TIP3    H129747   6.291   3.371   6.965  1.0580 -1.1435  0.1555
 2704TIP3    H229748   6.373   3.447   7.067 -1.1468  1.2998  0.2215
 2705TIP3   OH229749   3.288   1.877   7.873 -0.1585  0.3108  0.2848
 2705TIP3    H129750   3.327   1.866   7.960  2.0373  0.4488 -0.6214
 2705TIP3    H229751   3.222   1.946   7.885  1.4686  1.7471  1.4713
 2706TIP3   OH229752   2.897   1.494   7.591 -0.5182 -0.5707 -0.1553
 2706TIP3    H129753   2.986   1.460   7.598 -0.1549  0.2561 -0.5165
 2706TIP3    H229754   2.910   1.588   7.576 -1.4164 -0.6597 -1.6470
 2707TIP3   OH229755   6.988   3.980   6.438  0.0122 -0.6054  0.1385
 2707TIP3    H129756   6.983   4.035   6.360 -1.2320 -1.9011 -0.7539
 2707TIP3    H229757   6.996   3.891   6.403 -0.2365 -1.1855  1.5111
 2708TIP3   OH229758   0.188   4.918   7.034 -0.0720 -0.3558  0.3768
 2708TIP3    H129759   0.172   4.864   7.111  2.5635 -1.9749 -0.0727
 2708TIP3    H229760   0.102   4.926   6.992 -1.0394 -1.9617  1.9024
 2709TIP3   OH229761   3.372   3.130   6.226  0.4307 -0.0846  0.6537
 2709TIP3    H129762   3.422   3.056   6.259  0.5237 -0.8873 -1.1896
 2709TIP3    H229763   3.300   3.090   6.177  0.1952  1.0417  0.0576
 2710TIP3   OH229764   1.564   2.502   1.697  0.1528 -0.5304 -0.2307
 2710TIP3    H129765   1.621   2.579   1.688  0.6990 -0.6833  1.5310
 2710TIP3    H229766   1.586   2.466   1.783 -2.0028 -1.1127  0.1329
 2711TIP3   OH229767   2.850   3.407   1.079 -0.1273  0.2038 -0.3872
 2711TIP3    H129768   2.881   3.389   1.168  1.1785 -0.9958 -1.0243
 2711TIP3    H229769   2.867   3.500   1.065  1.3402  0.0306  0.0428
 2712TIP3   OH229770   6.779   4.250   0.458 -0.2294 -0.7044  0.4659
 2712TIP3    H129771   6.780   4.194   0.381  0.0561  1.1956 -0.9760
 2712TIP3    H229772   6.866   4.238   0.497  0.9694  0.8574 -1.5141
 2713TIP3   OH229773   4.332   4.107   0.470 -0.8113 -0.6460  0.6411
 2713TIP3    H129774   4.409   4.121   0.525 -1.0030  1.6035  0.4269
 2713TIP3    H229775   4.288   4.191   0.468 -1.5989 -1.0307 -1.7726
 2714TIP3   OH229776   0.517   6.560   0.501 -0.0374 -0.5368  0.0175
 2714TIP3    H129777   0.494   6.497   0.432  0.0361  0.2517 -0.7484
 2714TIP3    H229778   0.595   6.524   0.541  2.3862  0.8605 -2.9821
 2715TIP3   OH229779   1.535   6.997   7.817  0.5853 -0.2546  0.4544
 2715TIP3    H129780   1.557   6.919   7.766 -0.6368  0.4747 -1.2861
 2715TIP3    H229781   1.499   7.058   7.753 -0.0370  1.1214  2.0481
 2716TIP3   OH229782   1.317   1.183   8.049 -0.3253  0.3076  0.1881
 2716TIP3    H129783   1.336   1.184   7.955  1.9516  1.9277  0.5592
 2716TIP3    H229784   1.236   1.133   8.057 -0.4588 -0.0921 -2.5973
 2717TIP3   OH229785   6.002   1.251   2.301 -0.8221 -0.7419 -0.0576
 2717TIP3    H129786   5.919   1.248   2.253 -1.4326  1.9824  0.6654
 2717TIP3    H229787   6.027   1.343   2.300  1.3547 -1.2551  1.2007
 2718TIP3   OH229788   5.451   0.668   6.787 -0.5537 -0.4354  0.0825
 2718TIP3    H129789   5.504   0.711   6.720  1.7001 -1.4177  1.1170
 2718TIP3    H229790   5.395   0.737   6.821  0.9266  1.0003 -0.2485
 2719TIP3   OH229791   0.056   5.877   5.790  0.1890  0.0697 -0.0734
 2719TIP3    H129792   0.030   5.880   5.882  0.6417 -0.4320  0.0758
 2719TIP3    H229793  -0.020   5.911   5.743 -1.7382 -3.4665  0.1688
 2720TIP3   OH229794   4.296   6.892   0.960  1.2603 -0.3637  0.5875
 2720TIP3    H129795   4.362   6.843   0.910  1.9914  1.3040 -0.1850
 2720TIP3    H229796   4.347   6.955   1.010  0.3298 -0.0249  1.1271
 2721TIP3   OH229797   0.659   5.442   0.418  0.5574  0.3476  0.1312
 2721TIP3    H129798   0.609   5.411   0.343  1.2043 -0.1605 -0.1078
 2721TIP3    H229799   0.717   5.368   0.440  0.3629  0.4788  1.1372
 2722TIP3   OH229800   6.566   6.148   6.711 -0.2763  0.3097 -0.3677
 2722TIP3    H129801   6.616   6.068   6.727  0.0704  0.3378 -1.2467
 2722TIP3    H229802   6.625   6.202   6.658 -0.1829  1.4868  0.8793
 2723TIP3   OH229803   4.532   3.651   7.278 -0.3843 -0.3951  0.4206
 2723TIP3    H129804   4.534   3.625   7.186 -1.0158  2.3121 -0.4666
 2723TIP3    H229805   4.570   3.739   7.278 -0.7682 -0.1888  2.6997
 2724TIP3   OH229806   2.586   5.951   2.054 -0.1445 -0.1597 -0.5417
 2724TIP3    H129807   2.569   6.028   2.107 -1.0965 -0.0904 -0.9274
 2724TIP3    H229808   2.657   5.905   2.099  0.8651  1.2474 -0.6308
 2725TIP3   OH229809   6.287   4.315   0.374 -0.2524 -0.3461 -0.1289
 2725TIP3    H129810   6.281   4.392   0.430 -0.7001  0.6533 -1.4985
 2725TIP3    H229811   6.275   4.241   0.434  1.4642  0.5447  1.4272
 2726TIP3   OH229812   0.918   5.377   6.401 -0.2231 -0.0903  0.4977
 2726TIP3    H129813   0.958   5.307   6.452 -0.2922  0.5304  1.4256
 2726TIP3    H229814   0.861   5.423   6.463 -0.7988  0.2916 -0.2958
 2727TIP3   OH229815   4.118   2.298   8.192  0.2000 -0.1337  0.2047
 2727TIP3    H129816   4.128   2.367   8.126 -1.1339  0.9553  1.0944
 2727TIP3    H229817   4.205   2.257   8.197  1.1541  1.7624 -0.0491
 2728TIP3   OH229818   6.069   4.990   1.352 -0.7740  0.3032  0.6712
 2728TIP3    H129819   6.003   4.948   1.297 -1.4133  1.1592  0.7653
 2728TIP3    H229820   6.065   4.943   1.435 -0.2956 -0.5369  0.2336
 2729TIP3   OH229821   4.168   5.004   7.681  0.5504 -0.4282  0.0560
 2729TIP3    H129822   4.188   4.984   7.589 -0.5874 -0.6878 -0.1423
 2729TIP3    H229823   4.252   5.034   7.717  0.7226  1.0567 -1.4344
 2730TIP3   OH229824   0.989   0.642   7.909 -0.1097  0.1957  0.1194
 2730TIP3    H129825   1.033   0.580   7.967 -1.2536  0.4796  1.3395
 2730TIP3    H229826   1.055   0.664   7.843 -0.0410 -3.2716 -1.1418
 2731TIP3   OH229827   2.762   2.340   1.281  0.0306  0.1339  0.2782
 2731TIP3    H129828   2.774   2.429   1.250  0.6260 -0.0998 -0.1946
 2731TIP3    H229829   2.696   2.303   1.223  0.0994  0.1360  0.1983
 2732TIP3   OH229830   2.290   5.219   0.671  0.4919  0.1133 -0.1634
 2732TIP3    H129831   2.281   5.264   0.587 -0.7543 -1.1868 -0.7917
 2732TIP3    H229832   2.289   5.126   0.647  0.7357 -0.2677  1.2486
 2733TIP3   OH229833   3.494   5.143   7.326  0.4198  0.1752 -0.1124
 2733TIP3    H129834   3.523   5.213   7.267  0.0202 -0.1386 -0.6859
 2733TIP3    H229835   3.542   5.066   7.297  1.2667  0.3125  0.8633
 2734TIP3   OH229836   1.037   1.719   1.415  0.0264 -0.0893  0.2309
 2734TIP3    H129837   1.017   1.749   1.327 -1.3956  0.0929  0.6006
 2734TIP3    H229838   0.964   1.662   1.438 -0.7037  1.4781  2.0566
 2735TIP3   OH229839   3.196   1.127   6.965 -0.0154 -0.1570 -0.0892
 2735TIP3    H129840   3.161   1.188   6.900  0.1235 -0.2199 -0.2236
 2735TIP3    H229841   3.291   1.136   6.957  0.0051 -0.4430 -0.1556
 2736TIP3   OH229842   1.961   4.854   7.104  0.2618 -0.1937  0.1876
 2736TIP3    H129843   2.013   4.926   7.141 -0.5037  1.6204 -2.0851
 2736TIP3    H229844   2.006   4.775   7.136  0.6538  1.1636  3.4760
 2737TIP3   OH229845   3.265   2.718   7.891 -0.0718 -0.4551 -0.0654
 2737TIP3    H129846   3.200   2.789   7.887  1.8531  1.3370 -1.1422
 2737TIP3    H229847   3.262   2.679   7.804  1.5375  0.8594 -0.7505
 2738TIP3   OH229848   6.738   5.964   1.117  0.2272  0.4839  0.1273
 2738TIP3    H129849   6.722   5.888   1.061 -0.4802  0.1318  0.7960
 2738TIP3    H229850   6.793   6.022   1.064 -2.1161  1.1289 -1.7926
 2739TIP3   OH229851   6.356   0.994   7.981 -0.1949  0.1993  0.1805
 2739TIP3    H129852   6.300   1.071   7.977 -0.3808  0.0260 -1.2504
 2739TIP3    H229853   6.441   1.023   7.948 -0.5132 -0.3695 -1.2459
 2740TIP3   OH229854   1.209   3.370   6.428  0.5777  0.1654 -0.2242
 2740TIP3    H129855   1.264   3.448   6.417  1.7453 -0.7754 -1.2874
 2740TIP3    H229856   1.268   3.297   6.416 -0.4831 -0.9215  0.8625
 2741TIP3   OH229857   6.735   5.185   6.474  0.1183 -0.6095 -0.0025
 2741TIP3    H129858   6.655   5.150   6.433  0.1796 -0.2597 -0.4211
 2741TIP3    H229859   6.799   5.114   6.464  0.0789 -0.5977 -0.3387
 2742TIP3   OH229860   3.505   0.523   0.360  0.4090 -0.5298  0.1371
 2742TIP3    H129861   3.598   0.531   0.377  0.5655 -0.2497 -0.7606
 2742TIP3    H229862   3.475   0.455   0.419  0.6961  0.9904  2.1381
 2743TIP3   OH229863   1.331   1.757   7.132  0.4323  0.0266  0.1301
 2743TIP3    H129864   1.244   1.792   7.151  0.4618  0.3638 -0.3461
 2743TIP3    H229865   1.314   1.667   7.103  0.1930  0.2424 -0.4244
 2744TIP3   OH229866   6.754   1.396   1.371  0.2561 -0.4421 -0.1726
 2744TIP3    H129867   6.717   1.405   1.284 -0.1909 -0.7115 -0.0159
 2744TIP3    H229868   6.700   1.452   1.426  1.4074  0.8468 -0.3006
 2745TIP3   OH229869   0.405   1.522   7.392 -0.8249  0.2713 -0.5461
 2745TIP3    H129870   0.364   1.589   7.447 -1.9409 -0.2084 -0.7658
 2745TIP3    H229871   0.332   1.482   7.344 -0.0518 -0.3660 -1.2280
 2746TIP3   OH229872   2.896   3.889   7.988  0.5710 -0.8824 -0.0121
 2746TIP3    H129873   2.848   3.864   7.908  0.3515 -0.5214 -0.0000
 2746TIP3    H229874   2.963   3.822   7.998  0.4859 -1.0313 -0.4033
 2747TIP3   OH229875   0.711   4.583   0.333  0.5291 -0.2579  0.4361
 2747TIP3    H129876   0.747   4.631   0.408  0.4233  1.3429 -0.4753
 2747TIP3    H229877   0.634   4.634   0.307 -1.0706 -2.3458  0.9243
 2748TIP3   OH229878   2.292   0.887   6.318 -0.0625 -0.3601 -0.2089
 2748TIP3    H129879   2.377   0.873   6.276 -0.3384  0.5424 -1.1007
 2748TIP3    H229880   2.293   0.828   6.393  1.5044 -0.1120  0.0076
 2749TIP3   OH229881   5.684   6.529   0.099 -0.7434 -0.3779  0.3614
 2749TIP3    H129882   5.589   6.546   0.100 -1.2119 -2.1161 -2.5693
 2749TIP3    H229883   5.717   6.585   0.029 -0.0482 -1.5489 -0.2693
 2750TIP3   OH229884   4.214   5.837   1.057 -0.4764  0.0052  0.5332
 2750TIP3    H129885   4.121   5.835   1.036 -0.3242  0.4610 -0.2189
 2750TIP3    H229886   4.235   5.930   1.064  0.3969  0.0135 -1.5570
 2751TIP3   OH229887   6.059   6.180   6.694  0.3512  0.0094 -0.5033
 2751TIP3    H129888   6.125   6.163   6.627  0.7466  0.7624 -0.3185
 2751TIP3    H229889   6.019   6.263   6.667  0.1247  0.0294 -0.1068
 2752TIP3   OH229890   2.589   3.457   0.255  0.5243 -0.0401 -0.1871
 2752TIP3    H129891   2.684   3.460   0.240  0.6413  0.2339  0.5633
 2752TIP3    H229892   2.553   3.524   0.197  1.0863  1.8565  1.5582
 2753TIP3   OH229893   0.076   3.861   8.166  0.3345  0.3298  0.0954
 2753TIP3    H129894   0.043   3.816   8.088 -0.6962  0.7766  0.2471
 2753TIP3    H229895   0.124   3.936   8.133 -0.9547  1.0915 -0.1242
 2754TIP3   OH229896   0.896   0.159   7.167  0.8245 -0.3234  0.0027
 2754TIP3    H129897   0.981   0.173   7.208  0.6769 -0.6279  0.4255
 2754TIP3    H229898   0.912   0.169   7.073  1.2870 -0.1982  0.0946
 2755TIP3   OH229899   0.993   4.221   0.544  0.4101  0.2975 -0.2985
 2755TIP3    H129900   0.984   4.129   0.568 -2.0213  0.3985 -0.5780
 2755TIP3    H229901   1.019   4.265   0.625 -0.3851 -0.3708  0.3302
 2756TIP3   OH229902   6.143   2.990   8.157  0.0371  0.1709  0.0723
 2756TIP3    H129903   6.179   2.952   8.238 -0.6104 -0.3342  0.1298
 2756TIP3    H229904   6.142   2.917   8.095 -1.0854  0.1155  0.1420
 2757TIP3   OH229905   3.510   5.423   2.394  0.2825  0.9185 -0.0884
 2757TIP3    H129906   3.572   5.358   2.362  0.0819  1.2850 -1.2811
 2757TIP3    H229907   3.522   5.423   2.489  0.8991 -0.2216 -0.1430
 2758TIP3   OH229908   5.247   1.880   8.119  0.4046  0.1184  0.4299
 2758TIP3    H129909   5.222   1.803   8.068  0.5348  0.0393  0.4831
 2758TIP3    H229910   5.252   1.951   8.056  0.7569 -0.0202  0.3014
 2759TIP3   OH229911   3.224   1.720   1.333  0.0420  0.3760  0.2121
 2759TIP3    H129912   3.283   1.778   1.381  1.1281 -1.1805  0.8363
 2759TIP3    H229913   3.253   1.632   1.356 -1.7200 -0.4375 -0.4974
 2760TIP3   OH229914   4.888   4.043   0.043  0.1302 -0.5331 -0.3939
 2760TIP3    H129915   4.815   4.024  -0.016  0.4583  0.9732 -1.3187
 2760TIP3    H229916   4.847   4.085   0.119 -0.1437 -1.2958 -0.1075
 2761TIP3   OH229917   6.035   6.689   7.865  0.0900  0.3626 -0.0128
 2761TIP3    H129918   6.071   6.777   7.856  1.3257  0.1464  2.0966
 2761TIP3    H229919   6.102   6.632   7.828  1.4187  0.0722  2.5664
 2762TIP3   OH229920   0.170   3.097   0.944  0.2534  0.0907 -0.0031
 2762TIP3    H129921   0.205   3.011   0.922 -1.1787 -0.1766 -1.4348
 2762TIP3    H229922   0.091   3.078   0.996 -0.4721  0.4884 -0.9313
 2763TIP3   OH229923   4.515   4.323   5.808  0.4391  0.3001  1.0286
 2763TIP3    H129924   4.474   4.250   5.762  0.1241 -0.1926  2.0585
 2763TIP3    H229925   4.591   4.285   5.851 -0.3205  0.3182  2.4444
 2764TIP3   OH229926   1.629   1.166   7.635  0.4081  0.1857 -0.1146
 2764TIP3    H129927   1.687   1.199   7.704  0.8870 -1.4198  0.3003
 2764TIP3    H229928   1.659   1.211   7.556  1.7686 -0.0703  0.2159
 2765TIP3   OH229929   4.554   4.520   6.657  0.6241 -0.2999  0.8608
 2765TIP3    H129930   4.554   4.609   6.623  0.2008 -0.6518 -0.1130
 2765TIP3    H229931   4.479   4.478   6.614  1.3544 -1.3749  0.6072
 2766TIP3   OH229932   2.443   5.105   6.901 -0.5823  0.0445 -0.4804
 2766TIP3    H129933   2.381   5.177   6.890  0.1307  0.7718  0.2437
 2766TIP3    H229934   2.486   5.097   6.816 -1.3816 -0.2217 -0.8763
 2767TIP3   OH229935   1.170   5.862   7.045 -0.2134  0.3616  0.2195
 2767TIP3    H129936   1.126   5.909   6.974 -0.3212 -0.5935 -0.3633
 2767TIP3    H229937   1.250   5.912   7.062 -0.1439  0.5478 -0.6463
 2768TIP3   OH229938   2.885   2.356   6.456 -0.1700  0.1423 -0.5348
 2768TIP3    H129939   2.881   2.292   6.527 -0.8262  0.0018 -0.6939
 2768TIP3    H229940   2.874   2.304   6.376  0.5993  0.2955 -0.7462
 2769TIP3   OH229941   5.803   5.641   6.858  0.1536 -0.1675  0.2882
 2769TIP3    H129942   5.804   5.673   6.949 -0.0951 -0.6875  0.4745
 2769TIP3    H229943   5.745   5.702   6.813 -2.0001 -1.5015  1.0908
 2770TIP3   OH229944   0.255   6.450   0.542  0.2410 -0.6076 -0.0290
 2770TIP3    H129945   0.289   6.370   0.502  0.3243  0.2377 -1.7207
 2770TIP3    H229946   0.324   6.515   0.528 -0.6555  0.2706 -0.5034
 2771TIP3   OH229947   4.190   6.544   7.422  0.1147 -0.1036  0.1439
 2771TIP3    H129948   4.180   6.502   7.508 -2.1849 -0.4296 -0.2182
 2771TIP3    H229949   4.114   6.513   7.372  0.7341  1.0838 -1.5920
 2772TIP3   OH229950   6.660   0.717   6.837 -0.0304 -0.2644 -0.1690
 2772TIP3    H129951   6.620   0.803   6.825 -0.4139 -0.4866 -0.5313
 2772TIP3    H229952   6.588   0.656   6.824  0.3888 -0.6682 -0.6177
 2773TIP3   OH229953   4.477   6.381   7.590  0.4365 -0.1441  0.1448
 2773TIP3    H129954   4.451   6.337   7.671 -0.8855 -0.2906 -0.3389
 2773TIP3    H229955   4.412   6.354   7.526  0.7317  0.9849 -0.6608
 2774TIP3   OH229956   0.931   2.516   0.143 -0.3842 -0.8842 -0.5309
 2774TIP3    H129957   0.960   2.510   0.234  0.5088  2.3490 -0.4962
 2774TIP3    H229958   0.983   2.450   0.097 -0.4367 -2.1822  1.1838
 2775TIP3   OH229959   4.498   6.041   7.220  0.2882 -0.2292 -0.2042
 2775TIP3    H129960   4.501   5.997   7.305 -0.9291  0.1327  0.0460
 2775TIP3    H229961   4.466   6.129   7.240  0.0686 -0.1129 -1.0259
 2776TIP3   OH229962   7.024   6.949   6.818  0.4577 -0.0177  0.2090
 2776TIP3    H129963   7.037   7.031   6.867  0.7920 -0.6014  1.1218
 2776TIP3    H229964   6.984   6.890   6.881 -2.9965  0.4296 -1.3467
 2777TIP3   OH229965   6.064   6.742   6.240  0.5355  0.3209 -0.5618
 2777TIP3    H129966   6.102   6.706   6.320  0.7614 -0.0531 -0.8408
 2777TIP3    H229967   5.970   6.725   6.249  0.6857 -0.7675 -0.9038
 2778TIP3   OH229968   0.060   2.437   7.778  0.3158  0.1417  0.2072
 2778TIP3    H129969   0.131   2.501   7.772  0.0639  0.5354  1.1837
 2778TIP3    H229970   0.028   2.446   7.868 -2.0734  1.1560 -0.6800
 2779TIP3   OH229971   6.677   4.268   6.666  0.1722  0.1468 -0.0057
 2779TIP3    H129972   6.631   4.347   6.636 -0.7654 -0.2898  0.2291
 2779TIP3    H229973   6.679   4.211   6.589  0.5838  0.2797 -0.0947
 2780TIP3   OH229974   6.781   0.122   0.680 -0.3710 -0.0877 -0.4158
 2780TIP3    H129975   6.785   0.198   0.739 -1.4241 -2.4730  3.0852
 2780TIP3    H229976   6.688   0.113   0.658 -0.0732  0.3603 -1.9391
 2781TIP3   OH229977   5.510   2.432   7.701  0.2515  0.1209  0.5706
 2781TIP3    H129978   5.547   2.442   7.789 -0.1857  1.3108  0.6390
 2781TIP3    H229979   5.584   2.445   7.642  0.6155 -1.0142  0.7479
 2782TIP3   OH229980   3.986   4.656   6.583 -0.4615  0.0621  0.5252
 2782TIP3    H129981   3.965   4.732   6.529 -1.5181 -0.4253  0.2312
 2782TIP3    H229982   4.033   4.596   6.524 -2.2038 -0.7608 -0.0755
 2783TIP3   OH229983   6.608   2.881   7.592 -0.1631  0.2163 -0.3669
 2783TIP3    H129984   6.547   2.942   7.630  0.0535  0.9108 -1.0988
 2783TIP3    H229985   6.692   2.927   7.591  0.7732 -1.2517  2.0184
 2784TIP3   OH229986   4.223   0.749   6.048 -0.4948  0.1541  0.2691
 2784TIP3    H129987   4.292   0.706   5.996 -1.3833 -1.3292  0.2588
 2784TIP3    H229988   4.267   0.824   6.087  0.5744  0.5118 -1.4719
 2785TIP3   OH229989   0.271   1.663   6.347 -0.7234 -0.2703 -0.1804
 2785TIP3    H129990   0.310   1.614   6.419  0.6178 -0.5645 -1.0546
 2785TIP3    H229991   0.277   1.604   6.272  1.0562  1.2146 -1.3018
 2786TIP3   OH229992   6.638   0.282   6.763 -0.3869 -0.3294  0.4033
 2786TIP3    H129993   6.545   0.295   6.779 -0.8540 -0.5051 -1.8013
 2786TIP3    H229994   6.663   0.358   6.709  0.3852 -1.0084 -0.2210
 2787TIP3   OH229995   3.321   0.433   7.471  0.2219  0.3349  0.3924
 2787TIP3    H129996   3.291   0.466   7.386  0.2772  1.2921  0.7294
 2787TIP3    H229997   3.283   0.346   7.478  0.4397  0.1306 -0.7349
 2788TIP3   OH229998   0.075   5.583   6.422  0.7486  0.1746 -0.3182
 2788TIP3    H129999   0.034   5.643   6.360  1.7843  0.4117 -0.7847
 2788TIP3    H230000   0.014   5.581   6.496 -1.8816 -2.1141 -2.2966
 2789TIP3   OH230001   2.677   1.892   7.481  0.1000 -0.1124  0.0833
 2789TIP3    H130002   2.715   1.888   7.569 -1.4586 -0.8789  0.7543
 2789TIP3    H230003   2.738   1.843   7.426  1.4365  0.9233  0.5667
 2790TIP3   OH230004   3.566   3.632   1.064 -1.0072  0.4582  0.6306
 2790TIP3    H130005   3.562   3.561   1.001  0.8844  0.5632  0.3188
 2790TIP3    H230006   3.521   3.599   1.141  0.2408 -1.3102  0.6730
 2791TIP3   OH230007   3.333   4.363   6.624 -0.3136  0.2129 -0.3613
 2791TIP3    H130008   3.366   4.273   6.626 -0.6033  0.1008 -0.6836
 2791TIP3    H230009   3.330   4.386   6.531  0.8896  0.9770 -0.2339
 2792TIP3   OH230010   0.318   4.925   0.702  0.3412 -0.2663 -0.2255
 2792TIP3    H130011   0.350   4.845   0.743 -0.3578 -0.6565 -0.4271
 2792TIP3    H230012   0.287   4.897   0.616 -1.4101 -0.0829  0.3145
 2793TIP3   OH230013   4.982   1.064   2.032  0.3311 -0.0744 -0.0397
 2793TIP3    H130014   5.039   1.137   2.009  0.9032 -0.6898 -0.6224
 2793TIP3    H230015   5.042   0.992   2.051 -0.2474 -0.6604 -0.4203
 2794TIP3   OH230016   4.568   5.143   0.012 -0.2286 -0.2664  0.2284
 2794TIP3    H130017   4.587   5.050   0.015  3.2906  0.3262  0.4621
 2794TIP3    H230018   4.542   5.165   0.102  1.1155 -0.6939  0.7483
 2795TIP3   OH230019   3.633   6.136   1.901  0.0296  0.2095  0.0813
 2795TIP3    H130020   3.558   6.195   1.914 -0.4304 -0.4826  0.6126
 2795TIP3    H230021   3.600   6.050   1.926  0.8759 -0.1755 -0.1203
 2796TIP3   OH230022   4.196   4.525   1.439 -0.6467 -0.3489  0.4120
 2796TIP3    H130023   4.240   4.440   1.441  0.2261  0.0772  3.1752
 2796TIP3    H230024   4.205   4.555   1.349  0.8077 -2.2740 -0.1410
 2797TIP3   OH230025   0.277   7.072   1.099  0.4815 -0.8989 -0.4793
 2797TIP3    H130026   0.247   7.159   1.129  0.9235 -0.3077 -1.6922
 2797TIP3    H230027   0.329   7.039   1.172  1.2185  0.3440 -0.3939
 2798TIP3   OH230028   2.383   3.563   1.654 -0.0212  0.2216 -0.0091
 2798TIP3    H130029   2.291   3.547   1.672 -0.5517  2.2826 -0.7134
 2798TIP3    H230030   2.391   3.554   1.559  1.0034 -2.1062  0.2247
 2799TIP3   OH230031   5.598   3.832   1.190 -0.3282 -0.1452 -0.2691
 2799TIP3    H130032   5.507   3.802   1.184 -0.6176  0.4421  0.8948
 2799TIP3    H230033   5.594   3.907   1.249  1.0180 -0.5108  0.3023
 2800TIP3   OH230034   3.547   0.046   7.695 -0.1651  0.1871 -0.4367
 2800TIP3    H130035   3.592   0.120   7.656  0.7932 -0.6603 -0.9825
 2800TIP3    H230036   3.554  -0.024   7.630 -1.3057 -0.3086 -0.0646
 2801TIP3   OH230037   0.844   3.245   7.190  0.0701 -0.6839 -0.2313
 2801TIP3    H130038   0.841   3.258   7.285 -0.2196 -0.6856 -0.2383
 2801TIP3    H230039   0.933   3.270   7.165  0.4698 -1.6282  0.1822
 2802TIP3   OH230040   6.254   3.325   7.586 -0.1987  0.4480 -0.5239
 2802TIP3    H130041   6.240   3.397   7.524 -0.7756 -0.1798 -1.1298
 2802TIP3    H230042   6.302   3.259   7.536  0.0082  0.2547 -0.0761
 2803TIP3   OH230043   0.569   6.507   7.580  0.4992 -0.0868 -0.0578
 2803TIP3    H130044   0.579   6.497   7.675  0.0320 -1.4339 -0.1298
 2803TIP3    H230045   0.489   6.559   7.570 -0.8497 -1.9933  0.2843
 2804TIP3   OH230046   6.953   0.355   6.653 -0.0561  0.3369 -0.3496
 2804TIP3    H130047   6.923   0.383   6.739  1.4556  0.0571  0.3065
 2804TIP3    H230048   7.035   0.308   6.670  1.1722  1.6882 -2.0573
 2805TIP3   OH230049   0.964   5.478   0.328  0.5322  0.2953  0.3004
 2805TIP3    H130050   0.965   5.573   0.327  2.5674  0.3275 -0.2129
 2805TIP3    H230051   0.995   5.455   0.416  1.1538  0.1467  0.0504
 2806TIP3   OH230052   2.341   6.008   1.234  0.0153 -0.2826 -0.0946
 2806TIP3    H130053   2.393   6.049   1.165  0.8168 -0.9854  0.0807
 2806TIP3    H230054   2.327   6.078   1.298  0.4469  0.0099 -0.3135
 2807TIP3   OH230055   5.598   5.030   7.635 -0.4913  0.1025 -0.0620
 2807TIP3    H130056   5.523   5.037   7.694 -0.5798  0.2153 -0.1865
 2807TIP3    H230057   5.674   5.050   7.690 -0.7948  3.1143 -0.6083
 2808TIP3   OH230058   5.975   4.306   0.676  0.1677  0.1650  1.3437
 2808TIP3    H130059   6.016   4.225   0.645  1.4353  0.9053  0.9814
 2808TIP3    H230060   5.895   4.278   0.720  2.1547 -1.6047  4.1308
 2809TIP3   OH230061   4.916   1.830   1.165 -0.1695 -1.1352 -1.0153
 2809TIP3    H130062   4.993   1.834   1.222 -0.5584 -0.9373 -0.4973
 2809TIP3    H230063   4.936   1.760   1.102 -0.0201 -1.8465 -0.2039
 2810TIP3   OH230064   2.558   5.300   0.168  0.4738  0.3026 -0.3834
 2810TIP3    H130065   2.641   5.316   0.214  0.2104  2.0020 -0.4153
 2810TIP3    H230066   2.499   5.368   0.201 -0.8809 -0.7973 -0.4668
 2811TIP3   OH230067   4.452   5.800   6.930  0.0074  0.2707  0.1668
 2811TIP3    H130068   4.469   5.769   6.841  0.8159  2.3933 -0.4953
 2811TIP3    H230069   4.522   5.762   6.983 -1.2748 -2.1482  0.2418
 2812TIP3   OH230070   0.838   1.905   8.155 -0.0777  0.1115  0.4751
 2812TIP3    H130071   0.877   1.861   8.230  1.0840  0.5459  0.1407
 2812TIP3    H230072   0.772   1.844   8.123  0.6021 -0.8123  0.8067
 2813TIP3   OH230073   0.609   6.534   7.304 -0.4267  0.0494  0.5730
 2813TIP3    H130074   0.599   6.537   7.399 -0.2291 -1.1079  0.6534
 2813TIP3    H230075   0.601   6.441   7.282  0.5005  0.1770 -0.4260
 2814TIP3   OH230076   3.800   3.103   0.236  0.6931 -0.5373  0.1065
 2814TIP3    H130077   3.760   3.095   0.323  0.6429 -1.3663  0.0135
 2814TIP3    H230078   3.800   3.197   0.219  1.3485 -0.2867  1.3068
 2815TIP3   OH230079   5.945   4.550   1.605  0.3877  0.3458 -0.0732
 2815TIP3    H130080   5.950   4.645   1.615  0.8475  0.3065  0.0953
 2815TIP3    H230081   5.852   4.529   1.615  0.2723  0.7860 -0.2047
 2816TIP3   OH230082   2.144   0.724   7.135 -0.2656  0.0942  0.6386
 2816TIP3    H130083   2.158   0.768   7.051 -2.8247  2.4501  1.2814
 2816TIP3    H230084   2.136   0.632   7.114  2.1778  0.2096 -1.2408
 2817TIP3   OH230085   3.817   6.065   1.336  0.0193  0.3425 -0.4150
 2817TIP3    H130086   3.764   5.987   1.353  0.4841  0.3142  1.0091
 2817TIP3    H230087   3.886   6.062   1.402  0.0237  1.9784 -0.3123
 2818TIP3   OH230088   4.959   3.521   5.819  0.3848 -0.4945 -0.1466
 2818TIP3    H130089   5.001   3.602   5.849  0.2651 -0.6163  0.3665
 2818TIP3    H230090   5.009   3.495   5.742 -0.7480  1.0879 -1.4793
 2819TIP3   OH230091   6.378   5.687   8.263  0.6713  0.6814 -0.7733
 2819TIP3    H130092   6.426   5.618   8.309  0.4456 -0.2511 -1.8705
 2819TIP3    H230093   6.446   5.736   8.217  0.9082  1.6868  0.5930
 2820TIP3   OH230094   3.144   3.824   8.276 -0.6349  0.0588  1.0910
 2820TIP3    H130095   3.051   3.803   8.266 -0.7691  0.5407  1.2938
 2820TIP3    H230096   3.189   3.745   8.247 -1.0696  0.3150 -0.3535
 2821TIP3   OH230097   2.387   2.849   5.871 -0.2041 -0.8068  0.2742
 2821TIP3    H130098   2.341   2.867   5.953  1.6496  0.7835  1.0524
 2821TIP3    H230099   2.463   2.907   5.873 -0.5507 -0.0277 -3.0033
 2822TIP3   OH230100   2.200   5.549   5.743  0.0818 -0.0865 -0.4291
 2822TIP3    H130101   2.195   5.457   5.716 -0.5504  0.0216 -0.7019
 2822TIP3    H230102   2.125   5.591   5.701  1.2998  0.9230 -1.6612
 2823TIP3   OH230103   3.246   4.057   8.148 -0.6116 -0.4470 -0.2882
 2823TIP3    H130104   3.162   4.100   8.166  0.0483  0.2008  1.4698
 2823TIP3    H230105   3.226   3.963   8.154 -1.6197 -0.3983 -2.0534
 2824TIP3   OH230106   3.443   0.429   0.822  0.1951  0.4420  0.4306
 2824TIP3    H130107   3.452   0.382   0.739  0.2664  2.0909 -0.5326
 2824TIP3    H230108   3.365   0.483   0.811  0.5940  1.1953  1.1872
 2825TIP3   OH230109   5.031   3.491   6.255 -0.1470  0.0924 -0.1842
 2825TIP3    H130110   4.940   3.465   6.242  0.0497  0.0760 -1.6393
 2825TIP3    H230111   5.059   3.525   6.170  1.3768 -0.4445  0.0739
 2826TIP3   OH230112   1.978   6.921   7.074 -0.2369  0.3582  0.6147
 2826TIP3    H130113   2.016   6.928   7.161  1.4726  0.5424 -0.1036
 2826TIP3    H230114   2.004   7.002   7.030  0.8187 -0.6668 -0.7520
 2827TIP3   OH230115   1.781   5.071   6.649 -0.0107  0.3764  0.0217
 2827TIP3    H130116   1.762   5.015   6.574 -0.8759  0.3385  0.2530
 2827TIP3    H230117   1.877   5.074   6.654  0.0937 -1.9879  0.6408
 2828TIP3   OH230118   3.934   0.001   1.925  0.0569  0.5395 -0.0154
 2828TIP3    H130119   3.897   0.088   1.908  0.0255  0.7450  1.0337
 2828TIP3    H230120   3.859  -0.058   1.919  0.0626  0.5905 -0.6473
 2829TIP3   OH230121   5.864   5.617   7.163 -0.1907 -0.5593 -0.4578
 2829TIP3    H130122   5.909   5.544   7.121  0.0884 -0.8389  0.3131
 2829TIP3    H230123   5.852   5.589   7.254 -0.9122 -0.0272 -0.3793
 2830TIP3   OH230124   0.751   4.856   7.386 -0.0252 -0.0443  0.3395
 2830TIP3    H130125   0.780   4.786   7.444  0.3711 -0.2287 -0.0773
 2830TIP3    H230126   0.830   4.881   7.338  0.2581  1.8099  1.6310
 2831TIP3   OH230127   4.905   4.825   0.631  0.1846  0.2657 -0.0028
 2831TIP3    H130128   4.879   4.835   0.723  0.6482  1.3552  0.0292
 2831TIP3    H230129   4.839   4.768   0.593 -0.5271  0.5383  0.8037
 2832TIP3   OH230130   6.796   4.684   1.023  0.3224 -0.0518  0.1950
 2832TIP3    H130131   6.795   4.772   0.988  1.6309 -0.5740 -1.2980
 2832TIP3    H230132   6.704   4.662   1.038 -0.5813 -0.2949 -4.3708
 2833TIP3   OH230133   0.064   0.005   7.243  0.5846  0.5562  0.0687
 2833TIP3    H130134   0.082   0.035   7.154 -0.1778 -1.3906 -0.8025
 2833TIP3    H230135   0.146  -0.033   7.273  0.7255  0.8229  0.0192
 2834TIP3   OH230136   4.922   6.651   0.895 -0.0517 -0.7373  0.4799
 2834TIP3    H130137   4.924   6.634   0.989  0.6536 -2.2029  0.2223
 2834TIP3    H230138   4.978   6.584   0.857  0.8142  0.6762 -0.8797
 2835TIP3   OH230139   3.398   5.714   1.872  0.5068 -0.3103 -0.2098
 2835TIP3    H130140   3.366   5.684   1.957  1.0934  1.9946  0.9015
 2835TIP3    H230141   3.320   5.712   1.816 -0.6175  0.8595  1.2090
 2836TIP3   OH230142   4.357   1.474   0.235 -0.0434  0.1481  0.1089
 2836TIP3    H130143   4.429   1.512   0.285 -1.4542 -0.8896  3.2020
 2836TIP3    H230144   4.325   1.546   0.179  2.6765  0.8800 -0.6251
 2837TIP3   OH230145   1.028   3.393   7.760  0.8893  0.0238 -0.2681
 2837TIP3    H130146   0.954   3.333   7.770  0.4060  0.6928  0.2129
 2837TIP3    H230147   1.006   3.468   7.815  1.7298  0.4187 -0.4582
 2838TIP3   OH230148   3.900   6.990   6.606  0.5397 -0.2511 -0.0686
 2838TIP3    H130149   3.928   7.011   6.517  1.1630  0.1551  0.2182
 2838TIP3    H230150   3.954   6.915   6.630  1.6452  0.7163  0.5942
 2839TIP3   OH230151   6.861   2.965   1.330  0.4555  0.1373 -0.4313
 2839TIP3    H130152   6.891   2.878   1.354  1.8241  0.0892 -2.1480
 2839TIP3    H230153   6.893   3.022   1.400 -0.0615 -0.6429  0.4681
 2840TIP3   OH230154   4.716   0.591   0.438 -0.2402 -0.2577 -0.3375
 2840TIP3    H130155   4.791   0.546   0.476 -0.4398 -0.4013 -0.1047
 2840TIP3    H230156   4.746   0.680   0.423  0.1489 -0.4599 -0.7772
 2841TIP3   OH230157   2.973   4.388   2.152 -0.2280 -0.5538 -0.1001
 2841TIP3    H130158   3.018   4.313   2.114  1.2969 -0.1698  0.8639
 2841TIP3    H230159   3.000   4.389   2.244 -2.5293 -0.5076  0.6397
 2842TIP3   OH230160   6.844   0.310   1.911 -0.2026  0.1471 -0.0638
 2842TIP3    H130161   6.836   0.263   1.829  0.3876  0.3685 -0.2547
 2842TIP3    H230162   6.900   0.385   1.891 -0.6659  0.6142  0.3656
 2843TIP3   OH230163   4.419   0.281   5.961  0.2792  0.0185  0.1000
 2843TIP3    H130164   4.352   0.213   5.965  0.0142  0.1908 -1.1658
 2843TIP3    H230165   4.387   0.344   5.897  1.6649  0.0642 -0.5915
 2844TIP3   OH230166   2.155   7.018   0.251  0.7817 -0.4235  0.0197
 2844TIP3    H130167   2.136   7.041   0.342 -1.3361 -0.0960 -0.4674
 2844TIP3    H230168   2.188   7.100   0.212  1.1131 -0.4098  0.3189
 2845TIP3   OH230169   6.625   5.949   0.787 -0.4968 -0.7853 -0.5905
 2845TIP3    H130170   6.696   5.921   0.844 -1.1895  0.4984  0.9735
 2845TIP3    H230171   6.586   6.025   0.831 -0.5952  0.7779 -3.1443
 2846TIP3   OH230172   3.274   0.125   7.577 -0.5813  0.2774 -0.3589
 2846TIP3    H130173   3.281   0.067   7.501 -0.4847 -0.4388  0.1844
 2846TIP3    H230174   3.196   0.177   7.560 -1.8586 -1.4201  0.0703
 2847TIP3   OH230175   6.674   4.854   1.330  0.2861  0.6045 -0.2169
 2847TIP3    H130176   6.660   4.906   1.251  0.3307  1.9870  0.6367
 2847TIP3    H230177   6.598   4.796   1.335 -3.0474  4.6170  1.7701
 2848TIP3   OH230178   0.637   1.781   0.341 -0.1261 -0.4161 -0.6840
 2848TIP3    H130179   0.602   1.832   0.414 -0.5772 -0.0402 -1.1561
 2848TIP3    H230180   0.610   1.691   0.359  0.7274 -0.5212  0.1865
 2849TIP3   OH230181   5.359   0.427   7.448  0.0489 -0.3213 -0.0052
 2849TIP3    H130182   5.374   0.491   7.379 -0.9094 -0.5616 -0.4549
 2849TIP3    H230183   5.397   0.346   7.415  0.3720 -0.2300  0.1357
 2850TIP3   OH230184   5.712   2.496   7.036 -0.7425  0.2067 -0.1079
 2850TIP3    H130185   5.652   2.460   6.971 -0.2299 -1.5705  0.3361
 2850TIP3    H230186   5.789   2.522   6.986 -1.8888  2.7058 -0.7121
 2851TIP3   OH230187   4.754   2.199   1.606 -0.4289  0.3072  0.1171
 2851TIP3    H130188   4.734   2.257   1.679  0.3367 -0.6207  1.0758
 2851TIP3    H230189   4.717   2.115   1.631  0.9591 -0.3459  0.0159
 2852TIP3   OH230190   2.184   0.928   6.914 -0.0784 -0.6853  0.2866
 2852TIP3    H130191   2.273   0.963   6.917 -0.1485 -0.5355  0.7231
 2852TIP3    H230192   2.154   0.946   6.825  0.1858 -0.3836  0.2570
 2853TIP3   OH230193   1.781   3.632   7.266  0.0404 -0.1406  0.2410
 2853TIP3    H130194   1.791   3.586   7.182 -2.2253  0.0324 -0.1875
 2853TIP3    H230195   1.713   3.583   7.312  2.1816 -1.0790  2.6648
 2854TIP3   OH230196   1.096   3.230   6.654 -0.4522  0.6560  0.1920
 2854TIP3    H130197   1.041   3.258   6.582 -0.4431 -1.1589 -0.5839
 2854TIP3    H230198   1.185   3.232   6.619 -0.5925 -1.8693 -0.4997
 2855TIP3   OH230199   5.445   2.202   7.553 -0.0187  0.6702  0.4737
 2855TIP3    H130200   5.466   2.247   7.471  1.8671  0.7673  0.9677
 2855TIP3    H230201   5.420   2.272   7.613  1.7550  0.9790  0.8946
 2856TIP3   OH230202   3.156   6.427   1.260  0.2998  0.0586 -0.0553
 2856TIP3    H130203   3.063   6.407   1.245  0.3749 -0.8335  0.5845
 2856TIP3    H230204   3.201   6.391   1.184  0.1904 -0.1571 -0.0190
 2857TIP3   OH230205   1.497   0.588   1.643 -0.1832 -0.2351 -0.1239
 2857TIP3    H130206   1.512   0.499   1.676 -1.0107 -0.4926 -0.4044
 2857TIP3    H230207   1.427   0.622   1.699  0.7639  0.5943  0.5908
 2858TIP3   OH230208   1.480   5.944   0.445  0.2819  0.3264 -0.0138
 2858TIP3    H130209   1.450   6.029   0.412  0.6088  0.2454 -0.5189
 2858TIP3    H230210   1.557   5.965   0.498  1.8271  0.1430 -2.0430
 2859TIP3   OH230211   1.032   3.200   6.238  0.3208  0.2885 -0.0047
 2859TIP3    H130212   1.089   3.276   6.246 -2.3417  2.5197 -0.7412
 2859TIP3    H230213   1.010   3.196   6.145 -2.3347  0.8472  0.5346
 2860TIP3   OH230214   5.524   6.691   1.391 -0.3014  0.0934  0.4492
 2860TIP3    H130215   5.494   6.628   1.455 -1.4724  1.2174  1.0646
 2860TIP3    H230216   5.470   6.674   1.313 -0.2064 -0.0383  0.4116
 2861TIP3   OH230217   4.561   1.905   0.638 -0.8387 -0.1616  0.3879
 2861TIP3    H130218   4.654   1.919   0.655 -1.1398  1.6402  0.7624
 2861TIP3    H230219   4.559   1.833   0.574  0.9521  1.5092 -1.7051
 2862TIP3   OH230220   2.905   4.082   0.883  0.4796 -0.7619 -0.8858
 2862TIP3    H130221   2.923   4.155   0.941  2.2906 -1.9263  0.1345
 2862TIP3    H230222   2.942   4.109   0.799  0.7962 -0.3474 -0.6200
 2863TIP3   OH230223   4.076   5.006   0.853  0.0114 -0.6374 -0.3561
 2863TIP3    H130224   3.992   5.022   0.810 -0.5337 -0.2915  0.8062
 2863TIP3    H230225   4.134   5.072   0.816 -0.4918 -0.2206 -0.4203
 2864TIP3   OH230226   3.036   4.319   6.797 -0.1911  0.2472 -0.1835
 2864TIP3    H130227   2.951   4.297   6.836 -1.4106  1.5150 -1.9634
 2864TIP3    H230228   3.067   4.236   6.761 -0.2520 -0.4032  1.1848
 2865TIP3   OH230229   0.794   1.935   6.623 -0.0934 -0.7444  0.0609
 2865TIP3    H130230   0.777   1.945   6.529 -1.3494 -0.0293  0.3375
 2865TIP3    H230231   0.858   2.002   6.643 -2.2052  1.3452  0.2812
 2866TIP3   OH230232   4.985   0.677   7.905 -0.5733  0.2409 -0.3410
 2866TIP3    H130233   4.937   0.660   7.824 -0.1107  0.0096 -0.5732
 2866TIP3    H230234   5.077   0.662   7.881 -0.0387  3.2548 -0.6371
 2867TIP3   OH230235   2.203   1.092   0.502 -0.1744 -0.2343 -0.4166
 2867TIP3    H130236   2.240   1.120   0.419  0.5964  1.3620  0.4076
 2867TIP3    H230237   2.270   1.034   0.539  0.5806  0.9213  0.0998
 2868TIP3   OH230238   5.992   2.772   6.717  0.2877 -0.1634  0.1472
 2868TIP3    H130239   5.980   2.772   6.623 -0.9523 -0.4859  0.2839
 2868TIP3    H230240   6.058   2.839   6.734 -0.7832  1.1694 -0.7916
 2869TIP3   OH230241   1.986   6.325   0.992 -0.2097 -0.4849 -0.2055
 2869TIP3    H130242   2.033   6.389   0.938 -0.0499 -1.2643 -1.0247
 2869TIP3    H230243   2.042   6.312   1.068 -1.2756  1.9779  1.1160
 2870TIP3   OH230244   5.418   4.350   1.249  0.6784 -0.5963 -0.1761
 2870TIP3    H130245   5.335   4.325   1.290  1.2671 -0.3970  1.2010
 2870TIP3    H230246   5.449   4.424   1.302  2.8359 -2.1011  0.7926
 2871TIP3   OH230247   6.093   3.086   0.955  0.3677  0.0082 -0.0628
 2871TIP3    H130248   6.022   3.148   0.939  0.3172 -0.0518 -0.0706
 2871TIP3    H230249   6.051   3.000   0.951  0.5952 -0.0700 -0.9630
 2872TIP3   OH230250   5.189   0.485   1.730 -0.1752  0.1290  0.8270
 2872TIP3    H130251   5.251   0.506   1.800 -0.1710  2.0947  0.3051
 2872TIP3    H230252   5.161   0.571   1.697 -0.7903 -0.7386 -1.0297
 2873TIP3   OH230253   3.781   0.966   0.095 -0.2535  0.3465  0.6788
 2873TIP3    H130254   3.817   0.989   0.010 -2.2434 -0.8493 -0.5599
 2873TIP3    H230255   3.738   1.046   0.126 -0.9685  0.3194 -0.2308
 2874TIP3   OH230256   5.835   6.260   7.121  0.3884 -0.5844  0.0677
 2874TIP3    H130257   5.820   6.321   7.193 -0.4772  1.1229 -1.4865
 2874TIP3    H230258   5.905   6.300   7.070  0.4234 -1.3610 -0.5058
 2875TIP3   OH230259   1.013   2.106   6.606  0.2645  0.4537 -0.0523
 2875TIP3    H130260   1.077   2.170   6.637  0.4032  0.4959 -0.4270
 2875TIP3    H230261   1.064   2.026   6.594 -0.0733 -0.0078  1.3127
 2876TIP3   OH230262   2.107   6.220   7.342  0.2315  0.2630  0.2995
 2876TIP3    H130263   2.118   6.194   7.434 -0.2769  0.5565  0.4437
 2876TIP3    H230264   2.106   6.137   7.294 -3.2785 -0.2250  0.9367
 2877TIP3   OH230265   6.587   0.871   1.908 -0.2980 -0.2693 -0.6533
 2877TIP3    H130266   6.571   0.856   2.001 -0.4285 -3.4137 -1.0823
 2877TIP3    H230267   6.678   0.903   1.905 -0.6272  0.8772  0.5787
 2878TIP3   OH230268   1.650   2.758   0.818 -0.3193 -0.2853 -0.4647
 2878TIP3    H130269   1.592   2.743   0.743  0.6141  0.6280 -1.3993
 2878TIP3    H230270   1.735   2.723   0.790 -0.4536 -1.9454  1.0203
 2879TIP3   OH230271   3.109   0.388   6.646  0.1575 -0.6316 -0.0709
 2879TIP3    H130272   3.136   0.436   6.725  1.6743 -2.0944  0.3759
 2879TIP3    H230273   3.187   0.388   6.591 -0.0596 -1.8450 -0.4083
 2880TIP3   OH230274   0.351   6.678   1.250 -0.1555  0.0382 -0.1238
 2880TIP3    H130275   0.319   6.761   1.284 -1.1140 -0.3057 -0.1495
 2880TIP3    H230276   0.445   6.692   1.236 -0.4761  1.4372 -1.1070
 2881TIP3   OH230277   6.886   6.418   0.456  0.0423  0.3163 -0.9106
 2881TIP3    H130278   6.947   6.349   0.430  0.4467 -0.5224  1.9596
 2881TIP3    H230279   6.934   6.470   0.520 -2.0348 -0.1391  1.1453
 2882TIP3   OH230280   3.437   3.233   0.484  0.1678  0.2988 -0.2634
 2882TIP3    H130281   3.365   3.263   0.540 -1.5378  1.2753 -2.8136
 2882TIP3    H230282   3.513   3.284   0.514 -0.6959  0.8845  1.0470
 2883TIP3   OH230283   2.821   0.456   1.323 -0.2302  0.0424 -0.0570
 2883TIP3    H130284   2.903   0.505   1.327 -0.6606  0.7703 -0.1168
 2883TIP3    H230285   2.815   0.427   1.232 -0.7601  1.2410 -0.4135
 2884TIP3   OH230286   7.032   3.566   6.085 -0.0484 -0.2705 -0.2012
 2884TIP3    H130287   7.093   3.501   6.119  1.6497  0.2765 -2.0255
 2884TIP3    H230288   7.000   3.529   6.003 -0.4652  0.4244 -0.3645
 2885TIP3   OH230289   1.593   3.434   7.357  0.5770  0.1122 -0.4743
 2885TIP3    H130290   1.531   3.452   7.428  0.5067  2.0451 -0.9523
 2885TIP3    H230291   1.540   3.441   7.278  1.1893  0.8470 -0.8366
 2886TIP3   OH230292   1.310   2.671   7.033  0.2121  0.1796  0.4543
 2886TIP3    H130293   1.260   2.726   7.094  1.4941  0.8557  0.9309
 2886TIP3    H230294   1.320   2.588   7.079 -0.9124 -0.1613  0.1262
 2887TIP3   OH230295   3.641   3.665   7.524 -0.0044 -0.1461  0.1018
 2887TIP3    H130296   3.582   3.738   7.508  0.1444  0.0559  0.4652
 2887TIP3    H230297   3.598   3.590   7.483 -0.9378 -0.1775  1.1034
 2888TIP3   OH230298   4.876   1.711   8.176 -0.7469 -0.8868  0.2353
 2888TIP3    H130299   4.931   1.769   8.229 -0.2843  0.0085 -1.1509
 2888TIP3    H230300   4.800   1.692   8.231 -2.4124  3.4030 -0.1959
 2889TIP3   OH230301   1.909   4.235   7.892  0.0879  0.4355 -0.3807
 2889TIP3    H130302   1.877   4.150   7.925 -1.7523  1.4111  0.4898
 2889TIP3    H230303   1.926   4.286   7.971  1.4952  0.8016 -0.8941
 2890TIP3   OH230304   6.523   2.823   6.496  0.0422 -0.3306  0.6226
 2890TIP3    H130305   6.577   2.753   6.461  0.2519  0.7748 -1.3984
 2890TIP3    H230306   6.537   2.820   6.591  0.0225 -2.9878  0.6144
 2891TIP3   OH230307   1.663   4.787   0.996 -0.2106 -0.3494  0.1619
 2891TIP3    H130308   1.575   4.748   0.998 -0.4623  0.1784 -0.2161
 2891TIP3    H230309   1.700   4.758   0.912 -1.5267  2.5454 -1.5695
 2892TIP3   OH230310   5.400   4.843   6.847 -0.3839  0.1498 -0.2082
 2892TIP3    H130311   5.448   4.917   6.809  0.2169 -0.2839 -0.3124
 2892TIP3    H230312   5.428   4.842   6.939 -0.5086  0.1438 -0.1701
 2893TIP3   OH230313   1.101   0.915   1.352  0.0821  0.4120 -0.2921
 2893TIP3    H130314   1.169   0.894   1.416 -0.0161 -1.4827 -0.7417
 2893TIP3    H230315   1.069   1.002   1.378  0.0279 -0.2792  2.2425
 2894TIP3   OH230316   1.772   5.801   7.239 -0.3550  0.4583  0.0449
 2894TIP3    H130317   1.713   5.727   7.257  1.4018 -0.5496  2.1119
 2894TIP3    H230318   1.739   5.838   7.157 -2.6705 -1.2117  0.1060
 2895TIP3   OH230319   5.365   2.920   0.098 -0.5919 -0.0903 -0.8185
 2895TIP3    H130320   5.392   2.970   0.021  2.2559  0.4891  0.4407
 2895TIP3    H230321   5.277   2.953   0.118  0.3041  2.8695 -1.3240
 2896TIP3   OH230322   0.959   3.544   7.478  0.1393 -0.0421 -0.2312
 2896TIP3    H130323   0.920   3.607   7.417 -2.0574 -1.5075 -0.4076
 2896TIP3    H230324   0.957   3.589   7.562 -0.2643  0.5693 -0.5553
 2897TIP3   OH230325   4.321   1.000   7.614  0.3464 -0.3078  0.0204
 2897TIP3    H130326   4.279   1.083   7.591  0.0852 -0.5166 -0.2568
 2897TIP3    H230327   4.273   0.933   7.564  0.1376 -0.6982  0.7316
 2898TIP3   OH230328   1.563   3.234   8.185  0.2161  0.1724  0.5637
 2898TIP3    H130329   1.593   3.289   8.113  2.9305 -1.6986  0.0713
 2898TIP3    H230330   1.525   3.157   8.143 -0.9873  0.3867  1.2027
 2899TIP3   OH230331   0.436   2.591   8.071  0.2493 -0.0564 -0.0635
 2899TIP3    H130332   0.468   2.677   8.099  1.5929  0.0250 -1.6971
 2899TIP3    H230333   0.484   2.572   7.991 -1.2360 -1.6091 -0.6591
 2900TIP3   OH230334   5.318   0.350   0.014 -0.4453 -0.4293  0.2874
 2900TIP3    H130335   5.305   0.384  -0.074 -0.6827  0.2236  0.5712
 2900TIP3    H230336   5.235   0.364   0.059  0.0195  0.2973  0.9610
 2901TIP3   OH230337   0.410   1.383   1.793  0.0471  0.1375 -0.5982
 2901TIP3    H130338   0.488   1.385   1.849 -0.2705  0.9155 -0.1634
 2901TIP3    H230339   0.358   1.457   1.823 -1.5518 -1.2161  0.0972
 2902TIP3   OH230340   2.981   2.165   8.189  0.3742  0.3683 -0.0320
 2902TIP3    H130341   2.972   2.129   8.100 -1.4657  1.0985 -0.1834
 2902TIP3    H230342   2.896   2.203   8.208  0.3107 -0.8938  2.5788
 2903TIP3   OH230343   2.687   3.376   7.212 -0.1213 -0.4688  0.2791
 2903TIP3    H130344   2.669   3.285   7.187  1.7211 -0.6290 -0.6237
 2903TIP3    H230345   2.781   3.387   7.196 -0.2138  1.4677  0.8331
 2904TIP3   OH230346   6.047   1.609   7.591  0.2388 -0.0537 -0.3153
 2904TIP3    H130347   5.951   1.607   7.599 -0.1219 -0.2457 -3.6206
 2904TIP3    H230348   6.070   1.701   7.606 -0.4722  0.0615  0.1491
 2905TIP3   OH230349   3.986   5.287   0.752  0.3998 -0.1618 -0.1093
 2905TIP3    H130350   3.941   5.251   0.675  0.4745  0.9412 -0.6928
 2905TIP3    H230351   4.078   5.263   0.739  0.3269 -0.4621 -0.0755
 2906TIP3   OH230352   5.903   1.326   7.875 -0.3600  0.8343  0.2572
 2906TIP3    H130353   5.811   1.308   7.859 -0.2512 -0.9051  1.2478
 2906TIP3    H230354   5.946   1.308   7.791 -0.7089 -0.2345  0.2949
 2907TIP3   OH230355   0.223   0.139   1.428  0.4481 -0.1772  0.4986
 2907TIP3    H130356   0.312   0.164   1.454 -0.0941  0.9924  1.3462
 2907TIP3    H230357   0.209   0.185   1.345  0.6239 -0.3457  0.3744
 2908TIP3   OH230358   2.426   5.618   7.993  0.0994 -0.6687  0.0332
 2908TIP3    H130359   2.455   5.707   7.971  1.4445 -1.5901 -2.2313
 2908TIP3    H230360   2.506   5.566   7.995 -0.4298 -1.6154  3.0774
 2909TIP3   OH230361   5.761   2.781   5.732 -0.1900  0.4102 -0.0425
 2909TIP3    H130362   5.809   2.842   5.788  1.5670  0.2594 -1.3095
 2909TIP3    H230363   5.778   2.812   5.643 -1.0289 -0.6908 -0.6035
 2910TIP3   OH230364   0.896   4.176   1.138  0.2799 -0.0294 -0.1218
 2910TIP3    H130365   0.969   4.237   1.123  0.3898 -0.1339 -0.0177
 2910TIP3    H230366   0.854   4.209   1.217 -0.7205  0.9290 -1.0209
 2911TIP3   OH230367   4.676   4.347   7.307 -0.3812 -0.1186  0.1313
 2911TIP3    H130368   4.603   4.301   7.266 -0.6363 -0.2697  0.7588
 2911TIP3    H230369   4.739   4.279   7.328 -0.7521 -0.1833  1.0461
 2912TIP3   OH230370   4.204   3.920   6.906  0.5815 -0.5222 -0.4825
 2912TIP3    H130371   4.227   3.841   6.955 -1.2034 -0.7001  0.1455
 2912TIP3    H230372   4.128   3.956   6.951  1.7150  1.9663 -0.3539
 2913TIP3   OH230373   4.817   3.937   5.989 -0.6369 -0.4892 -0.4768
 2913TIP3    H130374   4.785   3.941   5.899 -0.8564  2.2362 -0.3566
 2913TIP3    H230375   4.879   4.009   5.995  0.3875 -1.4497  1.2222
 2914TIP3   OH230376   5.946   1.195   7.637  0.6223 -1.1995 -0.8951
 2914TIP3    H130377   5.865   1.167   7.595  0.6159 -1.2455 -0.8520
 2914TIP3    H230378   5.980   1.265   7.581 -2.0732  2.5567  1.6933
 2915TIP3   OH230379   1.338   2.906   0.046 -0.3188  0.5920 -0.1331
 2915TIP3    H130380   1.424   2.933   0.079 -0.1905  0.3449 -0.2594
 2915TIP3    H230381   1.323   2.820   0.086  0.5013 -0.3928 -1.8479
 2916TIP3   OH230382   5.701   2.155   6.533 -0.1993  0.2850  0.0815
 2916TIP3    H130383   5.653   2.112   6.463 -1.1010  0.3504  0.6377
 2916TIP3    H230384   5.781   2.187   6.492 -0.3219 -0.4055 -0.7205
 2917TIP3   OH230385   5.728   1.164   7.097 -0.9401  0.3506 -0.1456
 2917TIP3    H130386   5.819   1.173   7.069 -0.5157 -1.4475  0.4886
 2917TIP3    H230387   5.678   1.206   7.028  0.2192 -1.5594 -2.2956
 2918TIP3   OH230388   1.816   6.437   7.031 -0.0409  0.8115  0.3025
 2918TIP3    H130389   1.850   6.525   7.015  1.0396  0.2454 -0.6580
 2918TIP3    H230390   1.722   6.444   7.011  0.4314  1.2513 -2.0377
 2919TIP3   OH230391   0.543   0.928   6.405 -0.1292  0.1697  0.5144
 2919TIP3    H130392   0.455   0.891   6.406  0.2949 -0.9122  2.7959
 2919TIP3    H230393   0.538   1.006   6.461  0.1487  0.7043 -0.1830
 2920TIP3   OH230394   1.184   6.928   7.598 -0.2354  0.9801 -0.3356
 2920TIP3    H130395   1.256   6.899   7.541 -0.2568  0.4104 -0.0803
 2920TIP3    H230396   1.108   6.930   7.541 -0.2097  0.6387 -0.3852
 2921TIP3   OH230397   5.846   6.522   7.728 -0.2534  0.1086  0.2389
 2921TIP3    H130398   5.885   6.471   7.657 -1.5073  0.3003 -0.6370
 2921TIP3    H230399   5.919   6.548   7.783  0.4334 -2.5608  0.6838
 2922TIP3   OH230400   4.786   3.882   6.373  0.7954 -0.1313 -0.3324
 2922TIP3    H130401   4.801   3.948   6.306 -0.7529 -2.1493 -2.8699
 2922TIP3    H230402   4.704   3.908   6.414  1.0787  0.4096 -0.0922
 2923TIP3   OH230403   5.304   4.176   0.288  0.2158 -0.0500 -0.2193
 2923TIP3    H130404   5.244   4.107   0.258  0.8686 -1.6021  1.8053
 2923TIP3    H230405   5.386   4.157   0.242  0.0702  0.0894 -0.5400
 2924TIP3   OH230406   4.497   0.185   0.439  0.0474  0.1899  0.1908
 2924TIP3    H130407   4.472   0.261   0.385 -0.9028 -0.0960  0.2164
 2924TIP3    H230408   4.591   0.177   0.425  0.5073  2.3690  1.4499
 2925TIP3   OH230409   6.182   4.213   6.958 -0.3602  0.1045  0.3883
 2925TIP3    H130410   6.089   4.205   6.981 -0.6204  0.1707 -0.5842
 2925TIP3    H230411   6.181   4.248   6.869  0.5758 -1.4219 -0.2564
 2926TIP3   OH230412   4.637   1.557   0.267  0.0654 -0.0737 -0.1142
 2926TIP3    H130413   4.644   1.569   0.172  0.0857  0.1821 -0.0792
 2926TIP3    H230414   4.620   1.463   0.277 -1.9403  0.1910 -0.4898
 2927TIP3   OH230415   6.200   4.754   8.214  0.1576  0.4805 -0.7165
 2927TIP3    H130416   6.213   4.841   8.251  0.2474  0.6154 -1.0583
 2927TIP3    H230417   6.195   4.769   8.120  1.4395 -0.0255 -0.8876
 2928TIP3   OH230418   1.428   3.505   2.155  0.0285 -0.4387  0.1423
 2928TIP3    H130419   1.420   3.588   2.107  0.7573  0.8325  2.0949
 2928TIP3    H230420   1.455   3.442   2.089  0.4984  1.1096 -1.2218
 2929TIP3   OH230421   3.231   6.262   1.497 -0.6294  0.0442  0.2665
 2929TIP3    H130422   3.188   6.314   1.429 -0.0852 -0.9737 -0.8858
 2929TIP3    H230423   3.174   6.271   1.573 -2.3349 -0.3952 -0.9010
 2930TIP3   OH230424   5.955   5.349   7.401  0.2382  0.2656 -0.6586
 2930TIP3    H130425   6.032   5.309   7.442 -0.3571 -0.8305 -0.5580
 2930TIP3    H230426   5.928   5.286   7.334  0.5115  1.5042 -1.9810
 2931TIP3   OH230427   6.660   4.073   0.653 -0.7612  0.2082 -0.3395
 2931TIP3    H130428   6.725   4.005   0.672 -0.2283  1.0619  1.0629
 2931TIP3    H230429   6.711   4.146   0.617 -0.7549  1.2020  1.5434
 2932TIP3   OH230430   4.276   3.186   8.113  0.5412 -0.3946 -0.3782
 2932TIP3    H130431   4.270   3.257   8.050  0.9301 -0.3444 -0.3573
 2932TIP3    H230432   4.228   3.114   8.072 -0.0324 -0.0621 -0.3084
 2933TIP3   OH230433   4.426   2.435   0.567 -0.2143 -0.3559  0.9199
 2933TIP3    H130434   4.374   2.396   0.496  0.3424 -0.7451  0.7163
 2933TIP3    H230435   4.460   2.360   0.616  0.3158 -0.1171  0.9286
 2934TIP3   OH230436   1.523   0.968   1.216 -0.8970  0.4898  0.0047
 2934TIP3    H130437   1.599   0.932   1.262 -0.0005  1.5204 -0.6327
 2934TIP3    H230438   1.474   0.890   1.189 -1.1141 -0.1591  2.0820
 2935TIP3   OH230439   3.548   1.375   1.561  0.3778  0.7287 -0.1113
 2935TIP3    H130440   3.622   1.411   1.512 -0.2894  0.0003 -1.7206
 2935TIP3    H230441   3.587   1.344   1.643  1.5280  1.9669 -0.1384
 2936TIP3   OH230442   6.664   4.520   6.404 -1.0240 -0.2913  0.1838
 2936TIP3    H130443   6.738   4.462   6.388 -2.5731 -2.0327 -1.0185
 2936TIP3    H230444   6.683   4.598   6.353  0.6629 -0.0515  1.1028
 2937TIP3   OH230445   2.255   1.913   1.307 -0.1409  0.0709  0.0622
 2937TIP3    H130446   2.283   1.822   1.300 -3.0304 -0.8694 -0.7530
 2937TIP3    H230447   2.318   1.963   1.255  1.2807 -1.4943  0.2282
 2938TIP3   OH230448   5.415   3.776   0.323  0.4691 -0.0195 -0.3848
 2938TIP3    H130449   5.407   3.688   0.362 -1.8372  0.2638 -0.0508
 2938TIP3    H230450   5.358   3.772   0.245  1.2672  0.8488 -1.0299
 2939TIP3   OH230451   1.265   3.301   8.202 -0.2568 -0.5476 -0.5466
 2939TIP3    H130452   1.355   3.302   8.236 -0.6590 -0.6165  0.5584
 2939TIP3    H230453   1.212   3.273   8.276 -1.1565 -0.8794 -1.2991
 2940TIP3   OH230454   4.138   1.837   1.320 -0.0353  0.7178  0.4139
 2940TIP3    H130455   4.227   1.874   1.325  0.9573 -1.5679  1.1937
 2940TIP3    H230456   4.144   1.773   1.249  0.3365 -2.6169  3.1943
 2941TIP3   OH230457   4.068   6.409   7.196 -0.4247  0.4761  0.2315
 2941TIP3    H130458   4.115   6.327   7.212  1.4099  1.6335  1.0671
 2941TIP3    H230459   4.079   6.424   7.102 -0.7011 -0.1780  0.0868
 2942TIP3   OH230460   0.876   1.519   1.481 -0.0581  0.3949  0.3239
 2942TIP3    H130461   0.783   1.512   1.505 -0.2081  1.2729  0.0442
 2942TIP3    H230462   0.913   1.434   1.505 -0.8872  0.1053  0.6398
 2943TIP3   OH230463   1.612   1.913   1.673  0.1625 -0.6076  0.0276
 2943TIP3    H130464   1.637   1.867   1.754 -0.0100  0.2833  0.6029
 2943TIP3    H230465   1.682   1.978   1.661  0.2525 -0.8211 -0.6151
 2944TIP3   OH230466   0.183   1.766   1.795 -0.2934 -0.2901 -0.3260
 2944TIP3    H130467   0.226   1.712   1.862 -0.9481 -0.4246 -0.0045
 2944TIP3    H230468   0.099   1.788   1.833 -1.3188 -1.6257 -1.6976
 2945TIP3   OH230469   5.373   1.828   6.929  0.0010  0.7349  0.1871
 2945TIP3    H130470   5.281   1.813   6.909 -0.4477  0.8128  1.9979
 2945TIP3    H230471   5.398   1.752   6.983  1.5454 -0.2513 -1.7912
 2946TIP3   OH230472   0.648   5.574   6.364 -0.3478 -0.3957 -0.4913
 2946TIP3    H130473   0.717   5.593   6.428 -0.5895  0.0449 -0.3507
 2946TIP3    H230474   0.679   5.615   6.283  0.3705 -1.7039 -0.9104
 2947TIP3   OH230475   2.906   5.260   0.697  0.0787  0.7516  0.9392
 2947TIP3    H130476   2.878   5.179   0.739  1.2023 -0.9618 -1.3803
 2947TIP3    H230477   2.887   5.246   0.604  0.3226  3.1603  0.4733
 2948TIP3   OH230478   0.036   3.560   0.004 -0.2481 -0.0870  0.0906
 2948TIP3    H130479   0.015   3.589  -0.085 -0.1568 -0.6813 -0.1341
 2948TIP3    H230480  -0.048   3.531   0.040 -0.5629  1.5728  0.7594
 2949TIP3   OH230481   3.092   1.555   6.600 -0.3088  0.2195  0.2344
 2949TIP3    H130482   3.133   1.642   6.594  0.4019 -0.1351 -0.1677
 2949TIP3    H230483   3.008   1.565   6.555  0.8284  0.0885 -2.0278
 2950TIP3   OH230484   0.546   5.922   0.458 -0.5483 -0.2181  0.3647
 2950TIP3    H130485   0.568   5.891   0.371  0.8370 -2.1096  1.3284
 2950TIP3    H230486   0.490   5.853   0.495 -0.9952  0.4857  1.0502
 2951TIP3   OH230487   5.422   3.440   6.323  0.1776  0.5546  0.5477
 2951TIP3    H130488   5.485   3.428   6.394  1.8234 -0.1061 -0.9539
 2951TIP3    H230489   5.338   3.412   6.360  1.0911 -0.3194  2.0329
 2952TIP3   OH230490   1.024   7.046   8.183 -0.6033 -0.1461 -0.1708
 2952TIP3    H130491   1.111   7.027   8.148 -0.9789  1.3246 -2.0339
 2952TIP3    H230492   1.040   7.065   8.276  0.6403 -2.5167  0.1976
 2953TIP3   OH230493   5.006   5.877   7.692  0.4514  0.0395  0.3361
 2953TIP3    H130494   5.086   5.916   7.658 -0.2278  1.8732  0.7678
 2953TIP3    H230495   4.948   5.869   7.616  0.1229  1.1091  0.4631
 2954TIP3   OH230496   4.827   1.539   7.966 -0.2486 -0.1842  0.9019
 2954TIP3    H130497   4.735   1.512   7.973 -0.9832  1.5369 -0.9278
 2954TIP3    H230498   4.836   1.612   8.027 -1.1525  1.9032 -1.2877
 2955TIP3   OH230499   1.825   2.228   0.698  0.3132  0.3877 -0.2036
 2955TIP3    H130500   1.804   2.313   0.660 -0.1507  0.1880 -0.3986
 2955TIP3    H230501   1.789   2.165   0.636  0.2346  0.0523  0.1802
 2956TIP3   OH230502   2.642   6.704   7.406  0.4445 -0.3006  0.2469
 2956TIP3    H130503   2.706   6.650   7.453  0.0902 -0.3880  0.6391
 2956TIP3    H230504   2.560   6.687   7.452  0.4186  0.9853  0.7175
 2957TIP3   OH230505   0.009   5.696   7.652  0.6337 -0.6309  0.1339
 2957TIP3    H130506  -0.063   5.696   7.590 -0.1797 -0.5714  1.0562
 2957TIP3    H230507  -0.023   5.748   7.726  1.8135 -0.1638  0.3406
 2958TIP3   OH230508   1.607   2.929   0.126  0.0715 -0.0882 -0.2947
 2958TIP3    H130509   1.685   2.985   0.131  1.1000 -1.5604  1.3017
 2958TIP3    H230510   1.615   2.870   0.202 -2.3568 -0.6087 -0.3713
 2959TIP3   OH230511   1.837   1.039   6.323 -0.2753  0.2467 -0.3981
 2959TIP3    H130512   1.837   1.117   6.379  0.4511 -0.8370  1.2061
 2959TIP3    H230513   1.929   1.026   6.300  0.0131 -1.5048  1.4553
 2960TIP3   OH230514   2.812   0.205   7.038  0.0950 -0.3972  0.1372
 2960TIP3    H130515   2.804   0.110   7.036  2.6881 -0.6762 -0.0347
 2960TIP3    H230516   2.875   0.222   7.109  2.2838  0.8785 -1.9465
 2961TIP3   OH230517   3.596   2.637   7.302 -0.1433 -0.2629 -0.1844
 2961TIP3    H130518   3.535   2.710   7.288 -1.7593 -1.4897  0.1549
 2961TIP3    H230519   3.560   2.566   7.250  0.9357 -1.0871  0.1552
 2962TIP3   OH230520   4.977   3.130   1.169 -0.1533 -0.1302  0.4136
 2962TIP3    H130521   5.037   3.174   1.230 -0.6852 -0.0082  0.8569
 2962TIP3    H230522   4.951   3.050   1.215  0.1679 -0.5039 -0.0484
 2963TIP3   OH230523   3.129   6.094   6.695  0.2815  0.0193  0.8861
 2963TIP3    H130524   3.057   6.135   6.648  0.2378  0.0097  0.9435
 2963TIP3    H230525   3.208   6.131   6.656  0.3695 -2.1447 -1.2476
 2964TIP3   OH230526   6.345   1.186   1.203 -0.1168 -0.0809 -0.1557
 2964TIP3    H130527   6.253   1.159   1.205 -1.1119  2.6996 -2.3529
 2964TIP3    H230528   6.374   1.167   1.114  0.8875  0.7294 -0.0220
 2965TIP3   OH230529   5.834   1.970   7.358 -0.3245  0.0392  0.1728
 2965TIP3    H130530   5.817   1.899   7.296 -1.1989  2.1174 -2.1695
 2965TIP3    H230531   5.758   1.969   7.417  0.1669 -1.5471  0.8015
 2966TIP3   OH230532   2.306   3.278   7.860 -0.0715  0.3943 -0.1186
 2966TIP3    H130533   2.364   3.353   7.869  0.5404 -0.0703 -0.1605
 2966TIP3    H230534   2.307   3.258   7.766  2.5807 -1.8447  0.2708
 2967TIP3   OH230535   6.362   6.821   7.993  0.3130 -0.0947  0.7393
 2967TIP3    H130536   6.297   6.889   7.980  1.2375  0.8747  1.0647
 2967TIP3    H230537   6.333   6.776   8.073 -1.5604 -1.6312 -0.6938
 2968TIP3   OH230538   0.739   6.216   8.101 -0.2744 -0.1396  0.2130
 2968TIP3    H130539   0.831   6.240   8.112 -0.5820  0.6732  1.1198
 2968TIP3    H230540   0.693   6.299   8.096 -1.0812 -0.5359  0.8124
 2969TIP3   OH230541   4.832   4.756   7.272 -0.0258  0.1039  0.0486
 2969TIP3    H130542   4.748   4.721   7.301  0.2702  0.0642  0.8843
 2969TIP3    H230543   4.850   4.710   7.190 -1.0789  0.5196 -0.4440
 2970TIP3   OH230544   7.025   6.999   6.213 -0.0757  0.1497  0.2032
 2970TIP3    H130545   7.014   7.000   6.308  1.8835 -0.0712  0.4764
 2970TIP3    H230546   6.998   6.912   6.186 -0.4557  0.1488  0.5773
 2971TIP3   OH230547   0.041   2.966   7.310 -0.4052  0.0162  0.2121
 2971TIP3    H130548   0.001   2.934   7.391  0.2046  1.9398  1.3459
 2971TIP3    H230549  -0.021   3.031   7.276 -0.3922 -0.3678 -0.5728
 2972TIP3   OH230550   0.361   4.633   0.758  0.1841  0.2427  0.1985
 2972TIP3    H130551   0.410   4.556   0.728  0.7898  1.1934 -1.3952
 2972TIP3    H230552   0.286   4.597   0.805  1.1194 -1.2880  0.6038
 2973TIP3   OH230553   6.816   2.420   0.677  0.3812 -0.7814 -0.3105
 2973TIP3    H130554   6.823   2.515   0.671  1.9776 -0.8548  0.0882
 2973TIP3    H230555   6.809   2.402   0.771 -0.7830 -1.0290 -0.4274
 2974TIP3   OH230556   1.096   1.112   2.048  0.6896 -0.0375 -0.5930
 2974TIP3    H130557   1.029   1.107   1.980  0.1787  1.6826 -0.2689
 2974TIP3    H230558   1.063   1.055   2.118  1.4790 -2.2509 -1.9337
 2975TIP3   OH230559   2.580   6.217   7.668  0.7099 -0.1628  0.3927
 2975TIP3    H130560   2.503   6.265   7.699 -0.9475 -0.0990 -3.3746
 2975TIP3    H230561   2.551   6.126   7.662  1.7594 -0.5737  1.2377
 2976TIP3   OH230562   5.713   1.046   1.595 -0.2872 -1.2230  0.1281
 2976TIP3    H130563   5.692   1.126   1.643 -1.0111 -1.1680 -0.2784
 2976TIP3    H230564   5.645   0.984   1.619 -1.3041 -0.8552 -1.6425
 2977TIP3   OH230565   3.951   0.945   2.217 -0.2193 -0.0953 -0.6139
 2977TIP3    H130566   4.022   0.923   2.156 -0.5851  0.6921 -1.3485
 2977TIP3    H230567   3.909   0.861   2.236  1.3227 -0.6796  0.3863
 2978TIP3   OH230568   1.904   2.207   6.721  0.3636 -0.3288  0.4076
 2978TIP3    H130569   1.954   2.226   6.641  1.2513 -2.6830  0.3287
 2978TIP3    H230570   1.812   2.214   6.693  0.6582  0.0543 -0.5116
 2979TIP3   OH230571   2.962   6.158   1.313 -0.5235 -0.1019  0.0461
 2979TIP3    H130572   2.905   6.083   1.333 -0.4967 -0.0588  0.2817
 2979TIP3    H230573   3.015   6.129   1.238  0.2077 -0.6958  0.7791
 2980TIP3   OH230574   4.891   6.659   1.169 -0.3929 -0.2528 -0.6150
 2980TIP3    H130575   4.875   6.751   1.190 -0.6218 -0.5056  0.3607
 2980TIP3    H230576   4.803   6.620   1.166 -0.2711 -0.5268 -0.6087
 2981TIP3   OH230577   3.623   0.346   6.397 -0.2308  0.0003  0.5335
 2981TIP3    H130578   3.606   0.280   6.329  0.6024 -1.1627  1.4388
 2981TIP3    H230579   3.675   0.301   6.463 -0.5187  1.2843  1.6800
 2982TIP3   OH230580   1.005   5.128   1.418 -0.0897  0.3034  0.3039
 2982TIP3    H130581   1.057   5.131   1.498 -0.4164 -1.9727  0.6431
 2982TIP3    H230582   0.950   5.050   1.427 -0.6058  0.3538 -1.8559
 2983TIP3   OH230583   0.242   5.625   5.576 -0.2691 -0.1878  0.2517
 2983TIP3    H130584   0.334   5.651   5.583 -0.0014 -1.4614  2.0991
 2983TIP3    H230585   0.203   5.653   5.659 -0.2661 -4.1566  1.8158
 2984TIP3   OH230586   6.732   2.124   0.822 -0.2969 -0.0312 -0.2156
 2984TIP3    H130587   6.762   2.199   0.874  1.2425  1.8544 -3.5345
 2984TIP3    H230588   6.667   2.160   0.762  1.7741 -0.7737 -3.1326
 2985TIP3   OH230589   6.678   6.172   7.003 -0.0977 -0.1896 -0.6338
 2985TIP3    H130590   6.763   6.201   6.970  0.9759 -1.1047  1.1461
 2985TIP3    H230591   6.680   6.077   6.995 -1.3408 -0.1712 -1.4023
 2986TIP3   OH230592   5.470   3.306   1.329  0.2220  0.2826 -0.5164
 2986TIP3    H130593   5.548   3.334   1.378 -0.2183 -1.1996  1.1243
 2986TIP3    H230594   5.397   3.328   1.387 -0.5673  1.1278 -1.7963
 2987TIP3   OH230595   3.977   4.074   1.122 -0.4957  0.3312 -0.1684
 2987TIP3    H130596   3.997   4.166   1.105  0.8556  0.1202  0.1624
 2987TIP3    H230597   3.884   4.066   1.104 -1.2283  2.3243  2.2378
 2988TIP3   OH230598   6.214   1.975   0.393 -0.0618  0.2997 -0.1201
 2988TIP3    H130599   6.250   1.925   0.320 -0.0062 -0.2713  0.2975
 2988TIP3    H230600   6.153   1.915   0.436 -2.1841  1.5011 -1.3039
 2989TIP3   OH230601   5.966   5.489   6.731 -0.5110 -0.0534  0.4618
 2989TIP3    H130602   5.917   5.417   6.693  1.1482 -2.4975  2.6367
 2989TIP3    H230603   5.907   5.526   6.797 -0.8498 -0.4076  0.3585
 2990TIP3   OH230604   3.716   2.226   6.361  0.3595  0.0929  0.0536
 2990TIP3    H130605   3.660   2.231   6.284 -0.5452 -0.9226  0.6306
 2990TIP3    H230606   3.798   2.267   6.333 -0.3460  0.7823 -1.0805
 2991TIP3   OH230607   0.181   4.062   5.961  0.2662 -0.4719 -0.1804
 2991TIP3    H130608   0.139   3.977   5.974 -1.1876  0.2100 -0.1751
 2991TIP3    H230609   0.114   4.115   5.917  1.6855  0.2220 -1.5958
 2992TIP3   OH230610   2.989   2.520   8.147 -0.4821  0.1563  0.5958
 2992TIP3    H130611   2.929   2.568   8.204  0.0981 -0.6511  1.9420
 2992TIP3    H230612   2.933   2.478   8.082 -1.2884  0.1334  1.2906
 2993TIP3   OH230613   5.635   4.910   2.047 -0.5388  0.2816 -0.0107
 2993TIP3    H130614   5.551   4.954   2.032 -0.5542  0.4285  0.5159
 2993TIP3    H230615   5.697   4.981   2.061 -0.2387  0.1912 -0.7908
 2994TIP3   OH230616   5.056   1.401   0.378 -0.2637  0.0824  0.0594
 2994TIP3    H130617   4.986   1.443   0.427  0.1191  1.2082 -0.3203
 2994TIP3    H230618   5.126   1.389   0.442 -0.4378 -0.1133  0.2108
 2995TIP3   OH230619   0.057   6.138   1.698 -0.2607 -0.4687 -0.6892
 2995TIP3    H130620  -0.009   6.183   1.645  0.4997 -1.1430 -2.2703
 2995TIP3    H230621   0.137   6.143   1.646  0.7895 -0.3010  0.8537
 2996TIP3   OH230622   6.703   6.618   1.901 -0.2415 -0.6452  0.8485
 2996TIP3    H130623   6.709   6.573   1.817  0.3433 -0.1659  0.6255
 2996TIP3    H230624   6.749   6.701   1.887 -1.8812  0.3368  1.0283
 2997TIP3   OH230625   4.887   3.899   7.025  0.0451  0.3485 -0.3558
 2997TIP3    H130626   4.969   3.927   6.985 -0.0365 -1.4918 -1.9777
 2997TIP3    H230627   4.889   3.803   7.020 -1.1512  0.1303  1.7897
 2998TIP3   OH230628   1.828   0.823   1.197  0.0857  0.1398  0.1188
 2998TIP3    H130629   1.892   0.762   1.161  0.8120  1.6559 -1.3052
 2998TIP3    H230630   1.783   0.774   1.265 -0.2420 -2.3831 -1.7744
 2999TIP3   OH230631   2.087   2.454   0.468 -0.2488  0.5224  0.7344
 2999TIP3    H130632   2.021   2.385   0.476 -1.3177  1.2992 -0.8728
 2999TIP3    H230633   2.042   2.526   0.425  1.6067  1.1282 -0.3415
 3000TIP3   OH230634   0.786   2.489   7.623 -0.2640  0.0232 -0.0748
 3000TIP3    H130635   0.801   2.529   7.538 -0.5969  0.6909  0.1758
 3000TIP3    H230636   0.873   2.460   7.651 -0.1795 -0.3626 -0.7089
 3001TIP3   OH230637   6.993   1.392   1.047  0.0185  0.1448  0.2544
 3001TIP3    H130638   6.937   1.464   1.077  1.8515  0.9431  2.0163
 3001TIP3    H230639   6.992   1.400   0.951 -2.7134  0.1747  0.2009
 3002TIP3   OH230640   6.346   2.051   6.965 -0.6615 -0.0080 -0.1472
 3002TIP3    H130641   6.274   1.987   6.971 -0.8213  0.1789 -0.0627
 3002TIP3    H230642   6.420   2.000   6.932 -1.4665  0.3063 -2.6248
 3003TIP3   OH230643   2.127   0.490   2.058  0.1656 -0.5570  0.4622
 3003TIP3    H130644   2.137   0.486   2.154 -3.1391 -0.5274  0.9078
 3003TIP3    H230645   2.100   0.401   2.033 -0.2436 -0.2382 -0.2540
 3004TIP3   OH230646   2.350   1.750   6.515  0.3606  0.3043  0.0602
 3004TIP3    H130647   2.261   1.780   6.531  0.0658 -0.4847 -0.0256
 3004TIP3    H230648   2.344   1.654   6.519  0.5373  0.0585 -3.0928
 3005TIP3   OH230649   4.356   1.359   0.910 -0.0100  0.1769 -0.1960
 3005TIP3    H130650   4.267   1.367   0.876 -0.1273  0.1782  0.1015
 3005TIP3    H230651   4.390   1.448   0.912  0.5900  0.0142 -1.8333
 3006TIP3   OH230652   3.066   4.916   1.230  0.8117 -0.1692  0.3646
 3006TIP3    H130653   3.078   4.904   1.136 -1.2287 -0.8482  0.1194
 3006TIP3    H230654   3.054   5.010   1.241 -0.2774 -0.2105 -0.2830
 3007TIP3   OH230655   0.585   6.500   8.139  0.1751  0.0865 -0.1608
 3007TIP3    H130656   0.638   6.574   8.110  1.2363 -0.4823  0.3042
 3007TIP3    H230657   0.552   6.526   8.225  0.2904  0.1384 -0.1326
 3008TIP3   OH230658   2.404   5.637   6.380 -0.1498 -0.1852  0.4244
 3008TIP3    H130659   2.445   5.659   6.297  0.6597  1.4355  1.2044
 3008TIP3    H230660   2.340   5.570   6.358  1.0125 -0.7977 -1.2703
 3009TIP3   OH230661   1.020   1.958   0.530  0.2307 -0.1711  0.1250
 3009TIP3    H130662   1.084   2.018   0.491 -0.5526  0.6749  0.1048
 3009TIP3    H230663   0.979   1.915   0.455  0.8531 -0.7934  0.1429
 3010TIP3   OH230664   2.840   1.144   1.495  0.3075 -0.0051 -0.1326
 3010TIP3    H130665   2.883   1.210   1.440 -1.9400  1.8966  0.2165
 3010TIP3    H230666   2.862   1.169   1.585  2.8429 -2.2933 -0.0102
 3011TIP3   OH230667   2.330   1.978   7.649  0.0157  0.4758  0.1600
 3011TIP3    H130668   2.318   2.069   7.623  0.7601  0.7422  0.7208
 3011TIP3    H230669   2.373   1.983   7.734 -0.6904 -0.3984  0.5800
 3012TIP3   OH230670   1.008   1.499   0.532 -0.3395 -0.4128  0.5680
 3012TIP3    H130671   0.928   1.471   0.487 -0.0092 -2.3821  1.1119
 3012TIP3    H230672   0.990   1.485   0.625  0.6399 -0.9974  0.6947
 3013TIP3   OH230673   5.259   5.682   0.703 -0.0613  0.4994 -0.4720
 3013TIP3    H130674   5.329   5.638   0.656 -0.3286  0.5794 -0.9539
 3013TIP3    H230675   5.205   5.721   0.634  1.0153  2.9345 -0.0221
 3014TIP3   OH230676   2.797   3.909   0.615 -0.5928  0.5567  0.1862
 3014TIP3    H130677   2.828   3.857   0.689  0.5111  1.4954  0.4039
 3014TIP3    H230678   2.762   3.844   0.553 -0.1957 -0.3564  0.8919
 3015TIP3   OH230679   4.257   5.666   1.270  0.0521  0.2650  0.6905
 3015TIP3    H130680   4.174   5.691   1.311  0.8629  1.5388  1.6409
 3015TIP3    H230681   4.262   5.718   1.190  0.1932  0.6110  0.9246
 3016TIP3   OH230682   1.802   4.197   7.522 -0.1974 -0.4686 -0.4429
 3016TIP3    H130683   1.746   4.222   7.449  0.5586 -0.9077 -1.1939
 3016TIP3    H230684   1.831   4.279   7.561 -2.2540 -0.2232  0.6846
 3017TIP3   OH230685   5.480   3.248   0.880  0.3272  0.0872  0.8119
 3017TIP3    H130686   5.500   3.224   0.790  1.2409 -0.1781  1.0788
 3017TIP3    H230687   5.417   3.182   0.910  3.6584 -2.8670  1.9222
 3018TIP3   OH230688   3.606   6.889   6.523 -0.1302 -0.3959 -0.1309
 3018TIP3    H130689   3.607   6.794   6.511  0.2134 -0.7035  1.8662
 3018TIP3    H230690   3.664   6.923   6.455  0.2551 -1.6760 -0.4691
 3019TIP3   OH230691   5.583   6.024   8.094 -1.0493  0.2775  0.1030
 3019TIP3    H130692   5.669   5.987   8.072 -1.0878 -0.1586  0.6673
 3019TIP3    H230693   5.603   6.099   8.151 -1.0402  0.2359  0.1539
 3020TIP3   OH230694   0.936   2.529   1.292 -0.0762  0.4082  0.1326
 3020TIP3    H130695   0.916   2.478   1.371  0.8274  1.5149  1.1117
 3020TIP3    H230696   1.020   2.571   1.311 -1.0071  2.6773 -0.4092
 3021TIP3   OH230697   4.829   6.578   7.773  0.6470  1.0507  0.0863
 3021TIP3    H130698   4.821   6.646   7.705 -0.3750 -1.4023 -2.4459
 3021TIP3    H230699   4.915   6.538   7.757 -0.5558 -1.1205 -1.5155
 3022TIP3   OH230700   3.962   2.159   0.922  0.6180 -0.7736  0.5472
 3022TIP3    H130701   3.921   2.211   0.991  1.4568  1.0903 -0.2939
 3022TIP3    H230702   4.054   2.155   0.946  0.8791 -0.3028 -0.3312
 3023TIP3   OH230703   5.509   0.903   7.488  0.0099 -0.1796  0.1052
 3023TIP3    H130704   5.510   0.874   7.579  1.2686 -1.0600 -0.1583
 3023TIP3    H230705   5.599   0.928   7.470 -0.7312  2.6119 -0.1414
 3024TIP3   OH230706   1.444   1.708   1.096  0.2923  0.2403  0.0082
 3024TIP3    H130707   1.431   1.775   1.163 -0.4865  0.4394 -0.3292
 3024TIP3    H230708   1.529   1.728   1.058  1.1053 -0.3517  1.4616
 3025TIP3   OH230709   1.258   4.618   7.463  0.0488 -0.0171 -0.1509
 3025TIP3    H130710   1.263   4.598   7.557 -0.3881 -2.2775 -0.5620
 3025TIP3    H230711   1.194   4.689   7.458  0.5502  0.5864  1.3031
 3026TIP3   OH230712   3.286   3.835   6.875 -0.7737  0.0571  0.5375
 3026TIP3    H130713   3.296   3.929   6.864  2.0121 -0.2217 -0.1748
 3026TIP3    H230714   3.213   3.811   6.818  0.5168  1.4126 -1.8550
 3027TIP3   OH230715   4.408   4.115   6.981 -0.0646 -0.0050 -0.1567
 3027TIP3    H130716   4.412   4.176   6.908 -2.7638 -0.7506 -1.0438
 3027TIP3    H230717   4.332   4.060   6.963  1.3532 -2.6898  1.3603
 3028TIP3   OH230718   4.030   7.037   0.861 -0.2681 -0.9935  0.4939
 3028TIP3    H130719   4.098   6.981   0.899 -0.1332 -0.8072  0.5247
 3028TIP3    H230720   4.073   7.082   0.789  0.2545  0.7993  1.8702
 3029TIP3   OH230721   0.202   6.783   1.632 -0.3853 -0.0996  0.0075
 3029TIP3    H130722   0.140   6.848   1.598  1.3533  0.7715 -1.7062
 3029TIP3    H230723   0.205   6.715   1.565 -0.5507 -0.8859  0.7722
 3030TIP3   OH230724   3.537   2.032   1.253 -0.1249  0.0509 -0.0590
 3030TIP3    H130725   3.502   1.942   1.252 -2.3532  0.8158  1.6614
 3030TIP3    H230726   3.572   2.043   1.342  0.8247  0.6654 -0.4947
 3031TIP3   OH230727   6.597   4.291   6.944 -0.2942  0.0980  0.5104
 3031TIP3    H130728   6.588   4.215   6.887 -2.6584 -0.6674  1.7503
 3031TIP3    H230729   6.656   4.350   6.897  0.3660 -1.8203 -1.2050
 3032TIP3   OH230730   6.997   6.133   7.888 -0.6006  0.2360 -0.3763
 3032TIP3    H130731   6.940   6.165   7.958 -0.2289  2.2074 -0.8990
 3032TIP3    H230732   7.000   6.205   7.825  0.1607 -0.9558 -1.7734
 3033TIP3   OH230733   3.563   2.112   8.118 -0.9041 -0.2581  0.8141
 3033TIP3    H130734   3.597   2.077   8.035 -1.0789 -1.3454  1.1801
 3033TIP3    H230735   3.475   2.144   8.097 -0.4041  0.8096  0.2805
 3034TIP3   OH230736   4.656   5.354   1.206 -0.1037  0.0938 -0.0617
 3034TIP3    H130737   4.608   5.291   1.152 -2.2682  1.5644  0.0344
 3034TIP3    H230738   4.593   5.425   1.223  1.5352  1.2411  1.6702
 3035TIP3   OH230739   6.321   1.900   2.233  0.6353 -0.4779 -0.6588
 3035TIP3    H130740   6.310   1.916   2.327  0.4117 -0.2982 -0.7149
 3035TIP3    H230741   6.247   1.844   2.209  1.3705 -1.5664 -0.4802
 3036TIP3   OH230742   5.501   0.106   1.087 -0.6566  0.4384 -0.2886
 3036TIP3    H130743   5.429   0.143   1.138 -0.5019 -0.2031  0.4285
 3036TIP3    H230744   5.563   0.075   1.154 -0.5954 -0.7111 -0.8631
 3037TIP3   OH230745   0.373   4.731   7.542 -0.5273 -0.3096 -0.0117
 3037TIP3    H130746   0.313   4.656   7.544  0.4282 -1.1993 -2.1246
 3037TIP3    H230747   0.316   4.806   7.558 -1.7168 -1.3559  0.9371
 3038TIP3   OH230748   4.360   2.465   5.947 -0.1531  0.0782 -0.1860
 3038TIP3    H130749   4.283   2.439   5.998  0.4567 -0.2037  0.6088
 3038TIP3    H230750   4.395   2.383   5.912  1.6542 -0.2317  2.1515
 3039TIP3   OH230751   5.358   1.077   6.526 -0.2190  0.3585  0.0388
 3039TIP3    H130752   5.393   1.004   6.475 -1.8146 -0.8544  0.6218
 3039TIP3    H230753   5.423   1.090   6.595 -0.9686 -2.1182  1.3334
 3040TIP3   OH230754   1.791   0.106   1.228 -0.6710 -0.1462 -0.3259
 3040TIP3    H130755   1.742   0.029   1.199 -0.6856 -0.6733  1.0267
 3040TIP3    H230756   1.880   0.074   1.240 -0.6589  0.0708  0.1528
 3041TIP3   OH230757   5.934   4.938   6.984  0.9562  0.1304 -0.4047
 3041TIP3    H130758   5.966   5.023   6.953 -1.8257  0.9726 -1.2418
 3041TIP3    H230759   5.925   4.948   7.079  0.0465  1.0059 -0.5771
 3042TIP3   OH230760   4.626   3.913   7.300  0.1609 -0.5579  0.7621
 3042TIP3    H130761   4.656   3.961   7.223 -1.5938 -1.0215 -0.2549
 3042TIP3    H230762   4.693   3.931   7.366  1.4696  0.2317 -0.7067
 3043TIP3   OH230763   4.344   2.660   7.160  0.1949 -0.3516  0.2748
 3043TIP3    H130764   4.386   2.626   7.081 -0.8671 -0.4060 -0.2929
 3043TIP3    H230765   4.263   2.609   7.168  0.6963 -0.9457  1.9079
 3044TIP3   OH230766   3.626   5.877   7.316  0.0956 -0.4175 -0.2545
 3044TIP3    H130767   3.698   5.837   7.366 -0.1266  0.5350  0.8772
 3044TIP3    H230768   3.548   5.858   7.367 -0.2603 -0.1645 -0.7016
 3045TIP3   OH230769   5.085   1.885   0.601 -0.1584  0.1869  0.3943
 3045TIP3    H130770   5.104   1.922   0.514  0.4097  2.5672  1.4537
 3045TIP3    H230771   5.137   1.805   0.605  0.5011  0.5015 -1.1400
 3046TIP3   OH230772   5.519   6.878   7.962  0.5253 -0.3944 -0.0514
 3046TIP3    H130773   5.424   6.874   7.966  0.5546 -2.5741 -0.2519
 3046TIP3    H230774   5.540   6.871   7.869  0.8889  0.6007 -0.0543
 3047TIP3   OH230775   0.101   4.525   7.976 -0.1829 -0.2195  0.1780
 3047TIP3    H130776   0.013   4.506   8.006 -0.5101 -0.6722 -0.9900
 3047TIP3    H230777   0.152   4.539   8.055 -0.7435 -2.4193  0.9953
 3048TIP3   OH230778   4.180   2.908   1.594 -0.2196  0.1140  0.2041
 3048TIP3    H130779   4.085   2.923   1.588 -0.2753  0.1093  0.8991
 3048TIP3    H230780   4.201   2.931   1.685  0.3795 -0.2379  0.1560
 3049TIP3   OH230781   2.149   3.141   6.885  0.0401  0.4712  0.0698
 3049TIP3    H130782   2.121   3.199   6.815 -2.3046 -0.5973  0.0190
 3049TIP3    H230783   2.135   3.191   6.965 -0.9158  0.3860 -0.0341
 3050TIP3   OH230784   7.024   4.121   6.194  0.0266 -0.3391 -0.5531
 3050TIP3    H130785   7.105   4.125   6.142 -0.5692 -0.6962 -1.5402
 3050TIP3    H230786   6.954   4.131   6.129 -0.7284 -0.2092  0.2695
 3051TIP3   OH230787   0.977   6.983   1.517 -0.0577  0.0533  0.0595
 3051TIP3    H130788   1.035   7.043   1.470  2.3102  0.6917  3.3972
 3051TIP3    H230789   1.026   6.901   1.520  0.1308  0.2022  1.8115
 3052TIP3   OH230790   2.800   4.132   8.098 -0.5615  0.1867  0.4267
 3052TIP3    H130791   2.821   4.041   8.078  0.2445  0.2459  0.9771
 3052TIP3    H230792   2.749   4.161   8.022 -1.8862 -1.0617  0.7793
 3053TIP3   OH230793   3.536   3.308   1.507 -0.0165 -0.3486  0.3790
 3053TIP3    H130794   3.516   3.390   1.551 -0.1484 -0.3619  0.3449
 3053TIP3    H230795   3.630   3.310   1.494 -0.1640  0.3450 -0.7016
 3054TIP3   OH230796   3.306   0.061   7.868 -0.1105  0.0896 -0.2510
 3054TIP3    H130797   3.247  -0.008   7.838 -1.2599  1.4531 -1.2801
 3054TIP3    H230798   3.378   0.061   7.804 -0.5839  0.4505 -0.7862
 3055TIP3   OH230799   0.194   4.143   1.308 -0.5633  0.1418 -0.8856
 3055TIP3    H130800   0.188   4.153   1.403  1.3110  0.1591 -0.7236
 3055TIP3    H230801   0.126   4.080   1.286 -1.9966  1.2320  0.2489
 3056TIP3   OH230802   2.178   6.758   0.359 -0.5774  0.1968  0.6333
 3056TIP3    H130803   2.083   6.764   0.347 -0.2364  1.2054 -2.7112
 3056TIP3    H230804   2.212   6.834   0.310  1.9668 -0.4063  1.3538
 3057TIP3   OH230805   2.057   4.993   5.992 -0.1900 -0.6890  0.0100
 3057TIP3    H130806   2.054   5.074   6.044  0.8344 -1.3160  1.0863
 3057TIP3    H230807   1.992   5.007   5.923  0.8659  1.5930 -0.6177
 3058TIP3   OH230808   6.090   2.240   5.801  0.2117 -0.3160  0.3489
 3058TIP3    H130809   6.106   2.147   5.784  0.9933 -0.2417  0.6422
 3058TIP3    H230810   6.020   2.240   5.866  0.5167 -0.7131  0.6830
 3059TIP3   OH230811   4.913   2.588   6.522 -0.6212  0.3258  0.0284
 3059TIP3    H130812   4.905   2.640   6.442  0.6654  1.5526  0.6444
 3059TIP3    H230813   4.992   2.622   6.564 -0.0543 -1.7548  0.7635
 3060TIP3   OH230814   3.434   5.491   7.544  0.5703 -0.3430  0.4386
 3060TIP3    H130815   3.365   5.427   7.563 -0.2606 -0.1148 -1.5596
 3060TIP3    H230816   3.494   5.483   7.618  0.1606 -2.9536  0.6103
 3061TIP3   OH230817   0.556   5.250   7.203 -0.3735  0.1775  0.8477
 3061TIP3    H130818   0.583   5.159   7.196  1.1675  0.7596 -1.9782
 3061TIP3    H230819   0.604   5.283   7.279  3.4824 -0.0826 -1.2170
 3062TIP3   OH230820   6.440   7.029   6.675 -0.3169  0.2472  0.9712
 3062TIP3    H130821   6.427   7.119   6.645  1.5179  0.7877  1.6664
 3062TIP3    H230822   6.533   7.013   6.662 -0.7980 -2.0132 -0.2795
 3063TIP3   OH230823   3.712   1.600   0.584  0.0668  0.2291 -0.2983
 3063TIP3    H130824   3.790   1.545   0.586  1.2744  1.8971  0.6423
 3063TIP3    H230825   3.679   1.600   0.674  0.1555  1.1082 -0.2531
 3064TIP3   OH230826   5.992   0.966   7.302 -0.1298 -0.4182 -0.2409
 3064TIP3    H130827   6.067   0.907   7.303 -0.4733 -0.9329  2.1906
 3064TIP3    H230828   6.030   1.052   7.284  1.0500 -0.6982  0.7489
 3065TIP3   OH230829   6.478   1.068   7.079  0.3933  0.2680  0.2041
 3065TIP3    H130830   6.558   1.016   7.072 -0.1276 -0.3996 -1.0425
 3065TIP3    H230831   6.410   1.013   7.041 -1.0893  0.0252  2.9548
 3066TIP3   OH230832   0.336   0.990   1.214  0.2780  0.9454  0.0049
 3066TIP3    H130833   0.272   0.940   1.164  0.8402  0.6918 -0.4730
 3066TIP3    H230834   0.392   1.030   1.148  0.2938  1.5971  0.4061
 3067TIP3   OH230835   0.149   6.185   1.037  0.1131 -0.2110 -0.2264
 3067TIP3    H130836   0.096   6.237   0.977 -1.4017 -1.7165 -0.2499
 3067TIP3    H230837   0.215   6.143   0.982 -0.9692 -1.2007 -0.7972
 3068TIP3   OH230838   2.849   0.778   6.828  0.1019  0.1483 -0.0385
 3068TIP3    H130839   2.784   0.720   6.789  1.0576 -0.6849 -0.4559
 3068TIP3    H230840   2.817   0.794   6.916  0.5484 -2.2907  0.6370
 3069TIP3   OH230841   2.166   4.159   7.896 -0.3986 -0.0431 -0.7051
 3069TIP3    H130842   2.225   4.234   7.906  0.1604 -0.6847  1.0320
 3069TIP3    H230843   2.086   4.197   7.860 -0.0388  1.3583 -0.1092
 3070TIP3   OH230844   5.890   4.179   7.659 -0.5348  0.2523  0.4276
 3070TIP3    H130845   5.851   4.181   7.571 -0.0091 -1.3218  0.1162
 3070TIP3    H230846   5.984   4.171   7.643 -0.4668 -0.4338  1.1275
 3071TIP3   OH230847   3.038   4.294   7.996 -0.7317  0.1452 -0.0193
 3071TIP3    H130848   3.057   4.234   7.923  0.7506  0.0871  0.3760
 3071TIP3    H230849   2.999   4.238   8.063 -0.2235 -0.2108 -0.0088
 3072TIP3   OH230850   0.471   5.962   5.995  0.2351 -0.0386 -0.2982
 3072TIP3    H130851   0.498   5.876   5.964  1.9799  0.4041 -0.1151
 3072TIP3    H230852   0.520   5.975   6.076 -2.1428 -0.0171  1.2291
 3073TIP3   OH230853   1.706   2.439   0.321 -0.0822  0.1139 -0.0535
 3073TIP3    H130854   1.753   2.356   0.322 -0.9627 -0.5466 -2.9006
 3073TIP3    H230855   1.657   2.440   0.403 -0.8422 -2.7052 -0.3620
 3074TIP3   OH230856   6.477   3.353   2.071 -0.1884  0.1227 -0.7149
 3074TIP3    H130857   6.561   3.347   2.118 -0.1285  0.1326 -0.8202
 3074TIP3    H230858   6.478   3.278   2.012 -0.9180 -0.7608  0.3544
 3075TIP3   OH230859   7.059   4.223   5.875 -0.1587 -0.4979  0.1669
 3075TIP3    H130860   7.064   4.308   5.919  0.6022 -1.6351  2.4336
 3075TIP3    H230861   7.080   4.242   5.783  2.3919  1.4379  1.0286
 3076TIP3   OH230862   1.736   6.002   0.550  0.3866 -0.3439 -0.4383
 3076TIP3    H130863   1.747   5.994   0.644 -0.6229  1.7497 -0.1032
 3076TIP3    H230864   1.780   6.084   0.527 -1.1100  0.2152 -1.4479
 3077TIP3   OH230865   0.696   5.024   0.395  0.3861 -0.1243  0.0682
 3077TIP3    H130866   0.724   5.110   0.426 -0.1528  0.3477 -0.7146
 3077TIP3    H230867   0.777   4.973   0.389  0.8697  0.6943 -0.5777
 3078TIP3   OH230868   3.956   0.297   1.358  0.3796 -0.0630  0.2509
 3078TIP3    H130869   3.933   0.208   1.386 -1.0520  0.2746  0.1992
 3078TIP3    H230870   3.919   0.354   1.425  0.8593  0.5275  0.0239
 3079TIP3   OH230871   3.927   0.966   1.864 -0.8443 -0.0565 -0.1554
 3079TIP3    H130872   3.931   1.028   1.937 -3.0406 -0.5924  0.4901
 3079TIP3    H230873   3.955   0.883   1.902  2.0119  0.4011 -0.9989
 3080TIP3   OH230874   1.938   5.990   6.975  0.4854 -0.2654 -0.5339
 3080TIP3    H130875   1.964   6.082   6.975  0.2907 -0.1978 -1.3258
 3080TIP3    H230876   1.856   5.989   6.924 -1.2392 -0.4348  2.0812
 3081TIP3   OH230877   1.744   4.806   6.317  0.2449  0.8169  0.4503
 3081TIP3    H130878   1.750   4.767   6.404  0.5617  0.9075  0.4715
 3081TIP3    H230879   1.807   4.756   6.264 -0.6671  0.0967  0.0134
 3082TIP3   OH230880   5.851   6.739   2.109 -0.0253  0.1372  0.6747
 3082TIP3    H130881   5.913   6.801   2.072  0.3683  1.5773  3.4672
 3082TIP3    H230882   5.765   6.777   2.089  0.0411 -0.4624 -0.8803
 3083TIP3   OH230883   3.292   2.042   2.024 -0.1841  0.4759 -0.6668
 3083TIP3    H130884   3.210   1.994   2.033 -0.8889  1.7256 -0.2428
 3083TIP3    H230885   3.359   1.974   2.020 -0.8817 -0.5303  2.4247
 3084TIP3   OH230886   0.136   4.122   6.486 -0.3359 -0.2165  0.2058
 3084TIP3    H130887   0.062   4.065   6.466 -0.7119  0.2562  0.2306
 3084TIP3    H230888   0.135   4.131   6.581  0.3386 -0.9788  0.2965
 3085TIP3   OH230889   0.352   2.396   0.779  0.6254 -0.0168  0.2481
 3085TIP3    H130890   0.419   2.433   0.722  1.1044 -1.0344  0.1317
 3085TIP3    H230891   0.278   2.457   0.771  2.0993  2.0934  1.7332
 3086TIP3   OH230892   6.709   4.681   7.117 -0.1079 -0.7407  0.4151
 3086TIP3    H130893   6.615   4.699   7.115  0.0077 -0.1507 -1.4742
 3086TIP3    H230894   6.750   4.768   7.122  0.3514 -0.9872  1.0783
 3087TIP3   OH230895   5.472   2.025   7.934  0.2314 -0.0353 -0.4390
 3087TIP3    H130896   5.391   2.018   7.883 -0.4026  1.0813  0.3725
 3087TIP3    H230897   5.503   1.935   7.941 -0.3717 -0.3692 -1.6538
 3088TIP3   OH230898   6.721   6.470   6.663  0.3655 -0.0999 -0.0330
 3088TIP3    H130899   6.739   6.561   6.637  0.2287  0.1586  0.7482
 3088TIP3    H230900   6.681   6.431   6.586  0.3347  0.5368 -0.3513
 3089TIP3   OH230901   2.327   3.294   0.091 -0.2634  0.2721  0.5334
 3089TIP3    H130902   2.322   3.278   0.185 -0.8601  1.4924  0.7314
 3089TIP3    H230903   2.365   3.382   0.084 -0.2036  0.1827 -0.3628
 3090TIP3   OH230904   0.837   6.200   6.316  0.2101  0.1209  0.2045
 3090TIP3    H130905   0.855   6.127   6.376  0.2006 -0.6439 -0.6926
 3090TIP3    H230906   0.901   6.267   6.339  0.6452 -0.4303  0.6347
 3091TIP3   OH230907   6.225   5.724   6.795  0.5473  0.2299 -0.0790
 3091TIP3    H130908   6.227   5.637   6.833 -0.0221  0.4010  0.3691
 3091TIP3    H230909   6.315   5.741   6.767  0.7599 -0.3053  0.2699
 3092TIP3   OH230910   1.984   1.370   2.212  0.4077 -0.3096 -0.4042
 3092TIP3    H130911   2.000   1.458   2.178 -0.2775  0.9369  2.2112
 3092TIP3    H230912   2.052   1.356   2.277 -1.2152 -0.4188  1.3580
 3093TIP3   OH230913   5.853   1.135   0.966  0.1502  0.0877 -0.0939
 3093TIP3    H130914   5.842   1.178   1.051  2.0207  0.3137  0.0702
 3093TIP3    H230915   5.915   1.190   0.919 -0.5674 -0.2463 -1.4911
 3094TIP3   OH230916   0.862   4.225   7.888  0.3849  0.3898 -0.9741
 3094TIP3    H130917   0.825   4.306   7.925  0.0608  0.3912 -1.2971
 3094TIP3    H230918   0.954   4.227   7.915 -0.1492 -0.3583  1.1392
 3095TIP3   OH230919   3.140   0.263   1.014  0.0156  0.2498  0.2530
 3095TIP3    H130920   3.054   0.304   1.028 -0.0455 -0.2851  1.6737
 3095TIP3    H230921   3.179   0.312   0.942 -1.5942  0.3299 -0.6125
 3096TIP3   OH230922   0.328   5.079   6.631  0.2834 -0.0452 -0.2233
 3096TIP3    H130923   0.276   5.115   6.703 -1.0019  0.4858 -1.3697
 3096TIP3    H230924   0.334   5.150   6.567  2.4813 -0.0966 -0.1314
 3097TIP3   OH230925   1.170   3.424   6.148 -0.5265  0.0148 -0.2534
 3097TIP3    H130926   1.217   3.503   6.123 -0.3975 -0.0027 -0.0657
 3097TIP3    H230927   1.172   3.369   6.069  0.3162 -0.2486 -0.0578
 3098TIP3   OH230928   1.924   2.231   0.384  0.3822 -0.2284  0.7107
 3098TIP3    H130929   1.850   2.181   0.419 -1.1537  0.3626 -1.4895
 3098TIP3    H230930   1.953   2.182   0.308 -0.5429  1.6347 -0.9454
 3099TIP3   OH230931   4.417   6.845   0.691 -0.1157  0.4559  1.3850
 3099TIP3    H130932   4.509   6.845   0.665 -0.2842  0.6057  0.7843
 3099TIP3    H230933   4.374   6.905   0.630 -0.6581  0.1967  1.5024
 3100TIP3   OH230934   2.012   3.338   0.925  0.2929  0.1088 -0.2558
 3100TIP3    H130935   2.046   3.261   0.970  0.8798  0.4049 -0.1805
 3100TIP3    H230936   2.076   3.407   0.944  0.5554  0.2427 -1.5284
 3101TIP3   OH230937   6.212   5.776   5.775  0.1784 -1.0218 -0.6966
 3101TIP3    H130938   6.266   5.844   5.814 -1.7920 -0.0108  0.4148
 3101TIP3    H230939   6.139   5.823   5.735 -0.9000 -2.4258 -0.4643
 3102TIP3   OH230940   6.228   3.694   0.710 -0.1900  0.2597  0.1323
 3102TIP3    H130941   6.149   3.699   0.764 -0.6983  0.0600 -0.5850
 3102TIP3    H230942   6.199   3.713   0.621  0.5268 -0.0528 -0.1839
 3103TIP3   OH230943   4.798   6.756   7.553  0.1456 -0.8424  0.4091
 3103TIP3    H130944   4.837   6.841   7.533 -0.1152 -0.6409  0.7455
 3103TIP3    H230945   4.742   6.736   7.478 -1.1761  0.1149  1.1169
 3104TIP3   OH230946   6.845   5.717   5.899  0.2637  0.2321  0.6623
 3104TIP3    H130947   6.787   5.654   5.855 -1.7040  1.8710  0.7301
 3104TIP3    H230948   6.889   5.763   5.828  1.5647 -1.0440  0.6088
 3105TIP3   OH230949   5.181   6.301   0.413 -0.1385 -0.4533  0.1385
 3105TIP3    H130950   5.092   6.291   0.448 -0.7080 -2.9871 -1.7771
 3105TIP3    H230951   5.172   6.366   0.343 -0.5157 -0.7806 -0.1210
 3106TIP3   OH230952   5.986   6.332   0.681 -0.4633  0.2224 -0.5445
 3106TIP3    H130953   5.971   6.242   0.710 -1.7534  0.2677 -1.0441
 3106TIP3    H230954   6.068   6.327   0.632  0.7854 -0.1961  1.4576
 3107TIP3   OH230955   0.570   1.910   7.790  0.0453  0.1127  0.2837
 3107TIP3    H130956   0.594   1.890   7.700  1.3558  0.5197  0.5222
 3107TIP3    H230957   0.533   1.998   7.786  2.4016  1.1784  0.4501
 3108TIP3   OH230958   0.051   1.351   6.925 -0.0286 -0.3973 -0.3089
 3108TIP3    H130959   0.031   1.281   6.863  1.0706 -0.2998 -0.8089
 3108TIP3    H230960  -0.032   1.371   6.966 -0.9992  0.1179 -2.3708
 3109TIP3   OH230961   5.588   1.169   0.428  0.0040 -0.4470 -0.3148
 3109TIP3    H130962   5.672   1.140   0.464 -0.6053 -2.5835 -0.4864
 3109TIP3    H230963   5.598   1.162   0.333  0.3874  1.6621 -0.4898
 3110TIP3   OH230964   6.700   2.239   6.624  0.4860 -0.2694  0.2796
 3110TIP3    H130965   6.654   2.165   6.587  3.1085 -1.1077 -1.5823
 3110TIP3    H230966   6.738   2.206   6.706  0.4663 -0.5635  0.1685
 3111TIP3   OH230967   1.725   0.337   1.062  0.1272 -0.2081 -0.2068
 3111TIP3    H130968   1.773   0.261   1.096  1.2545 -0.2417 -1.7756
 3111TIP3    H230969   1.668   0.301   0.995 -0.6938  0.0984  0.3205
 3112TIP3   OH230970   1.345   2.547   8.017 -0.1440 -0.0107 -0.3941
 3112TIP3    H130971   1.401   2.486   7.970  0.8078 -0.1378  0.8599
 3112TIP3    H230972   1.340   2.512   8.106 -0.7426  0.9721 -0.0207
 3113TIP3   OH230973   3.026   1.161   0.497 -0.2459 -0.2215  0.7766
 3113TIP3    H130974   2.975   1.202   0.427 -0.3238 -1.4194  0.1239
 3113TIP3    H230975   3.058   1.080   0.460 -1.9870 -1.9396  2.7423
 3114TIP3   OH230976   5.058   6.160   6.969 -0.5410  0.5756 -0.0470
 3114TIP3    H130977   5.135   6.218   6.963  0.5901 -0.9599 -1.0464
 3114TIP3    H230978   4.994   6.200   6.910  0.9446 -0.1433 -2.3142
 3115TIP3   OH230979   3.317   1.385   6.486 -0.2543  0.2524 -0.1936
 3115TIP3    H130980   3.236   1.395   6.536 -1.6677 -1.4007 -2.0009
 3115TIP3    H230981   3.315   1.455   6.421 -0.1757  0.3024 -0.1416
 3116TIP3   OH230982   6.513   6.631   6.499  0.3880  0.6264  0.2437
 3116TIP3    H130983   6.469   6.636   6.583 -1.5311 -0.3469 -0.6310
 3116TIP3    H230984   6.507   6.539   6.474 -0.7836  1.1972 -1.7835
 3117TIP3   OH230985   3.228   4.783   7.936  0.1953 -0.2311 -0.2041
 3117TIP3    H130986   3.252   4.867   7.897  0.3420 -0.0738  0.2104
 3117TIP3    H230987   3.311   4.737   7.948  0.3587  0.4390  1.5132
 3118TIP3   OH230988   1.688   6.337   6.600 -0.2876 -0.8403 -0.4176
 3118TIP3    H130989   1.783   6.324   6.595  0.0022  0.3963  1.2125
 3118TIP3    H230990   1.652   6.249   6.602  0.7416 -1.3445 -1.8898
 3119TIP3   OH230991   0.460   1.786   1.105 -0.0693 -0.2109 -0.1480
 3119TIP3    H130992   0.461   1.704   1.156  0.6956  0.3616  0.7929
 3119TIP3    H230993   0.404   1.766   1.030 -3.3490 -0.3779  2.1005
 3120TIP3   OH230994   2.053   0.189   0.128 -0.0994  0.2550  0.9705
 3120TIP3    H130995   2.076   0.133   0.054  0.8850  0.8575  0.8033
 3120TIP3    H230996   2.037   0.275   0.089 -4.3347 -0.4049  0.8280
 3121TIP3   OH230997   0.009   1.872   0.293  0.3936 -0.4590 -0.1322
 3121TIP3    H130998  -0.008   1.939   0.227 -3.5393 -2.9410 -2.0183
 3121TIP3    H230999  -0.017   1.914   0.376 -1.1728  0.6462 -1.1252
 3122TIP3   OH231000   2.147   0.760   7.897 -0.1244 -0.1855 -0.2766
 3122TIP3    H131001   2.061   0.783   7.860  0.1432  1.8719  0.2421
 3122TIP3    H231002   2.207   0.823   7.858  0.6662  0.1745  1.4489
 3123TIP3   OH231003   1.670   3.540   7.750  0.2701  0.7152 -0.0064
 3123TIP3    H131004   1.750   3.541   7.697 -0.7648  0.4458 -1.6551
 3123TIP3    H231005   1.600   3.562   7.688 -0.8887  1.5119  1.5056
 3124TIP3   OH231006   6.486   6.538   0.752  0.0850 -0.4532  0.0092
 3124TIP3    H131007   6.565   6.586   0.776 -1.2021  1.3867  0.7782
 3124TIP3    H231008   6.443   6.593   0.687 -2.0207  0.1020  1.7661
 3125TIP3   OH231009   5.397   5.245   0.742  0.0721 -0.1861 -0.2564
 3125TIP3    H131010   5.484   5.278   0.721 -0.1713  0.2884 -0.5227
 3125TIP3    H231011   5.337   5.311   0.707 -0.4346 -1.1020 -1.1331
 3126TIP3   OH231012   6.854   1.703   0.804  0.1759 -0.2947  0.3333
 3126TIP3    H131013   6.805   1.778   0.838  0.4000 -0.4873  1.0886
 3126TIP3    H231014   6.791   1.658   0.747 -1.0032 -1.2647  2.2683
 3127TIP3   OH231015   6.233   4.427   7.164  0.5726 -0.6025  0.1800
 3127TIP3    H131016   6.241   4.369   7.088 -0.5056 -0.4199 -0.1047
 3127TIP3    H231017   6.149   4.403   7.203  0.7110 -0.0996  0.8046
 3128TIP3   OH231018   7.026   6.922   0.126  0.0849  0.2794 -0.1849
 3128TIP3    H131019   7.043   7.011   0.158  0.2150  0.1380  0.1359
 3128TIP3    H231020   7.053   6.865   0.197 -1.0641  0.0235  0.0632
 3129TIP3   OH231021   2.791   3.660   0.809 -0.4451  0.0259  0.3096
 3129TIP3    H131022   2.709   3.638   0.854 -1.6385 -0.1577 -1.7886
 3129TIP3    H231023   2.847   3.698   0.876 -2.1063 -0.2281  1.9020
 3130TIP3   OH231024   6.635   0.511   1.895 -0.0498 -0.0617  0.3425
 3130TIP3    H131025   6.714   0.457   1.889 -1.4513 -2.1064 -3.5415
 3130TIP3    H231026   6.567   0.451   1.925 -0.7176  0.9214  0.8503
 3131TIP3   OH231027   0.132   0.838   7.967 -0.7010 -0.6866 -0.2401
 3131TIP3    H131028   0.067   0.769   7.980 -0.8659 -0.5259 -0.2120
 3131TIP3    H231029   0.082   0.911   7.931 -0.7764 -0.1115  0.9830
 3132TIP3   OH231030   5.397   4.136   0.671  0.1726 -0.1614 -0.0888
 3132TIP3    H131031   5.398   4.058   0.616  0.1452 -1.7029  1.9611
 3132TIP3    H231032   5.314   4.130   0.718  0.8040  0.3200  1.1275
 3133TIP3   OH231033   3.309   2.229   2.259 -0.1474  0.1317  0.1918
 3133TIP3    H131034   3.319   2.158   2.196 -0.6637  0.0948  0.1404
 3133TIP3    H231035   3.344   2.306   2.214 -0.1388  0.0253  0.0169
 3134TIP3   OH231036   0.841   4.335   8.183  0.1412 -0.1630  0.1761
 3134TIP3    H131037   0.787   4.362   8.257 -0.0540  0.8580 -0.3217
 3134TIP3    H231038   0.914   4.288   8.222 -0.4266 -0.4109  0.9473
 3135TIP3   OH231039   6.488   6.779   1.742  0.2459  0.8647 -0.4903
 3135TIP3    H131040   6.481   6.695   1.787  1.0337  0.9667 -0.1420
 3135TIP3    H231041   6.501   6.842   1.813 -0.3831  1.2883 -0.7451
 3136TIP3   OH231042   1.576   1.352   1.580 -0.5383  0.6255 -0.1697
 3136TIP3    H131043   1.663   1.324   1.608 -0.8250  1.1568  1.3454
 3136TIP3    H231044   1.582   1.448   1.579 -1.2593  0.6872  0.5422
 3137TIP3   OH231045   2.274   0.153   7.404  0.4899 -0.3963  0.0033
 3137TIP3    H131046   2.364   0.136   7.377  0.1769 -1.0402 -0.6694
 3137TIP3    H231047   2.256   0.243   7.375  0.8772 -0.3030  0.0555
 3138TIP3   OH231048   5.865   5.349   6.423  0.1354  0.2845  0.3260
 3138TIP3    H131049   5.915   5.308   6.353  0.1942  1.2273 -0.1987
 3138TIP3    H231050   5.799   5.402   6.379  0.2176  0.9479  0.9673
 3139TIP3   OH231051   2.306   3.030   7.125 -0.3694 -0.3847 -0.2750
 3139TIP3    H131052   2.228   2.976   7.114 -0.5728  0.2153 -2.0839
 3139TIP3    H231053   2.328   3.058   7.036  1.8628 -0.4742  0.1959
 3140TIP3   OH231054   1.024   0.790   7.077 -0.2614 -0.0544 -0.7237
 3140TIP3    H131055   1.113   0.759   7.061 -0.0141  0.5524 -0.5760
 3140TIP3    H231056   0.988   0.805   6.990 -0.1619 -0.1528 -0.7826
 3141TIP3   OH231057   2.603   6.281   1.260  0.0771 -0.0379  0.2563
 3141TIP3    H131058   2.606   6.303   1.166 -2.3718 -1.5441 -0.2599
 3141TIP3    H231059   2.575   6.363   1.302  1.4593  0.7291 -0.2529
 3142TIP3   OH231060   2.870   4.348   0.432  0.3658  0.4957 -0.3499
 3142TIP3    H131061   2.938   4.414   0.424  0.3241  0.5866  0.0356
 3142TIP3    H231062   2.788   4.397   0.428  0.3481  0.6799  1.7106
 3143TIP3   OH231063   6.491   0.249   0.850  0.2056  0.0984  0.1071
 3143TIP3    H131064   6.401   0.271   0.874  0.5124  1.0314  0.4729
 3143TIP3    H231065   6.530   0.214   0.931  0.0460 -0.7478 -0.1743
 3144TIP3   OH231066   5.075   6.431   7.763  0.5687  0.0852 -0.0386
 3144TIP3    H131067   5.117   6.439   7.849  1.3032  2.5117 -0.5506
 3144TIP3    H231068   5.147   6.441   7.701 -0.1947  0.0337 -0.9518
 3145TIP3   OH231069   4.772   5.093   0.853  0.4482  0.0893  0.0316
 3145TIP3    H131070   4.805   5.098   0.942  1.0546  0.4123 -0.2046
 3145TIP3    H231071   4.740   5.182   0.834  0.3248  0.0231 -0.0719
 3146TIP3   OH231072   1.050   5.695   8.267  0.1812  0.6731  0.0912
 3146TIP3    H131073   1.110   5.768   8.284  0.0977  0.5783  0.8565
 3146TIP3    H231074   1.102   5.617   8.283  0.2250  0.5654 -0.5688
 3147TIP3   OH231075   5.908   2.277   1.515 -0.8562 -0.2314  0.0576
 3147TIP3    H131076   5.946   2.192   1.492 -2.9167 -1.3880  0.6152
 3147TIP3    H231077   5.814   2.261   1.518 -1.2577  1.9118  0.9239
 3148TIP3   OH231078   2.782   2.612   1.202  0.2188 -0.1365 -0.5115
 3148TIP3    H131079   2.740   2.669   1.138 -2.3162  1.3774  2.2632
 3148TIP3    H231080   2.875   2.635   1.197 -0.2678  1.8009 -1.8247
 3149TIP3   OH231081   1.117   0.034   1.337 -0.3188  0.1760  0.1332
 3149TIP3    H131082   1.067   0.095   1.282 -1.0064  1.1798  1.7898
 3149TIP3    H231083   1.208   0.044   1.307 -0.3758  2.2407  0.5131
 3150TIP3   OH231084   6.555   5.985   2.357 -1.2540 -0.0172  0.0817
 3150TIP3    H131085   6.546   5.999   2.263 -1.9356 -0.6646  0.0408
 3150TIP3    H231086   6.550   5.890   2.368  1.2890 -0.1652  0.5348
 3151TIP3   OH231087   2.050   4.243   7.152  0.0336 -1.0431 -0.2923
 3151TIP3    H131088   1.981   4.302   7.120  1.5532 -0.4793 -2.7549
 3151TIP3    H231089   2.100   4.297   7.213  0.5687 -0.1622 -1.4633
 3152TIP3   OH231090   0.124   1.470   8.281  0.4851 -0.5455  0.7453
 3152TIP3    H131091   0.216   1.491   8.265  0.0733  0.4178 -0.5031
 3152TIP3    H231092   0.113   1.383   8.242  0.0785  0.7788 -2.4339
 3153TIP3   OH231093   0.728   0.579   7.692 -0.7727  0.3096  0.0877
 3153TIP3    H131094   0.750   0.666   7.658  2.4694  0.1985  1.5136
 3153TIP3    H231095   0.769   0.518   7.631 -1.7321 -0.1697 -0.0868
 3154TIP3   OH231096   5.239   0.263   0.958 -0.4273  0.0489 -0.2212
 3154TIP3    H131097   5.325   0.287   0.924 -0.7294 -0.3427 -1.2963
 3154TIP3    H231098   5.185   0.341   0.948 -0.3197  0.1585  0.0453
 3155TIP3   OH231099   1.677   0.155   6.576 -0.5185  0.8189 -0.1615
 3155TIP3    H131100   1.703   0.065   6.595  0.1601  0.9076 -0.6391
 3155TIP3    H231101   1.604   0.172   6.636  0.7917  0.7125  1.5571
 3156TIP3   OH231102   6.778   1.311   7.980 -0.4236 -0.0308  0.1188
 3156TIP3    H131103   6.688   1.314   8.013 -1.1512 -0.0330 -1.7276
 3156TIP3    H231104   6.818   1.392   8.012 -1.1046  0.0123  0.9002
 3157TIP3   OH231105   0.136   5.352   0.450 -0.0845  0.4059  0.1440
 3157TIP3    H131106   0.075   5.392   0.512  1.0427  1.5065  0.5736
 3157TIP3    H231107   0.210   5.325   0.504  0.1878 -0.1547 -0.4952
 3158TIP3   OH231108   3.504   4.069   5.625 -0.0831  0.4390 -0.3594
 3158TIP3    H131109   3.413   4.041   5.614 -0.0238  1.0640 -3.2755
 3158TIP3    H231110   3.499   4.165   5.629  0.5233  0.6546 -3.0091
 3159TIP3   OH231111   2.160   3.313   2.131 -0.0623 -0.7963 -0.4925
 3159TIP3    H131112   2.092   3.344   2.191  0.3069 -1.9354  0.5642
 3159TIP3    H231113   2.129   3.339   2.045 -2.5610 -2.4542 -0.2067
 3160TIP3   OH231114   6.718   3.687   0.826 -0.8165  0.3870 -0.4269
 3160TIP3    H131115   6.790   3.683   0.762 -0.6759 -2.6066 -0.2119
 3160TIP3    H231116   6.639   3.674   0.773 -0.9350  0.5832 -0.2973
 3161TIP3   OH231117   5.220   3.330   6.932 -0.2659  1.3457 -0.0403
 3161TIP3    H131118   5.307   3.298   6.912 -0.2954  2.0050 -1.3098
 3161TIP3    H231119   5.232   3.423   6.951 -0.6923  1.4382 -0.2031
 3162TIP3   OH231120   4.938   2.608   7.514 -0.6001  0.8586  0.2536
 3162TIP3    H131121   5.002   2.615   7.443 -0.6922  1.6186  0.2395
 3162TIP3    H231122   4.880   2.536   7.488 -0.7743  1.2866 -0.5578
 3163TIP3   OH231123   3.362   4.562   2.355  0.1203 -0.1531 -0.5852
 3163TIP3    H131124   3.284   4.508   2.358  0.4817 -0.6545  0.3598
 3163TIP3    H231125   3.371   4.588   2.264 -0.0428 -1.7268 -1.0730
 3164TIP3   OH231126   7.071   2.888   7.569 -0.0601  0.5099 -0.5031
 3164TIP3    H131127   7.093   2.796   7.583 -0.6430  0.5081  0.4687
 3164TIP3    H231128   7.150   2.935   7.595 -0.2990  0.3607  0.5500
 3165TIP3   OH231129   5.440   4.322   8.254 -0.1791 -0.1791  0.1416
 3165TIP3    H131130   5.459   4.238   8.296  1.0152  0.6116  1.2681
 3165TIP3    H231131   5.497   4.325   8.178  0.2408 -0.1371  0.4550
 3166TIP3   OH231132   6.722   2.822   6.085 -0.1569 -0.1272 -0.4278
 3166TIP3    H131133   6.720   2.869   6.002  1.0717 -1.5845 -1.3445
 3166TIP3    H231134   6.635   2.784   6.094 -1.1207  2.1254  0.2673
 3167TIP3   OH231135   3.717   0.737   0.942 -0.2555  0.0143 -0.4718
 3167TIP3    H131136   3.627   0.754   0.972 -0.7674  1.5957 -2.6398
 3167TIP3    H231137   3.742   0.817   0.897  2.1091 -0.5847 -0.3360
 3168TIP3   OH231138   6.059   0.573   1.618 -0.4075  0.0488  0.1826
 3168TIP3    H131139   6.047   0.576   1.713 -0.6736 -1.9829  0.2429
 3168TIP3    H231140   6.126   0.506   1.604 -1.7519 -1.0662 -1.1557
 3169TIP3   OH231141   1.760   6.752   0.980 -0.6068 -0.2021 -0.0682
 3169TIP3    H131142   1.831   6.811   1.005  0.6358 -2.3772  1.9180
 3169TIP3    H231143   1.682   6.808   0.978  0.7802  1.8547 -0.2782
 3170TIP3   OH231144   1.245   5.004   7.917 -0.3268  0.2622  0.3057
 3170TIP3    H131145   1.277   5.054   7.992  2.7579  0.1731 -0.7943
 3170TIP3    H231146   1.271   4.913   7.936 -2.0379 -0.2595  0.3401
 3171TIP3   OH231147   4.119   7.005   7.479  0.4271  0.0624 -0.3496
 3171TIP3    H131148   4.191   6.946   7.456  0.9260  0.3812  0.3429
 3171TIP3    H231149   4.040   6.955   7.458  0.7682 -1.7977  2.2860
 3172TIP3   OH231150   3.209   2.123   7.249  0.0707 -0.0941  0.0587
 3172TIP3    H131151   3.240   2.064   7.318 -0.3253 -1.2439 -0.7177
 3172TIP3    H231152   3.118   2.141   7.271 -0.7225 -2.1636 -1.2234
 3173TIP3   OH231153   5.355   5.022   7.742  0.4288 -0.1631 -0.3595
 3173TIP3    H131154   5.264   5.012   7.716 -0.0614  2.0626  0.3191
 3173TIP3    H231155   5.351   5.056   7.831  1.8611  1.4694 -0.8598
 3174TIP3   OH231156   2.001   1.537   0.659  0.1370  0.8451 -0.0622
 3174TIP3    H131157   1.970   1.447   0.668 -1.1656  1.3280  0.4329
 3174TIP3    H231158   2.097   1.530   0.664  0.0362 -0.4692  0.2539
 3175TIP3   OH231159   2.007   0.690   2.375  0.4383  0.1870 -0.1682
 3175TIP3    H131160   1.920   0.714   2.407 -0.7321 -2.1552 -1.3701
 3175TIP3    H231161   2.067   0.718   2.444 -1.4886 -0.2394  1.7571
 3176TIP3   OH231162   0.838   0.490   0.588  0.1376  0.6823 -0.2404
 3176TIP3    H131163   0.798   0.415   0.631  0.7722  0.6580  0.3265
 3176TIP3    H231164   0.860   0.459   0.500 -1.6679  0.8974 -0.7960
 3177TIP3   OH231165   3.898   0.861   7.221  0.0023  0.2810 -0.1251
 3177TIP3    H131166   3.809   0.896   7.227 -0.0010  0.5405 -1.4463
 3177TIP3    H231167   3.950   0.933   7.185  0.6359 -0.0494  0.1137
 3178TIP3   OH231168   6.240   4.868   7.352 -0.3570 -0.0482 -0.3992
 3178TIP3    H131169   6.214   4.852   7.262  0.6810 -0.4503 -0.6463
 3178TIP3    H231170   6.186   4.809   7.404  0.4798 -1.3527 -0.9492
 3179TIP3   OH231171   2.246   5.962   0.850  0.4652 -0.1164  0.6702
 3179TIP3    H131172   2.244   5.873   0.885  0.3422 -1.3845 -2.3300
 3179TIP3    H231173   2.302   6.010   0.912 -0.1247 -2.0021  2.8170
 3180TIP3   OH231174   2.834   1.464   0.471 -0.4149  0.3093 -0.0999
 3180TIP3    H131175   2.777   1.407   0.522 -2.3062 -1.1972 -3.5227
 3180TIP3    H231176   2.880   1.404   0.412 -0.4827  2.0407 -2.0285
 3181TIP3   OH231177   4.534   5.599   0.050  0.1109 -0.2653 -0.4927
 3181TIP3    H131178   4.616   5.551   0.060  0.2745 -0.2188 -1.5016
 3181TIP3    H231179   4.466   5.532   0.052  0.0072 -0.1757  1.9099
 3182TIP3   OH231180   6.111   2.755   1.177  0.2555  0.1082 -0.2034
 3182TIP3    H131181   6.176   2.727   1.113  1.3766  0.9567  0.5342
 3182TIP3    H231182   6.128   2.701   1.254 -0.1686  0.0712 -0.1331
 3183TIP3   OH231183   6.777   6.423   0.972  0.1702 -0.2088 -0.3103
 3183TIP3    H131184   6.754   6.457   1.058  3.7551  0.7164  0.4522
 3183TIP3    H231185   6.765   6.497   0.912 -0.5369 -0.3199 -0.3240
 3184TIP3   OH231186   6.275   4.232   6.350 -0.0984 -0.3792  0.0413
 3184TIP3    H131187   6.273   4.314   6.301 -2.6427  0.4528  1.3457
 3184TIP3    H231188   6.340   4.178   6.305  1.6837  2.3268 -0.8494
 3185TIP3   OH231189   3.634   2.414   6.903 -0.3696 -0.5011 -0.4517
 3185TIP3    H131190   3.561   2.422   6.842 -0.0650  1.4464 -0.6271
 3185TIP3    H231191   3.710   2.447   6.854 -0.2080  1.5582  1.0847
 3186TIP3   OH231192   2.697   0.373   0.512  0.0817  0.9144  0.2526
 3186TIP3    H131193   2.707   0.452   0.564  1.4991  0.2547  1.0553
 3186TIP3    H231194   2.691   0.403   0.422 -2.7812  2.1174  0.7151
 3187TIP3   OH231195   4.012   2.594   7.475 -0.4575  0.6274 -0.5361
 3187TIP3    H131196   3.930   2.630   7.508 -0.8939 -0.0580 -0.8512
 3187TIP3    H231197   4.014   2.504   7.509  1.0588  1.1971  1.0212
 3188TIP3   OH231198   4.164   6.707   0.654  0.0155  1.0099 -0.3565
 3188TIP3    H131199   4.205   6.788   0.682 -0.1826  1.1184 -0.3808
 3188TIP3    H231200   4.235   6.656   0.614  0.8725 -0.1099  2.3323
 3189TIP3   OH231201   2.334   0.213   0.344 -0.0455 -0.0977 -0.1383
 3189TIP3    H131202   2.310   0.165   0.424  1.3262  0.5739  0.7161
 3189TIP3    H231203   2.279   0.291   0.346 -0.5909 -0.4668 -0.2936
 3190TIP3   OH231204   5.403   1.947   0.794 -0.0342 -0.0023  0.1895
 3190TIP3    H131205   5.367   2.025   0.837 -0.4828 -0.2025  0.1831
 3190TIP3    H231206   5.396   1.967   0.700 -3.3075 -1.3461 -0.0125
 3191TIP3   OH231207   6.838   3.128   0.531  0.2615  0.4436 -0.6527
 3191TIP3    H131208   6.816   3.143   0.623  2.1265 -0.2738 -0.0538
 3191TIP3    H231209   6.881   3.209   0.504  0.7142  0.2427 -0.5489
 3192TIP3   OH231210   3.183   5.811   6.845  0.1035  0.5244  0.4090
 3192TIP3    H131211   3.221   5.899   6.837 -1.4155  1.2017  0.3866
 3192TIP3    H231212   3.254   5.757   6.880  1.0214  1.7902  0.5407
 3193TIP3   OH231213   1.140   2.378   6.555 -0.1115  0.1217 -0.1904
 3193TIP3    H131214   1.092   2.423   6.625  2.5765  0.9294  1.2768
 3193TIP3    H231215   1.188   2.448   6.510 -2.8319 -0.1339 -3.9736
 3194TIP3   OH231216   3.525   3.531   0.177  0.1635 -0.2213 -0.1774
 3194TIP3    H131217   3.500   3.575   0.258  0.3545 -0.1425 -0.1602
 3194TIP3    H231218   3.546   3.602   0.116 -1.0864 -0.2467 -0.6650
 3195TIP3   OH231219   5.672   0.916   8.213 -0.6915 -0.3774 -0.1032
 3195TIP3    H131220   5.709   0.984   8.268  0.8523 -0.6377 -0.7636
 3195TIP3    H231221   5.736   0.844   8.217 -1.4548 -1.1189 -0.7465
 3196TIP3   OH231222   1.737   5.983   0.061 -0.0849 -0.4430  0.0621
 3196TIP3    H131223   1.722   6.052   0.124  0.0038 -0.1994 -0.1811
 3196TIP3    H231224   1.827   5.995   0.033 -0.0704 -0.6540  0.0159
 3197TIP3   OH231225   0.441   6.577   6.959 -0.3580  0.2655  0.4789
 3197TIP3    H131226   0.418   6.581   6.866 -0.9437 -1.1428  0.5388
 3197TIP3    H231227   0.502   6.503   6.965  0.1132  0.6975  1.1382
 3198TIP3   OH231228   0.987   3.928   1.525 -0.5293 -0.5277 -0.0922
 3198TIP3    H131229   1.040   3.970   1.592  0.5232 -1.2633 -0.4487
 3198TIP3    H231230   0.898   3.929   1.560 -0.3257  0.8829  0.4341
 3199TIP3   OH231231   3.111   4.118   7.022  0.3013  0.9284 -0.2135
 3199TIP3    H131232   3.155   4.172   6.957  1.0060  2.4855  1.4483
 3199TIP3    H231233   3.018   4.138   7.012  0.2705  0.1688 -1.5541
 3200TIP3   OH231234   4.830   0.548   1.870  0.0254 -0.1993  0.0867
 3200TIP3    H131235   4.889   0.623   1.875 -0.7054  0.3383  0.9549
 3200TIP3    H231236   4.743   0.585   1.888 -0.4178 -1.1646 -0.0281
 3201TIP3   OH231237   4.175   4.140   0.103 -0.2462  0.4654  0.2774
 3201TIP3    H131238   4.256   4.152   0.152  0.6127  0.8941 -1.1809
 3201TIP3    H231239   4.108   4.123   0.170  1.1375 -0.4520  1.4818
 3202TIP3   OH231240   4.969   4.116   0.454  0.0467 -0.6061  0.4327
 3202TIP3    H131241   4.953   4.022   0.454 -2.2941 -0.4688 -4.0639
 3202TIP3    H231242   5.053   4.126   0.408 -0.5135 -0.4806 -0.5777
 3203TIP3   OH231243   1.527   6.191   7.208  0.0520  0.0846  0.1699
 3203TIP3    H131244   1.587   6.202   7.282  1.5937  1.4671 -1.1923
 3203TIP3    H231245   1.540   6.100   7.181  1.0469  0.1634  0.3280
 3204TIP3   OH231246   2.874   5.500   6.914  0.4685  0.3955 -0.2794
 3204TIP3    H131247   2.895   5.506   7.008 -1.0569 -0.5676  0.1508
 3204TIP3    H231248   2.848   5.589   6.890  3.9271  1.4827 -0.6564
 3205TIP3   OH231249   0.732   3.793   6.996 -0.0185  0.6709  1.0746
 3205TIP3    H131250   0.792   3.866   7.012  0.1464  0.6335  0.6583
 3205TIP3    H231251   0.711   3.800   6.902 -1.1770  1.0653  1.3396
 3206TIP3   OH231252   3.648   1.157   7.591  0.1035 -0.1581  0.0187
 3206TIP3    H131253   3.583   1.164   7.521 -2.3307 -0.3204  2.1443
 3206TIP3    H231254   3.635   1.235   7.645  1.1211 -0.6083  0.9738
 3207TIP3   OH231255   3.034   3.227   0.420  0.3461  0.2665 -0.1816
 3207TIP3    H131256   3.040   3.315   0.383  1.2598  0.4982  0.4719
 3207TIP3    H231257   2.943   3.218   0.446  0.1568  0.8759 -0.6093
 3208TIP3   OH231258   4.881   0.305   8.146  0.3189  0.1776 -0.2198
 3208TIP3    H131259   4.830   0.240   8.196 -0.5882  0.6995 -0.4443
 3208TIP3    H231260   4.890   0.266   8.059 -1.8923  1.1419 -0.9436
 3209TIP3   OH231261   4.257   0.980   7.028 -0.0964 -0.4943  0.0505
 3209TIP3    H131262   4.335   0.966   7.081 -1.4971 -1.5854  1.9221
 3209TIP3    H231263   4.270   0.922   6.953  1.7931  0.8940 -0.8075
 3210TIP3   OH231264   6.847   3.144   5.766 -0.1374  0.5324  0.4267
 3210TIP3    H131265   6.845   3.239   5.755 -0.6689  0.4834  0.0647
 3210TIP3    H231266   6.930   3.116   5.726 -0.1746  0.7984  0.1669
 3211TIP3   OH231267   5.294   1.421   7.809  0.2103 -0.4095  0.1001
 3211TIP3    H131268   5.352   1.389   7.740  0.8845 -0.3454  0.6376
 3211TIP3    H231269   5.272   1.343   7.860  1.0492 -0.1996  0.8054
 3212TIP3   OH231270   6.991   4.822   0.499 -0.4524  0.2927 -0.0302
 3212TIP3    H131271   7.021   4.903   0.458  0.3030  0.7740  1.4285
 3212TIP3    H231272   6.903   4.842   0.530 -0.9952 -0.0466 -1.2732
 3213TIP3   OH231273   5.928   2.746   1.467 -0.1494 -0.3142 -0.3538
 3213TIP3    H131274   5.877   2.679   1.512 -0.0442 -1.2354 -1.5820
 3213TIP3    H231275   5.920   2.725   1.374  1.6342  0.1230 -0.6432
 3214TIP3   OH231276   0.938   6.674   6.649  0.4032 -0.0939 -0.1800
 3214TIP3    H131277   0.926   6.698   6.741 -0.1866 -0.8969 -0.0373
 3214TIP3    H231278   1.028   6.701   6.629  0.3768  0.5228  0.4942
 3215TIP3   OH231279   6.772   5.993   6.526 -0.6973  0.1285 -0.2170
 3215TIP3    H131280   6.755   5.924   6.590 -0.4974  0.0250 -0.2726
 3215TIP3    H231281   6.849   6.039   6.560  0.3171 -0.8429 -1.1062
 3216TIP3   OH231282   4.649   6.985   0.244 -0.2631 -0.2505 -0.0161
 3216TIP3    H131283   4.660   6.899   0.283  0.3532 -0.0309  0.3135
 3216TIP3    H231284   4.555   7.003   0.251 -0.3614 -0.8048  0.1050
 3217TIP3   OH231285   6.127   0.351   0.050  0.3588 -0.0820  0.1050
 3217TIP3    H131286   6.045   0.304   0.033  0.8454 -0.5566 -0.9700
 3217TIP3    H231287   6.182   0.287   0.095  0.9301 -0.4835 -1.1356
 3218TIP3   OH231288   3.089   6.357   7.997  0.6649 -0.7868  0.7264
 3218TIP3    H131289   3.046   6.404   7.926  0.3163  0.3011  1.6113
 3218TIP3    H231290   3.046   6.271   7.999  0.6376 -0.8062 -0.3150
 3219TIP3   OH231291   3.352   1.886   8.168 -1.1012 -0.3602  0.0241
 3219TIP3    H131292   3.442   1.912   8.186 -0.3138 -2.4802 -0.5380
 3219TIP3    H231293   3.299   1.956   8.205  0.7749  1.4014 -0.4197
 3220TIP3   OH231294   2.945   3.341   6.963  0.3349  0.3176  0.1202
 3220TIP3    H131295   2.992   3.267   6.924 -0.6814 -0.0415 -0.4539
 3220TIP3    H231296   2.853   3.318   6.953 -0.0094  1.8386 -0.4010
 3221TIP3   OH231297   3.424   6.777   7.283  0.4042 -0.1162 -0.2719
 3221TIP3    H131298   3.361   6.848   7.293  1.2490  0.8415 -1.4757
 3221TIP3    H231299   3.457   6.786   7.194  0.1426 -2.3689 -0.6490
 3222TIP3   OH231300   2.068   5.464   0.116 -0.3112 -0.3568 -0.3282
 3222TIP3    H131301   2.154   5.458   0.076 -0.0038  1.2078  0.0550
 3222TIP3    H231302   2.046   5.557   0.115 -0.7845 -0.3639  2.0772
 3223TIP3   OH231303   1.066   3.956   7.723 -0.0175 -0.8505 -0.6568
 3223TIP3    H131304   1.090   3.988   7.809 -4.0545 -0.5203  0.5786
 3223TIP3    H231305   1.081   4.029   7.664  3.5350 -1.3222 -0.5705
 3224TIP3   OH231306   4.677   1.513   0.843  0.3894  0.1141 -0.2402
 3224TIP3    H131307   4.716   1.496   0.929  0.7851 -2.2934 -0.8030
 3224TIP3    H231308   4.753   1.520   0.785  0.1049 -0.9936 -0.7771
 3225TIP3   OH231309   3.610   1.422   7.657 -1.0183 -0.1867  0.5585
 3225TIP3    H131310   3.586   1.474   7.580  0.7189 -0.3132 -0.1086
 3225TIP3    H231311   3.561   1.462   7.729 -0.7772  1.5454 -0.1809
 3226TIP3   OH231312   3.060   2.416   0.494  0.2825 -0.4990 -0.1288
 3226TIP3    H131313   2.984   2.377   0.538 -0.3200 -0.6012 -1.2393
 3226TIP3    H231314   3.023   2.488   0.443  1.4522  2.1831  2.5213
 3227TIP3   OH231315   3.696   5.429   7.689 -0.0197 -0.0803 -0.1681
 3227TIP3    H131316   3.774   5.398   7.734  0.8669  0.4771 -1.2847
 3227TIP3    H231317   3.723   5.508   7.644 -1.7070  1.1562  0.8602
 3228TIP3   OH231318   3.804   6.353   7.700 -0.4887  0.4668 -0.0961
 3228TIP3    H131319   3.767   6.359   7.788  2.8472 -2.4942  1.7961
 3228TIP3    H231320   3.842   6.440   7.683  0.3577  0.6001  2.2231
 3229TIP3   OH231321   4.119   1.697   0.305  0.1586 -0.3496 -0.1015
 3229TIP3    H131322   4.179   1.697   0.380  1.7057 -0.0493 -1.2817
 3229TIP3    H231323   4.170   1.737   0.235 -0.5737 -2.2807 -1.8236
 3230TIP3   OH231324   1.131   6.273   6.982 -0.2084  0.3387  0.0176
 3230TIP3    H131325   1.183   6.202   6.943 -2.3707 -1.4811  0.2049
 3230TIP3    H231326   1.191   6.317   7.041  1.2278 -1.4164 -0.0335
 3231TIP3   OH231327   7.041   0.511   1.842 -0.0383  0.7232  0.1094
 3231TIP3    H131328   7.068   0.580   1.903 -2.4286 -1.0602  3.4798
 3231TIP3    H231329   7.116   0.452   1.837  2.4062  3.6688 -3.5236
 3232TIP3   OH231330   6.242   4.344   6.716  0.6627  0.4716  0.3039
 3232TIP3    H131331   6.331   4.362   6.685  1.1780 -1.5813  0.4746
 3232TIP3    H231332   6.189   4.345   6.637  1.2993 -0.8265 -0.1696
 3233TIP3   OH231333   7.023   5.892   6.827 -0.5970 -0.0266 -0.5872
 3233TIP3    H131334   6.931   5.884   6.850 -0.4202  3.4503  2.2356
 3233TIP3    H231335   7.024   5.948   6.750 -0.7871 -2.5495 -2.5681
 3234TIP3   OH231336   4.257   5.949   7.028 -0.4011 -0.3646  0.0205
 3234TIP3    H131337   4.321   5.893   6.984 -1.1854  0.2399 -2.0007
 3234TIP3    H231338   4.173   5.904   7.016 -0.6430 -0.1617  0.8904
 3235TIP3   OH231339   4.958   5.911   6.801 -0.6419  0.3377 -0.4776
 3235TIP3    H131340   4.987   5.883   6.888  1.3837  0.8456 -0.9591
 3235TIP3    H231341   4.951   6.006   6.807  0.5359  0.4803 -1.1447
 3236TIP3   OH231342   4.283   1.792   0.509  0.0278  0.3875  0.6768
 3236TIP3    H131343   4.374   1.766   0.497 -0.0200  0.1148  0.8925
 3236TIP3    H231344   4.277   1.819   0.600 -0.0509  0.6333  0.5979
 3237TIP3   OH231345   0.560   3.810   0.443  0.2614  0.1539  0.5040
 3237TIP3    H131346   0.509   3.749   0.389 -0.1244 -0.2036  1.2603
 3237TIP3    H231347   0.545   3.896   0.402  1.5355 -0.3369 -1.1159
 3238TIP3   OH231348   2.368   2.814   7.407 -0.4686 -0.4518  0.3238
 3238TIP3    H131349   2.337   2.889   7.356  1.7337 -0.6090 -1.3552
 3238TIP3    H231350   2.288   2.774   7.441 -1.7966  1.6698 -0.1264
 3239TIP3   OH231351   2.866   2.171   6.717  0.0454 -0.3616  0.5589
 3239TIP3    H131352   2.860   2.258   6.756 -0.8055 -0.2684  0.2428
 3239TIP3    H231353   2.858   2.111   6.792 -1.9286 -0.1897  0.5192
 3240TIP3   OH231354   0.238   6.954   7.734  0.3163 -0.4066  0.0513
 3240TIP3    H131355   0.334   6.955   7.731  0.4165  2.6875  0.8195
 3240TIP3    H231356   0.217   6.892   7.804  1.7826 -0.5717  0.3887
 3241TIP3   OH231357   3.604   1.465   0.002 -0.1629 -0.1460 -0.6688
 3241TIP3    H131358   3.663   1.506  -0.060 -0.6254 -0.0798 -1.0730
 3241TIP3    H231359   3.593   1.530   0.072  2.5016 -1.2267  0.9303
 3242TIP3   OH231360   3.765   4.336   7.037 -0.0014  0.4046  0.5735
 3242TIP3    H131361   3.774   4.425   7.072  0.4991  0.4179  0.4155
 3242TIP3    H231362   3.834   4.329   6.971  1.0800 -0.6666  1.7470
 3243TIP3   OH231363   0.900   6.891   0.099 -0.0306 -0.2969 -0.1883
 3243TIP3    H131364   0.905   6.925   0.010 -1.3989 -1.7938 -0.8942
 3243TIP3    H231365   0.866   6.964   0.151  0.2533  0.4278 -1.0073
 3244TIP3   OH231366   1.618   3.005   1.099  0.1861 -0.1859 -0.6490
 3244TIP3    H131367   1.531   3.004   1.059 -0.5189  2.4207  0.6106
 3244TIP3    H231368   1.637   3.098   1.112  3.2797 -0.6506 -1.0433
 3245TIP3   OH231369   3.604   1.148   0.168 -0.8364 -0.1994  0.2346
 3245TIP3    H131370   3.652   1.222   0.204 -0.6677 -0.9013  1.4969
 3245TIP3    H231371   3.512   1.168   0.186 -0.8319 -0.0412  0.0835
 3246TIP3   OH231372   6.796   5.060   6.804 -0.1147 -0.2490  0.2562
 3246TIP3    H131373   6.794   5.154   6.783  0.1764 -0.2108  0.3914
 3246TIP3    H231374   6.743   5.019   6.735  1.1011 -0.1716 -0.7529
 3247TIP3   OH231375   5.772   6.986   7.968 -0.0049  0.3937 -0.1691
 3247TIP3    H131376   5.851   6.987   8.022  0.8058  0.7698 -1.3063
 3247TIP3    H231377   5.706   6.942   8.022  0.6981  0.9269  1.1773
 3248TIP3   OH231378   4.730   2.077   7.218 -0.0454  0.6092  0.2822
 3248TIP3    H131379   4.777   2.059   7.136 -0.3221  0.2108  0.2123
 3248TIP3    H231380   4.789   2.047   7.286  0.0100  0.5624  0.2140
 3249TIP3   OH231381   6.480   0.528   6.795  0.4241  0.2710 -0.0096
 3249TIP3    H131382   6.470   0.484   6.879  0.4499 -1.2915 -0.7863
 3249TIP3    H231383   6.410   0.492   6.741 -0.0874  1.8442 -0.4485
 3250TIP3   OH231384   2.954   2.147   7.379 -0.0446 -0.0788  0.2103
 3250TIP3    H131385   2.954   2.230   7.428 -3.3662 -0.0665  0.3812
 3250TIP3    H231386   2.952   2.080   7.447  0.6184 -0.2733  0.0496
 3251TIP3   OH231387   0.305   6.879   0.097  0.6182  0.2989  0.4424
 3251TIP3    H131388   0.285   6.965   0.133 -1.1851 -0.1307  0.5627
 3251TIP3    H231389   0.272   6.882   0.008  2.0445  0.2527 -0.1090
 3252TIP3   OH231390   6.856   0.397   6.226  0.2201 -0.4275  0.1755
 3252TIP3    H131391   6.928   0.407   6.163  0.5172  0.1637  0.5991
 3252TIP3    H231392   6.807   0.478   6.219 -0.5480 -0.9182 -0.2684
 3253TIP3   OH231393   1.277   6.974   8.077 -0.3599 -0.0994 -0.4403
 3253TIP3    H131394   1.278   6.910   8.005  3.5971  0.0759 -0.7555
 3253TIP3    H231395   1.292   7.058   8.035  1.7007  0.0452  0.4926
 3254TIP3   OH231396   3.785   3.944   6.500 -0.3193 -0.2137  0.1091
 3254TIP3    H131397   3.873   3.966   6.530  0.3176 -3.7507  1.3516
 3254TIP3    H231398   3.735   3.931   6.580 -2.1412  1.9914 -0.5751
 3255TIP3   OH231399   4.631   6.635   0.513 -0.4477 -0.1231 -0.5037
 3255TIP3    H131400   4.694   6.595   0.452 -0.6602 -0.1470 -0.7085
 3255TIP3    H231401   4.651   6.728   0.509  0.3877 -0.2529  0.3606
 3256TIP3   OH231402   4.506   3.257   6.851 -0.2017  0.1996  0.0762
 3256TIP3    H131403   4.411   3.253   6.840 -0.1040 -1.0659 -0.4348
 3256TIP3    H231404   4.523   3.207   6.931  0.0556  0.2501  0.0539
 3257TIP3   OH231405   2.534   4.598   7.357 -0.4588 -0.1728 -0.8439
 3257TIP3    H131406   2.534   4.614   7.452 -2.9138  0.8499 -0.9711
 3257TIP3    H231407   2.615   4.639   7.326  1.2692 -1.9512  0.9498
 3258TIP3   OH231408   2.484   0.312   1.945  0.3221  0.0322  0.3528
 3258TIP3    H131409   2.516   0.401   1.953  1.4568 -0.4061  0.9693
 3258TIP3    H231410   2.424   0.314   1.871 -1.2943  1.7451  1.6263
 3259TIP3   OH231411   4.306   4.541   7.338  0.4152  0.1609  0.2265
 3259TIP3    H131412   4.311   4.445   7.332  1.3261  0.2229 -0.1744
 3259TIP3    H231413   4.316   4.560   7.431  2.6212 -0.0301  0.0628
 3260TIP3   OH231414   0.366   2.452   7.725 -0.2005  0.1920 -0.5518
 3260TIP3    H131415   0.450   2.495   7.710 -0.8889  2.0554  0.4808
 3260TIP3    H231416   0.376   2.407   7.809 -0.3280  0.7195 -0.2492
 3261TIP3   OH231417   2.752   2.701   0.899 -0.0962  0.2716  0.0637
 3261TIP3    H131418   2.750   2.670   0.808 -0.4177 -1.2292  0.5490
 3261TIP3    H231419   2.767   2.795   0.892  1.3545 -0.0265 -1.4994
 3262TIP3   OH231420   0.526   3.465   7.601  0.2250  0.0728  0.2435
 3262TIP3    H131421   0.542   3.552   7.564 -0.8945  0.2070  0.0586
 3262TIP3    H231422   0.464   3.481   7.672  0.0152 -0.5763  0.2082
 3263TIP3   OH231423   4.371   0.992   6.514 -0.2124  0.2867  0.8294
 3263TIP3    H131424   4.282   0.965   6.538 -1.2293  0.6033 -2.2027
 3263TIP3    H231425   4.411   0.913   6.480 -0.5080  0.8187 -0.8356
 3264TIP3   OH231426   1.315   6.328   8.250 -0.2998 -0.3756  0.0003
 3264TIP3    H131427   1.325   6.348   8.343 -2.5357 -0.6015  0.3517
 3264TIP3    H231428   1.246   6.388   8.221  1.3207  0.6696 -1.8801
 3265TIP3   OH231429   2.218   4.709   0.480 -0.2843  0.3903 -0.3722
 3265TIP3    H131430   2.304   4.679   0.449 -1.0218 -1.7953 -0.4377
 3265TIP3    H231431   2.207   4.666   0.565 -2.9181 -2.6511 -2.0560
 3266TIP3   OH231432   1.422   5.412   0.338  0.0559 -0.3107  0.3872
 3266TIP3    H131433   1.346   5.394   0.392  0.3918 -2.7531  0.1380
 3266TIP3    H231434   1.423   5.508   0.330 -3.4038 -0.1906 -0.2222
 3267TIP3   OH231435   4.277   5.823   2.075  0.4339 -0.1546  0.4282
 3267TIP3    H131436   4.185   5.849   2.085  0.4311  0.6583 -1.3545
 3267TIP3    H231437   4.274   5.745   2.020  0.8819  1.3523 -1.8608
 3268TIP3   OH231438   0.995   2.894   0.641  0.3019  0.4897 -0.5455
 3268TIP3    H131439   1.071   2.952   0.650  0.5734  0.0443  0.0701
 3268TIP3    H231440   1.027   2.807   0.665 -0.1531  0.1076 -1.2754
 3269TIP3   OH231441   3.031   1.234   7.871 -0.3506  0.2406  0.2272
 3269TIP3    H131442   3.047   1.302   7.937 -2.5517 -0.3667  1.4991
 3269TIP3    H231443   2.993   1.162   7.920  0.5288 -1.3564 -1.3371
 3270TIP3   OH231444   3.284   5.556   7.325  0.0507 -0.1859 -0.4263
 3270TIP3    H131445   3.361   5.541   7.380 -2.4633  0.9961  3.8743
 3270TIP3    H231446   3.239   5.472   7.323  0.0104 -0.1636 -0.4602
 3271TIP3   OH231447   3.728   2.016   7.373 -0.3035 -0.9915  0.3902
 3271TIP3    H131448   3.674   2.032   7.295  0.4159 -1.1081 -0.1446
 3271TIP3    H231449   3.814   1.996   7.338  0.9280  2.1677  1.2763
 3272TIP3   OH231450   1.336   0.965   1.626 -0.0872  0.0141 -0.1856
 3272TIP3    H131451   1.364   0.979   1.717  1.7147  0.7595 -0.8201
 3272TIP3    H231452   1.396   0.899   1.592 -0.7766 -0.2851 -0.8404
 3273TIP3   OH231453   3.377   3.421   2.005 -0.7981  0.2586 -0.7676
 3273TIP3    H131454   3.420   3.483   2.064 -1.5389 -1.0707  1.3082
 3273TIP3    H231455   3.286   3.450   2.002 -0.5584  0.9219 -2.1492
 3274TIP3   OH231456   5.214   4.441   0.274  0.1910 -0.7564  0.2909
 3274TIP3    H131457   5.294   4.476   0.235  0.2306 -0.5811  0.5263
 3274TIP3    H231458   5.232   4.347   0.286  0.5104 -0.6410  0.7171
 3275TIP3   OH231459   3.780   2.666   0.059 -0.0913  0.2423 -0.2181
 3275TIP3    H131460   3.733   2.741   0.023  0.8523  0.5079 -0.9366
 3275TIP3    H231461   3.802   2.612  -0.017  0.8095  0.1589  0.0821
 3276TIP3   OH231462   2.481   3.966   0.503 -0.2946 -0.0365 -0.0094
 3276TIP3    H131463   2.477   3.882   0.550 -0.3832  0.2856  0.5758
 3276TIP3    H231464   2.527   3.946   0.422  2.7260 -0.0543  1.5208
 3277TIP3   OH231465   3.620   5.207   2.049 -0.4591  0.1014  0.8883
 3277TIP3    H131466   3.672   5.287   2.059  0.4432 -0.5528  1.5954
 3277TIP3    H231467   3.530   5.235   2.064 -0.2825  1.1827  0.0291
 3278TIP3   OH231468   1.049   4.945   1.719 -0.0222  0.1470 -0.3039
 3278TIP3    H131469   1.000   4.891   1.657 -1.2317 -1.6311  2.0506
 3278TIP3    H231470   0.993   4.950   1.796  1.8374  1.3814  1.0551
 3279TIP3   OH231471   3.520   3.720   8.228  0.1177  0.3205  0.6712
 3279TIP3    H131472   3.563   3.751   8.148  1.8252 -1.4617  0.8172
 3279TIP3    H231473   3.446   3.669   8.197  0.1202  0.5549  0.2733
 3280TIP3   OH231474   1.776   2.127   1.357 -0.1625  0.0833  0.4138
 3280TIP3    H131475   1.719   2.051   1.363  0.4423 -0.4187 -0.1084
 3280TIP3    H231476   1.786   2.157   1.447 -3.0165  1.5317  0.3755
 3281TIP3   OH231477   1.425   3.962   0.826  0.3789  0.2875 -0.1391
 3281TIP3    H131478   1.484   3.893   0.856  2.1198  1.7499 -0.0009
 3281TIP3    H231479   1.463   3.991   0.743 -0.1545  1.2613 -0.0538
 3282TIP3   OH231480   4.553   1.532   6.237  0.0578  0.3664  0.4174
 3282TIP3    H131481   4.630   1.580   6.205  0.4505 -1.3570 -1.4668
 3282TIP3    H231482   4.518   1.489   6.159 -1.3306 -0.9356  1.6958
 3283TIP3   OH231483   3.073   2.197   0.327 -0.1325 -0.2958  0.5144
 3283TIP3    H131484   2.993   2.224   0.283  1.1061  0.2849 -1.4900
 3283TIP3    H231485   3.097   2.272   0.382 -1.2322 -0.7080  1.6207
 3284TIP3   OH231486   6.054   3.306   8.197  0.1355  1.1618  0.0466
 3284TIP3    H131487   6.057   3.299   8.102 -0.8848  1.8791 -0.0578
 3284TIP3    H231488   6.101   3.228   8.229  2.1071  1.8365 -1.0197
 3285TIP3   OH231489   6.389   5.945   8.017 -0.3896 -0.3663  0.1244
 3285TIP3    H131490   6.445   5.891   7.961  1.0104  1.0081  0.1174
 3285TIP3    H231491   6.308   5.955   7.968  0.2536 -0.4408 -0.9964
 3286TIP3   OH231492   3.376   1.254   0.302  0.2508  0.5199  0.2171
 3286TIP3    H131493   3.307   1.313   0.334  2.7279  1.5161  4.5090
 3286TIP3    H231494   3.346   1.167   0.327 -0.3700  0.6928  0.1049
 3287TIP3   OH231495   0.695   3.494   7.161  0.0310 -0.6763  1.4401
 3287TIP3    H131496   0.729   3.410   7.190 -1.5890 -1.0376  2.3755
 3287TIP3    H231497   0.759   3.558   7.193  0.8129 -1.4673  1.4866
 3288TIP3   OH231498   5.453   0.653   7.302  0.8182  0.4808 -0.1017
 3288TIP3    H131499   5.471   0.728   7.359  1.8699  0.8779 -0.9354
 3288TIP3    H231500   5.521   0.656   7.235  2.1624 -2.4142  0.9779
 3289TIP3   OH231501   5.172   3.274   6.663  0.1908 -0.1377  0.0921
 3289TIP3    H131502   5.209   3.299   6.748  0.8050 -0.8712  0.0504
 3289TIP3    H231503   5.115   3.200   6.683  0.3422 -0.3156 -0.1363
 3290TIP3   OH231504   6.971   4.226   0.734 -0.3744 -0.2044  0.3714
 3290TIP3    H131505   7.008   4.165   0.798  1.1126 -0.4871 -0.7022
 3290TIP3    H231506   6.962   4.308   0.783  0.0674 -0.5888  1.1264
 3291TIP3   OH231507   6.387   6.948   7.745 -0.0747 -0.5682 -0.4262
 3291TIP3    H131508   6.434   6.891   7.684  0.1500 -0.4817 -0.3345
 3291TIP3    H231509   6.398   6.907   7.830 -0.4871 -0.7509 -0.4577
 3292TIP3   OH231510   1.330   3.524   0.251  0.0844 -0.2896 -0.2230
 3292TIP3    H131511   1.322   3.571   0.168  0.3586 -0.3243 -0.2719
 3292TIP3    H231512   1.406   3.467   0.238  0.5418  0.1941  0.2895
 3293TIP3   OH231513   1.146   5.247   0.247  0.2448  0.5106  0.7860
 3293TIP3    H131514   1.166   5.283   0.333 -0.4150  2.3302  0.2403
 3293TIP3    H231515   1.114   5.322   0.197 -0.2719 -0.6831 -0.7635
 3294TIP3   OH231516   3.486   2.142   0.795 -0.2922 -0.5785 -0.1570
 3294TIP3    H131517   3.485   2.063   0.740  1.4684  0.0992 -1.2568
 3294TIP3    H231518   3.554   2.123   0.860 -0.2402 -0.1898 -0.1002
 3295TIP3   OH231519   5.769   0.406   2.426 -0.1689 -0.2651 -0.0905
 3295TIP3    H131520   5.741   0.478   2.369 -0.7840  0.6251  1.3028
 3295TIP3    H231521   5.688   0.361   2.450 -0.0899  0.2809  1.2688
 3296TIP3   OH231522   0.484   2.269   6.337 -0.4746  0.1724  0.6082
 3296TIP3    H131523   0.399   2.287   6.297 -0.7576 -0.5137  0.8852
 3296TIP3    H231524   0.526   2.355   6.344  0.0569  0.2108 -2.1668
 3297TIP3   OH231525   0.561   7.064   1.015 -0.6777 -0.2491 -0.3876
 3297TIP3    H131526   0.472   7.097   1.024 -1.3233 -0.6031 -3.8568
 3297TIP3    H231527   0.578   7.068   0.921  2.0990 -2.4671 -0.1169
 3298TIP3   OH231528   3.106   1.217   7.423 -0.3741 -0.0854 -0.2755
 3298TIP3    H131529   3.190   1.179   7.398 -0.1072  0.6547 -0.5080
 3298TIP3    H231530   3.080   1.169   7.502  1.6365  1.5927  1.5024
 3299TIP3   OH231531   0.901   6.092   0.998 -0.9336  0.4462  0.8729
 3299TIP3    H131532   0.990   6.121   0.980 -0.6571 -0.9564 -0.1511
 3299TIP3    H231533   0.850   6.122   0.923 -1.3178  1.1438  1.4008
 3300TIP3   OH231534   4.697   1.819   7.930  0.1042  0.8355  0.4422
 3300TIP3    H131535   4.741   1.900   7.902  1.0299  0.9020  1.9707
 3300TIP3    H231536   4.727   1.806   8.020 -0.4913 -0.9113  0.4128
 3301TIP3   OH231537   5.291   2.616   7.043 -0.5938 -0.0874 -0.1148
 3301TIP3    H131538   5.307   2.548   7.108  0.1919  0.0872 -0.1100
 3301TIP3    H231539   5.349   2.595   6.970 -0.1553  0.7005 -0.0121
 3302TIP3   OH231540   6.898   6.879   2.352 -0.1041 -0.1599  0.2970
 3302TIP3    H131541   6.992   6.866   2.364  0.2445  1.2927 -0.5752
 3302TIP3    H231542   6.874   6.944   2.418 -0.4319 -0.2944  0.3100
 3303TIP3   OH231543   0.945   3.218   1.403 -0.5074 -0.1759 -0.6109
 3303TIP3    H131544   0.970   3.284   1.468 -0.1118 -0.5982 -0.3231
 3303TIP3    H231545   0.864   3.251   1.365 -0.8373  0.0037  0.2159
 3304TIP3   OH231546   5.085   7.056   6.901 -0.4717  0.0364  0.9529
 3304TIP3    H131547   5.098   7.035   6.994  0.0381 -0.3963  0.7870
 3304TIP3    H231548   5.147   7.128   6.885  0.5908 -0.9357  0.5675
 3305TIP3   OH231549   3.378   3.593   0.729  0.3411 -0.4986  0.2266
 3305TIP3    H131550   3.289   3.599   0.764  1.5038  0.7345  3.2242
 3305TIP3    H231551   3.402   3.501   0.740 -0.3051 -0.6956  0.0355
 3306TIP3   OH231552   6.478   3.261   8.020 -0.8267 -0.4103 -0.2197
 3306TIP3    H131553   6.522   3.343   8.044  0.6027 -1.4164  0.8051
 3306TIP3    H231554   6.509   3.198   8.085 -1.9924 -1.7458 -0.9092
 3307TIP3   OH231555   3.495   2.407   2.105  0.6839 -0.8066  0.0029
 3307TIP3    H131556   3.574   2.418   2.053  2.2039  0.3197  2.3642
 3307TIP3    H231557   3.429   2.460   2.059  1.3264 -1.5398 -1.8510
 3308TIP3   OH231558   5.174   1.722   7.411  0.2223 -0.2069 -1.1390
 3308TIP3    H131559   5.182   1.770   7.494 -0.0124  0.4160 -1.4735
 3308TIP3    H231560   5.146   1.634   7.437 -1.6173  0.4730 -0.6589
 3309TIP3   OH231561   0.952   6.423   6.855 -0.1103  0.1201  0.7935
 3309TIP3    H131562   0.964   6.511   6.820  1.6567 -0.0937  0.7724
 3309TIP3    H231563   1.033   6.404   6.902  0.6789 -2.4406 -1.3319
 3310TIP3   OH231564   5.841   0.288   0.898 -0.0464 -0.7948  0.5974
 3310TIP3    H131565   5.774   0.351   0.873  1.2852  0.3532 -0.2353
 3310TIP3    H231566   5.840   0.287   0.993  0.5816  1.3051  0.6797
 3311TIP3   OH231567   1.499   0.112   1.611  0.1993 -0.5859  0.1240
 3311TIP3    H131568   1.454   0.038   1.652  0.4067 -0.9879 -0.3736
 3311TIP3    H231569   1.496   0.093   1.517  0.5878 -0.1491  0.0208
 3312TIP3   OH231570   3.396   3.130   7.431 -0.3044  0.3100 -0.2982
 3312TIP3    H131571   3.354   3.116   7.347  0.0282  0.0667 -0.4262
 3312TIP3    H231572   3.349   3.072   7.491  0.1263 -0.2835 -0.5293
 3313TIP3   OH231573   1.443   2.997   8.093 -0.1920 -0.1341 -0.3653
 3313TIP3    H131574   1.420   2.982   8.185 -0.2186  0.5872 -0.2465
 3313TIP3    H231575   1.448   2.910   8.055  0.6551 -0.4970  0.5282
 3314TIP3   OH231576   6.528   2.427   1.620 -0.0239 -0.0432  0.4475
 3314TIP3    H131577   6.439   2.453   1.645 -0.4878 -0.1749 -0.9388
 3314TIP3    H231578   6.555   2.364   1.687 -0.8591  0.2239  1.0495
 3315TIP3   OH231579   0.455   4.833   6.968 -0.5174 -0.7877  0.5389
 3315TIP3    H131580   0.476   4.863   6.879  0.9531 -3.7450 -0.2595
 3315TIP3    H231581   0.363   4.857   6.980 -0.2010  1.5556 -0.8993
 3316TIP3   OH231582   4.221   6.882   7.210  0.1810 -0.1154  0.3730
 3316TIP3    H131583   4.257   6.801   7.247  0.9343 -0.0274 -0.1417
 3316TIP3    H231584   4.139   6.856   7.169  0.8513 -0.7896 -0.5652
 3317TIP3   OH231585   2.112   0.721   0.301  0.3923  0.5863  0.2812
 3317TIP3    H131586   2.022   0.688   0.309 -0.2636  1.8875 -1.0106
 3317TIP3    H231587   2.156   0.691   0.381 -0.3507 -2.4743 -0.3310
 3318TIP3   OH231588   1.197   3.811   7.204  0.3659  0.5170  0.3316
 3318TIP3    H131589   1.108   3.811   7.239  0.4423 -2.0559  0.6645
 3318TIP3    H231590   1.216   3.719   7.185  3.2723  0.8510  1.1155
 3319TIP3   OH231591   5.181   0.450   1.399 -0.0011 -0.1592 -0.1459
 3319TIP3    H131592   5.239   0.512   1.443  0.8270 -0.9233 -0.1073
 3319TIP3    H231593   5.093   0.478   1.422  0.3910 -0.0201  1.2817
 3320TIP3   OH231594   2.815   6.613   6.721 -0.4096 -0.2615 -0.1226
 3320TIP3    H131595   2.754   6.643   6.655 -0.1246  1.0336  0.1838
 3320TIP3    H231596   2.873   6.687   6.736  1.0465 -1.3381 -0.1749
 3321TIP3   OH231597   4.323   2.941   7.842 -0.0812 -0.9910  0.0700
 3321TIP3    H131598   4.237   2.976   7.865 -0.7961 -1.4785 -1.6519
 3321TIP3    H231599   4.370   3.017   7.807  0.4214 -0.6018  1.5343
 3322TIP3   OH231600   1.983   2.312   1.230 -0.5692 -0.2885 -0.9840
 3322TIP3    H131601   1.975   2.376   1.301 -0.0292 -0.5827 -0.6510
 3322TIP3    H231602   1.938   2.235   1.262  2.2129 -1.5084  0.3724
 3323TIP3   OH231603   5.751   5.812   0.960 -0.0594 -0.4309 -0.2152
 3323TIP3    H131604   5.802   5.821   1.041 -1.4842  2.9790  0.4475
 3323TIP3    H231605   5.816   5.823   0.890  0.5097  1.8799  0.5814
 3324TIP3   OH231606   2.641   0.694   6.549  0.2642 -0.3930 -0.0401
 3324TIP3    H131607   2.605   0.771   6.505 -1.2784 -1.0486  0.0275
 3324TIP3    H231608   2.637   0.716   6.642 -0.8327 -0.8049  0.0220
 3325TIP3   OH231609   4.408   1.965   7.142  0.2869  0.3835  0.5645
 3325TIP3    H131610   4.369   1.888   7.098 -0.3336  2.5109 -3.0333
 3325TIP3    H231611   4.502   1.947   7.142  0.0294 -1.2923  1.9225
 3326TIP3   OH231612   2.030   3.156   7.547  0.3225 -0.4089 -0.4104
 3326TIP3    H131613   1.958   3.213   7.574  0.5307  1.5764 -3.5785
 3326TIP3    H231614   2.109   3.206   7.569  0.5812 -0.5584 -0.9890
 3327TIP3   OH231615   1.085   1.228   7.625  0.1393  0.3407  0.1138
 3327TIP3    H131616   1.129   1.282   7.691  0.1928 -0.1479  0.4919
 3327TIP3    H231617   1.154   1.205   7.563 -0.0689  1.4063 -0.5222
 3328TIP3   OH231618   1.234   3.074   6.349 -0.1791  0.2171 -0.1343
 3328TIP3    H131619   1.242   3.004   6.284  1.1653  0.8331 -0.6724
 3328TIP3    H231620   1.146   3.109   6.337 -0.2724 -0.2891 -0.9952
 3329TIP3   OH231621   0.037   1.055   7.314 -0.0668  0.3571 -0.5368
 3329TIP3    H131622  -0.055   1.033   7.330  0.2958 -1.3338 -0.5691
 3329TIP3    H231623   0.056   1.016   7.229  1.4959 -2.2470  0.8707
 3330TIP3   OH231624   5.229   1.998   7.830  0.5388 -0.2288  0.3940
 3330TIP3    H131625   5.165   2.069   7.839  1.3349  0.4229  1.0889
 3330TIP3    H231626   5.204   1.954   7.749  0.1033  0.9314 -0.1288
 3331TIP3   OH231627   1.819   4.060   1.717 -0.0796 -0.3523  0.5884
 3331TIP3    H131628   1.800   4.145   1.677  0.1910 -1.3094 -1.7287
 3331TIP3    H231629   1.799   4.072   1.810 -0.6627  2.0354  0.2167
 3332TIP3   OH231630   2.481   6.823   0.064 -0.1198 -0.2112  0.7154
 3332TIP3    H131631   2.566   6.822   0.109  0.6574 -1.2646 -0.6855
 3332TIP3    H231632   2.448   6.912   0.078  1.5391  0.4425  0.7310
 3333TIP3   OH231633   6.010   0.206   2.337 -0.6336  0.6817 -0.3478
 3333TIP3    H131634   5.984   0.293   2.305 -0.2497  1.4022  1.1670
 3333TIP3    H231635   5.933   0.175   2.384  0.0935  1.4276  1.4266
 3334TIP3   OH231636   0.926   3.891   7.426  0.2408  0.3058  0.7617
 3334TIP3    H131637   0.908   3.884   7.520 -0.4819 -0.1331  0.6016
 3334TIP3    H231638   0.958   3.980   7.413  0.7221  0.2432  1.4801
 3335TIP3   OH231639   4.403   2.149   0.631  0.3065  0.4647  0.4846
 3335TIP3    H131640   4.316   2.126   0.601 -0.3070  0.2421  2.2858
 3335TIP3    H231641   4.455   2.069   0.621  0.2823  0.5623 -0.4699
 3336TIP3   OH231642   0.034   1.739   0.693 -0.3203  0.1521  0.6814
 3336TIP3    H131643  -0.052   1.751   0.734 -0.4027 -0.4560  0.6864
 3336TIP3    H231644   0.077   1.824   0.703 -1.2559  0.7292 -0.1062
 3337TIP3   OH231645   2.827   5.610   7.722 -0.0958  0.2719 -0.0773
 3337TIP3    H131646   2.847   5.697   7.755  1.2450 -0.2459  0.5544
 3337TIP3    H231647   2.913   5.573   7.698 -0.7925 -0.2081 -2.0419
 3338TIP3   OH231648   0.501   6.228   1.659  0.0460 -1.5001  0.0539
 3338TIP3    H131649   0.489   6.321   1.643 -1.6100 -1.0287  3.2377
 3338TIP3    H231650   0.596   6.216   1.667  0.3306 -0.3063 -1.1959
 3339TIP3   OH231651   6.950   1.513   2.202  0.4887 -0.1598 -0.0744
 3339TIP3    H131652   7.041   1.543   2.199  0.2319  0.7287 -3.4370
 3339TIP3    H231653   6.899   1.592   2.219  0.2682 -0.6043  1.4983
 3340TIP3   OH231654   7.006   0.701   2.033  0.2092  0.2737  0.2361
 3340TIP3    H131655   7.023   0.650   2.113  1.5519  0.2206 -0.0614
 3340TIP3    H231656   6.933   0.758   2.057 -0.9719 -1.3592  0.7642
 3341TIP3   OH231657   3.718   6.546   1.324 -0.3258  0.2347 -0.4824
 3341TIP3    H131658   3.666   6.465   1.318 -1.0027  0.6693 -0.5522
 3341TIP3    H231659   3.764   6.550   1.240  0.8758 -0.8378  0.0818
 3342TIP3   OH231660   4.832   5.992   0.447 -0.0679 -0.3642  0.0423
 3342TIP3    H131661   4.916   6.012   0.406 -0.4990  3.1807  0.6234
 3342TIP3    H231662   4.773   5.977   0.374  0.3620  0.5122 -0.5027
 3343TIP3   OH231663   2.418   0.186   7.734 -0.7156 -0.1407  0.1715
 3343TIP3    H131664   2.394   0.216   7.822 -1.0476 -1.3599  0.5139
 3343TIP3    H231665   2.367   0.242   7.675 -2.6925 -1.1357  0.8414
 3344TIP3   OH231666   1.912   4.364   0.613 -0.5186 -0.0876 -0.3560
 3344TIP3    H131667   1.882   4.322   0.694 -2.2040 -0.1204 -0.9446
 3344TIP3    H231668   1.963   4.296   0.568 -0.4989 -0.4322  0.1836
 3345TIP3   OH231669   2.564   1.974   1.406 -0.3349 -0.1211  0.5045
 3345TIP3    H131670   2.512   1.961   1.327 -1.1331 -0.7808  1.1136
 3345TIP3    H231671   2.581   2.068   1.409 -2.7545  0.3582  1.0275
 3346TIP3   OH231672   5.955   0.559   8.000 -0.0400 -0.5491 -0.1060
 3346TIP3    H131673   5.920   0.563   7.911 -0.7875 -0.5143  0.1870
 3346TIP3    H231674   5.911   0.484   8.040 -0.9355  0.4089  0.7481
 3347TIP3   OH231675   5.390   1.501   1.655 -0.2202 -0.0168 -0.1881
 3347TIP3    H131676   5.371   1.553   1.733 -1.7616 -1.5195  0.4896
 3347TIP3    H231677   5.330   1.534   1.589  0.7304  0.9038 -0.6284
 3348TIP3   OH231678   5.308   1.603   0.310 -0.0220 -0.3419  0.4474
 3348TIP3    H131679   5.396   1.638   0.323  0.1134 -0.4855 -0.0605
 3348TIP3    H231680   5.321   1.525   0.256 -0.6433  0.8354 -1.4934
 3349TIP3   OH231681   2.838   5.843   0.670  0.0829 -0.0290  0.3753
 3349TIP3    H131682   2.745   5.847   0.693  0.1340  1.9529  0.4577
 3349TIP3    H231683   2.875   5.778   0.729 -1.4279 -1.7413 -0.4459
 3350TIP3   OH231684   3.753   2.479   0.497  0.5067  0.3150  0.6379
 3350TIP3    H131685   3.681   2.487   0.435 -0.4586 -1.6229  1.4422
 3350TIP3    H231686   3.825   2.526   0.456 -1.4167  3.1759  0.2250
 3351TIP3   OH231687   5.878   6.225   7.443  0.2313  0.5029  0.2784
 3351TIP3    H131688   5.964   6.196   7.474  0.5448 -0.6409 -1.5152
 3351TIP3    H231689   5.892   6.317   7.418  0.7344  0.5405  0.6682
 3352TIP3   OH231690   3.034   4.172   8.269 -0.4496  0.7493 -0.3603
 3352TIP3    H131691   2.973   4.098   8.262  0.4091  0.0992 -1.2019
 3352TIP3    H231692   2.997   4.226   8.339 -1.2212 -0.3639  0.1376
 3353TIP3   OH231693   6.272   3.852   5.921 -1.0137 -0.2078  0.3511
 3353TIP3    H131694   6.209   3.869   5.850 -0.4998 -1.3164 -0.3871
 3353TIP3    H231695   6.312   3.938   5.938 -1.1585  0.0798 -0.6819
 3354TIP3   OH231696   2.606   5.627   0.649 -1.2451  1.1548 -0.1158
 3354TIP3    H131697   2.618   5.652   0.557  1.9935  1.6698  0.3242
 3354TIP3    H231698   2.689   5.588   0.674 -1.6297  2.0357  2.9094
 3355TIP3   OH231699   4.503   5.841   6.243  0.1718 -0.1202  0.1381
 3355TIP3    H131700   4.488   5.924   6.198  0.0554 -0.6434 -0.8216
 3355TIP3    H231701   4.422   5.826   6.292  0.0480  0.1608  0.0214
 3356TIP3   OH231702   6.424   0.904   1.033 -0.1566  0.2753 -0.2767
 3356TIP3    H131703   6.467   0.989   1.027 -0.5678  0.7239  2.1506
 3356TIP3    H231704   6.351   0.909   0.971  0.3077  1.3666 -0.7527
 3357TIP3   OH231705   4.048   5.930   7.663  0.3015 -0.2967 -0.5619
 3357TIP3    H131706   4.045   6.013   7.710 -0.2123 -0.3519 -0.4914
 3357TIP3    H231707   4.013   5.951   7.576 -1.6092 -0.8085  0.0324
 3358TIP3   OH231708   2.023   6.990   1.267  0.2211  0.1949 -0.0105
 3358TIP3    H131709   2.107   6.971   1.309 -0.4038 -1.2281  0.6777
 3358TIP3    H231710   1.958   6.944   1.321 -1.2525  2.7998  0.5872
 3359TIP3   OH231711   6.142   2.255   2.061  0.3928  0.3628  0.1036
 3359TIP3    H131712   6.072   2.305   2.103  0.2683  0.2119  0.0785
 3359TIP3    H231713   6.216   2.262   2.121 -0.0744 -0.6377  0.8194
 3360TIP3   OH231714   5.513   6.877   0.321 -0.2024  0.5093 -0.6881
 3360TIP3    H131715   5.587   6.890   0.262 -0.1664 -1.6307 -1.2037
 3360TIP3    H231716   5.436   6.895   0.267 -0.1312 -0.4898 -1.1595
 3361TIP3   OH231717   2.719   5.581   0.155  0.5272 -0.2821 -0.0193
 3361TIP3    H131718   2.783   5.621   0.096 -0.0613 -0.1257 -0.5660
 3361TIP3    H231719   2.636   5.589   0.108 -0.2411  1.2725  1.4800
 3362TIP3   OH231720   1.949   3.480   0.515 -1.0399 -0.4588  0.0467
 3362TIP3    H131721   1.957   3.487   0.420  1.6743  0.9660  0.2803
 3362TIP3    H231722   1.868   3.526   0.535 -1.2663 -0.1077 -1.5131
 3363TIP3   OH231723   2.504   0.490   2.217  0.0520 -0.1778 -0.0673
 3363TIP3    H131724   2.542   0.402   2.220  0.2051 -0.1107  0.0110
 3363TIP3    H231725   2.440   0.490   2.289 -0.5138 -0.4769 -0.5666
 3364TIP3   OH231726   6.567   3.860   7.154  0.7599 -0.0196 -0.7204
 3364TIP3    H131727   6.475   3.887   7.150  1.2743  2.6893  2.3151
 3364TIP3    H231728   6.606   3.899   7.076 -0.1680  1.1248 -0.6398
 3365TIP3   OH231729   5.790   2.114   7.682 -0.4377  0.5532  0.0700
 3365TIP3    H131730   5.798   2.061   7.762 -0.4223  0.1909 -0.1663
 3365TIP3    H231731   5.740   2.058   7.622  1.7696 -0.2967 -1.1097
 3366TIP3   OH231732   5.762   4.583   0.615  0.4525  0.7689 -0.7319
 3366TIP3    H131733   5.815   4.511   0.581  0.3631 -0.4246  1.4376
 3366TIP3    H231734   5.705   4.607   0.543  1.1097 -0.7395 -1.8101
 3367TIP3   OH231735   6.760   4.093   7.954 -0.3942 -0.3502  0.0519
 3367TIP3    H131736   6.666   4.080   7.938 -1.1591  2.7676  1.2274
 3367TIP3    H231737   6.771   4.073   8.047 -0.3286  1.1071  0.3736
 3368TIP3   OH231738   6.706   0.737   7.631  0.4775 -0.1837  0.0528
 3368TIP3    H131739   6.651   0.781   7.566  0.4656  0.6982  0.6407
 3368TIP3    H231740   6.785   0.790   7.634  0.1917  0.1951  1.2575
 3369TIP3   OH231741   1.979   3.363   6.779 -0.4648  0.3359  0.2660
 3369TIP3    H131742   1.976   3.350   6.684  1.2149 -2.2407  0.4802
 3369TIP3    H231743   1.899   3.321   6.812 -1.6624  2.2554 -0.0112
 3370TIP3   OH231744   2.571   2.377   0.760 -0.2117  0.4021 -0.0288
 3370TIP3    H131745   2.538   2.299   0.805  0.0195  0.4871  0.2879
 3370TIP3    H231746   2.501   2.442   0.772 -1.1515 -0.2351 -1.6916
 3371TIP3   OH231747   5.401   3.604   6.726 -0.2680 -0.0637 -0.3176
 3371TIP3    H131748   5.458   3.596   6.649 -0.7128 -1.6179 -0.5186
 3371TIP3    H231749   5.313   3.606   6.690 -0.5336 -1.6744  0.1546
 3372TIP3   OH231750   2.426   4.613   2.221 -0.0177  0.6950  0.4092
 3372TIP3    H131751   2.385   4.538   2.178 -0.0856  2.3771 -2.7430
 3372TIP3    H231752   2.520   4.598   2.211 -0.0317  1.9448 -2.1432
 3373TIP3   OH231753   1.408   2.208   7.693  0.2610 -0.0920  0.2436
 3373TIP3    H131754   1.398   2.152   7.616  1.8078  1.1458 -0.9466
 3373TIP3    H231755   1.474   2.163   7.746  0.9671  0.2166 -0.3543
 3374TIP3   OH231756   6.769   4.493   6.916 -0.8381  0.2178 -0.3174
 3374TIP3    H131757   6.865   4.498   6.924 -0.6234 -2.6102 -0.2071
 3374TIP3    H231758   6.739   4.582   6.936  1.7231  1.0357  0.2774
 3375TIP3   OH231759   6.393   1.257   8.172 -0.3479 -0.0563  0.1469
 3375TIP3    H131760   6.308   1.258   8.127 -0.9683  2.3790  1.2288
 3375TIP3    H231761   6.378   1.203   8.250 -0.3397 -1.1759 -0.6095
 3376TIP3   OH231762   5.335   4.499   0.927 -0.1754  0.1224 -0.0292
 3376TIP3    H131763   5.249   4.496   0.884 -0.1795 -1.5153  0.0257
 3376TIP3    H231764   5.398   4.500   0.855 -0.2089 -1.5026 -0.1242
 3377TIP3   OH231765   6.684   0.287   0.398  0.0266  0.1264  0.2208
 3377TIP3    H131766   6.612   0.328   0.447  0.0096  0.5956 -0.1924
 3377TIP3    H231767   6.641   0.223   0.342  0.0622 -0.5473  0.9401
 3378TIP3   OH231768   4.259   4.152   1.278 -0.3155  0.5038  0.0618
 3378TIP3    H131769   4.297   4.194   1.355  0.1187 -2.1000  1.3816
 3378TIP3    H231770   4.169   4.186   1.274 -0.2928  0.8075  1.6351
 3379TIP3   OH231771   5.879   5.201   0.754 -0.0014 -0.6540  0.1077
 3379TIP3    H131772   5.969   5.198   0.724 -0.5747  0.3944 -1.9014
 3379TIP3    H231773   5.884   5.228   0.846  1.7228 -1.0951  0.1617
 3380TIP3   OH231774   0.343   5.361   7.094 -0.8561  0.4118  0.3267
 3380TIP3    H131775   0.364   5.438   7.041 -1.9168 -1.3159 -2.8720
 3380TIP3    H231776   0.428   5.327   7.122 -0.3166  1.8795  0.5716
 3381TIP3   OH231777   0.236   1.894   0.614 -0.3399  0.5948  0.4071
 3381TIP3    H131778   0.306   1.954   0.640  0.5060  0.3874 -1.2234
 3381TIP3    H231779   0.282   1.817   0.581 -1.2852  0.7377 -1.3695
 3382TIP3   OH231780   6.483   2.211   0.666 -0.5620  0.0253  0.2286
 3382TIP3    H131781   6.443   2.124   0.658 -2.4714  0.8073  0.7523
 3382TIP3    H231782   6.423   2.269   0.620  0.6513  1.1074 -0.0372
 3383TIP3   OH231783   2.825   0.157   1.447 -0.1065  0.0820  0.0216
 3383TIP3    H131784   2.812   0.167   1.352  0.1293  1.1257  0.0816
 3383TIP3    H231785   2.737   0.150   1.482 -0.2097 -0.0134 -0.2513
 3384TIP3   OH231786   2.253   4.433   2.124  0.4246 -0.2176  0.6610
 3384TIP3    H131787   2.298   4.349   2.133 -1.6555 -2.0478 -3.1986
 3384TIP3    H231788   2.160   4.412   2.139 -0.1439  1.3635 -0.3527
 3385TIP3   OH231789   3.326   4.384   1.298  0.3153  0.2990  0.3562
 3385TIP3    H131790   3.332   4.463   1.244 -0.3611  0.2878  0.2594
 3385TIP3    H231791   3.247   4.340   1.267 -0.0338  0.2414  1.2967
 3386TIP3   OH231792   1.200   3.702   1.815  0.3715  0.1537  0.1739
 3386TIP3    H131793   1.189   3.677   1.907 -1.5073 -0.0208 -0.0434
 3386TIP3    H231794   1.231   3.793   1.818  0.7440  0.0056  0.9772
 3387TIP3   OH231795   1.205   1.677   0.590  0.0609  0.6619  0.0799
 3387TIP3    H131796   1.132   1.618   0.574 -0.0703  0.8567 -0.0528
 3387TIP3    H231797   1.175   1.734   0.661  0.4260  0.1673  0.6439
 3388TIP3   OH231798   6.253   6.681   1.616  0.2569  0.9270 -0.0867
 3388TIP3    H131799   6.216   6.631   1.689 -0.9978  3.2592  1.0188
 3388TIP3    H231800   6.341   6.706   1.646  0.9817 -0.7347 -0.7459
 3389TIP3   OH231801   1.192   0.324   1.610  0.4129 -0.0106 -0.0118
 3389TIP3    H131802   1.234   0.409   1.596  0.8160 -0.0728  0.7468
 3389TIP3    H231803   1.250   0.262   1.566  0.5782  0.0156  0.1665
 3390TIP3   OH231804   3.335   5.672   8.074 -0.1207  0.0866  0.4260
 3390TIP3    H131805   3.430   5.681   8.086 -0.0170  0.6634 -0.6950
 3390TIP3    H231806   3.326   5.614   7.999 -0.6478  0.4997  0.1675
 3391TIP3   OH231807   3.033   4.301   1.543  0.2902 -0.2176  0.3821
 3391TIP3    H131808   2.968   4.334   1.481  0.7579  2.8801  1.3699
 3391TIP3    H231809   2.988   4.300   1.627  0.2250 -2.6221  0.4142
 3392TIP3   OH231810   4.143   3.216   7.353  0.0418 -0.3949 -0.2817
 3392TIP3    H131811   4.181   3.165   7.424 -0.2143 -0.8256 -0.4504
 3392TIP3    H231812   4.202   3.290   7.343  0.5986 -0.8222 -0.2434
 3393TIP3   OH231813   6.830   7.060   2.548 -0.2702 -0.4282  0.4836
 3393TIP3    H131814   6.816   7.154   2.557 -1.2553 -0.2273 -2.2401
 3393TIP3    H231815   6.742   7.022   2.555  0.1246 -1.2109  1.6350
 3394TIP3   OH231816   0.537   6.463   7.875 -0.2403 -0.0181  0.1664
 3394TIP3    H131817   0.548   6.468   7.970  0.8189  0.1720  0.0469
 3394TIP3    H231818   0.465   6.523   7.856 -2.4975 -2.2214  1.1496
 3395TIP3   OH231819   1.117   6.531   1.290  0.4583  0.4089 -1.0069
 3395TIP3    H131820   1.090   6.441   1.272  2.1818 -0.5630  0.8545
 3395TIP3    H231821   1.040   6.572   1.328  0.4872 -1.2425  0.9816
 3396TIP3   OH231822   5.925   6.939   8.191  0.7109 -0.5722 -0.5306
 3396TIP3    H131823   6.008   6.893   8.205 -0.1768 -1.5983  1.8564
 3396TIP3    H231824   5.944   7.030   8.214  0.7714 -1.1686  2.1285
 3397TIP3   OH231825   5.607   1.367   1.540  0.9627  0.3282 -0.1505
 3397TIP3    H131826   5.547   1.416   1.596  0.6702 -0.7074  0.4577
 3397TIP3    H231827   5.627   1.428   1.468  0.0074  1.0547  0.1736
 3398TIP3   OH231828   3.974   3.082   6.689 -0.0512 -0.8931  0.9102
 3398TIP3    H131829   3.996   3.171   6.715 -0.8252 -0.6285  0.6860
 3398TIP3    H231830   4.006   3.027   6.761 -0.2441 -0.3673  1.3991
 3399TIP3   OH231831   5.973   6.283   1.382 -0.0524 -0.0811  0.6654
 3399TIP3    H131832   5.891   6.300   1.428  0.1773  2.3950  0.3073
 3399TIP3    H231833   5.950   6.291   1.289  0.6422  1.0492  0.5743
 3400TIP3   OH231834   0.085   2.651   1.741 -0.6104  0.2281  0.2146
 3400TIP3    H131835   0.109   2.737   1.706  0.7209 -0.7752 -1.4854
 3400TIP3    H231836   0.122   2.650   1.830  0.7521  0.8244 -0.3293
 3401TIP3   OH231837   0.497   3.290   8.235 -0.7373  0.5540  0.3297
 3401TIP3    H131838   0.436   3.217   8.229 -0.0242  0.0102 -0.4624
 3401TIP3    H231839   0.446   3.367   8.211 -1.2126  0.1631  0.0867
 3402TIP3   OH231840   1.059   3.306   1.641  0.3331  0.4200  0.1187
 3402TIP3    H131841   0.991   3.267   1.696  0.1274 -0.3203 -0.6378
 3402TIP3    H231842   1.126   3.238   1.634  0.1180  0.3041 -0.9596
 3403TIP3   OH231843   4.406   5.513   7.035  0.0553  0.5587  0.3978
 3403TIP3    H131844   4.452   5.432   7.052 -1.1876  0.0238  1.4068
 3403TIP3    H231845   4.475   5.579   7.026  1.1851 -0.8732 -2.2835
 3404TIP3   OH231846   5.423   3.315   5.820  0.0721  0.1452 -0.1048
 3404TIP3    H131847   5.439   3.397   5.773  0.7970  0.0067 -0.1117
 3404TIP3    H231848   5.380   3.258   5.756 -1.6509  0.9518  0.2827
 3405TIP3   OH231849   3.970   4.645   5.897 -0.1340  0.6695  0.8502
 3405TIP3    H131850   3.943   4.583   5.830  0.1927  1.5221 -0.1018
 3405TIP3    H231851   3.888   4.678   5.934 -0.4187  1.9385 -0.7953
 3406TIP3   OH231852   4.985   1.001   7.875 -0.1146  0.6713 -0.2642
 3406TIP3    H131853   5.023   0.944   7.808 -0.4701 -0.4352  0.4647
 3406TIP3    H231854   4.910   1.042   7.831  1.6518  2.6451 -1.6161
 3407TIP3   OH231855   0.217   1.145   1.405 -0.7081 -0.2315  0.7466
 3407TIP3    H131856   0.246   1.097   1.327 -0.7070  0.8808  0.0422
 3407TIP3    H231857   0.140   1.098   1.435  0.1090 -1.5113  0.9204
 3408TIP3   OH231858   2.585   5.459   1.091  0.2536  0.1123  0.1506
 3408TIP3    H131859   2.646   5.532   1.108  0.9534  0.1039 -1.9630
 3408TIP3    H231860   2.642   5.382   1.085 -0.2053 -0.2235  0.1004
 3409TIP3   OH231861   2.543   0.026   0.997  0.1199  0.0624  0.0675
 3409TIP3    H131862   2.542   0.115   1.032  2.0072 -0.2969  1.1337
 3409TIP3    H231863   2.517  -0.030   1.071  1.3958 -0.4685  0.1316
 3410TIP3   OH231864   6.234   0.028   8.129 -0.4916  0.0048 -0.0948
 3410TIP3    H131865   6.191  -0.001   8.049  1.0095  0.2330 -1.0272
 3410TIP3    H231866   6.163   0.065   8.182 -1.5849 -0.5221 -1.1275
 3411TIP3   OH231867   2.298   2.315   0.842 -0.4289 -0.4624  0.1688
 3411TIP3    H131868   2.277   2.398   0.884 -1.6063 -1.4813  1.7205
 3411TIP3    H231869   2.213   2.275   0.823  0.1056 -0.9284 -1.3843
 3412TIP3   OH231870   2.913   5.190   0.422 -0.9466  0.1304  0.0849
 3412TIP3    H131871   2.828   5.230   0.406 -1.4353 -0.7022  0.5243
 3412TIP3    H231872   2.906   5.103   0.383  0.0040  0.3562 -0.6227
 3413TIP3   OH231873   3.492   3.830   7.389  0.1604 -0.1031 -0.2999
 3413TIP3    H131874   3.491   3.847   7.294  0.7775 -0.6155 -0.4049
 3413TIP3    H231875   3.406   3.861   7.419 -0.2570 -0.4133 -1.1148
 3414TIP3   OH231876   6.194   6.926   0.262  0.2280  0.1169 -0.1482
 3414TIP3    H131877   6.147   6.852   0.301  1.0029  0.8462  2.3195
 3414TIP3    H231878   6.140   7.002   0.283  0.0562  0.4346 -1.6145
 3415TIP3   OH231879   0.903   5.920   6.141  0.0106  0.3201  0.0489
 3415TIP3    H131880   0.886   6.010   6.113  0.0097 -0.1413 -1.5438
 3415TIP3    H231881   0.923   5.873   6.059 -0.4290 -1.2184  0.7954
 3416TIP3   OH231882   5.283   6.969   0.213  0.0962  0.3095 -0.3118
 3416TIP3    H131883   5.262   6.990   0.122 -1.4548  0.9160  0.1675
 3416TIP3    H231884   5.206   6.922   0.246  0.6148  0.1460  0.7142
 3417TIP3   OH231885   3.704   6.885   8.257 -0.0891 -0.4760 -0.5011
 3417TIP3    H131886   3.642   6.950   8.226 -0.5088 -0.9886 -0.7548
 3417TIP3    H231887   3.650   6.810   8.282  0.3785 -0.7054 -0.1532
 3418TIP3   OH231888   1.328   3.306   7.374  0.1888  0.1592 -0.0675
 3418TIP3    H131889   1.392   3.265   7.432  0.7751  0.2243 -0.6499
 3418TIP3    H231890   1.244   3.293   7.417  0.6306  0.3831  0.8965
 3419TIP3   OH231891   6.622   6.554   1.175  0.0095 -0.3740 -0.1993
 3419TIP3    H131892   6.617   6.646   1.201  0.7222 -0.6298  0.9088
 3419TIP3    H231893   6.539   6.537   1.131 -1.8677 -0.1974  2.9373
 3420TIP3   OH231894   5.733   4.693   7.042 -0.2517  0.6538  0.4023
 3420TIP3    H131895   5.742   4.775   7.090  3.8254  0.0528  0.9553
 3420TIP3    H231896   5.762   4.713   6.953 -0.9684  0.1837  0.0479
 3421TIP3   OH231897   5.016   0.554   6.896  0.2966 -0.0709  0.3145
 3421TIP3    H131898   5.076   0.532   6.968 -0.4354 -1.5067  0.5177
 3421TIP3    H231899   5.070   0.603   6.834  1.8835 -1.8862  0.1776
 3422TIP3   OH231900   6.530   4.311   0.248 -0.7002  0.0240  0.0712
 3422TIP3    H131901   6.447   4.319   0.295 -0.6344 -0.2245  0.2279
 3422TIP3    H231902   6.556   4.220   0.260  0.6168  0.5629  1.7443
 3423TIP3   OH231903   4.621   4.840   0.773  0.1578 -0.3493 -0.0853
 3423TIP3    H131904   4.677   4.916   0.789  0.1757  0.0862 -1.9840
 3423TIP3    H231905   4.546   4.852   0.831  1.4179 -0.3348  1.6462
 3424TIP3   OH231906   4.584   1.342   7.034  0.6264 -0.1604  0.1593
 3424TIP3    H131907   4.597   1.400   7.109  0.9887 -0.1689  0.1053
 3424TIP3    H231908   4.494   1.311   7.043  0.7196 -0.2942  0.6844
 3425TIP3   OH231909   5.411   1.853   6.621  0.3413 -0.2345  0.4426
 3425TIP3    H131910   5.366   1.789   6.565  1.6001 -1.4599  0.8040
 3425TIP3    H231911   5.359   1.856   6.701 -0.3329  0.0402  0.0096
 3426TIP3   OH231912   4.112   3.689   6.403  0.2585  0.0362  0.2824
 3426TIP3    H131913   4.034   3.645   6.435 -0.6944  0.9735 -0.6918
 3426TIP3    H231914   4.081   3.772   6.367  1.5095 -0.1516 -1.3658
 3427TIP3   OH231915   2.446   5.541   0.866 -0.3527 -0.8922 -0.3972
 3427TIP3    H131916   2.508   5.523   0.795  1.5583  1.0428  0.6563
 3427TIP3    H231917   2.490   5.507   0.944  0.4565  2.3675  0.6842
 3428TIP3   OH231918   5.953   2.554   6.895  0.0569 -0.0532 -0.0081
 3428TIP3    H131919   5.963   2.462   6.870  0.8814 -0.0666  0.3390
 3428TIP3    H231920   6.013   2.601   6.837  1.6084 -0.0302  1.5430
 3429TIP3   OH231921   4.401   1.620   0.856 -0.1681 -0.2015  0.2159
 3429TIP3    H131922   4.334   1.669   0.809 -1.1767 -0.0775  1.7170
 3429TIP3    H231923   4.483   1.639   0.809 -1.0887 -0.0096 -1.3836
 3430TIP3   OH231924   1.462   6.982   6.904 -0.3991  0.2230 -0.0932
 3430TIP3    H131925   1.377   7.025   6.910 -0.4371 -0.0604  2.0118
 3430TIP3    H231926   1.525   7.050   6.926 -0.3280 -0.2729  1.3371
 3431TIP3   OH231927   0.339   2.116   0.769  0.0683 -0.4409 -0.2318
 3431TIP3    H131928   0.274   2.113   0.839 -1.0543 -0.0250 -1.2189
 3431TIP3    H231929   0.339   2.207   0.741  0.5987 -0.5765 -0.6775
 3432TIP3   OH231930   5.236   5.840   7.446  0.2585 -0.2076  0.0805
 3432TIP3    H131931   5.217   5.891   7.367  1.1086  1.0725  0.6679
 3432TIP3    H231932   5.222   5.901   7.518 -0.2285 -1.2756  0.9338
 3433TIP3   OH231933   3.688   3.563   6.638 -0.2117  0.5471 -0.4442
 3433TIP3    H131934   3.594   3.545   6.647 -0.3064  0.9836 -0.5306
 3433TIP3    H231935   3.725   3.482   6.605 -0.1820 -0.4293  1.8286
 3434TIP3   OH231936   5.674   2.793   7.650 -0.3604 -0.4301  0.3899
 3434TIP3    H131937   5.693   2.885   7.634 -0.3769 -0.1368  1.8987
 3434TIP3    H231938   5.729   2.770   7.725 -0.8234 -1.4801  0.4239
 3435TIP3   OH231939   2.175   2.986   6.535 -0.7042 -0.1876 -0.0683
 3435TIP3    H131940   2.134   2.917   6.481 -0.8990  1.2233 -1.8269
 3435TIP3    H231941   2.185   3.060   6.475 -0.4880  1.3322  1.7567
 3436TIP3   OH231942   5.708   4.605   1.247  0.0825 -0.0889 -0.4695
 3436TIP3    H131943   5.623   4.640   1.219 -0.0970 -0.3563 -0.2677
 3436TIP3    H231944   5.728   4.652   1.328 -0.4337 -0.8399  0.1156
 3437TIP3   OH231945   6.415   2.801   6.904  0.3717 -0.7713 -0.2832
 3437TIP3    H131946   6.377   2.806   6.991  2.8844 -0.6462  0.8756
 3437TIP3    H231947   6.426   2.892   6.877  2.2123 -0.6927  0.5530
 3438TIP3   OH231948   5.865   6.097   0.318  0.0277  0.2336  0.0223
 3438TIP3    H131949   5.954   6.095   0.283  0.2444 -0.1538  0.5863
 3438TIP3    H231950   5.809   6.072   0.245  0.5821 -1.9199  0.2669
 3439TIP3   OH231951   3.789   3.893   0.244 -0.7726 -0.0110  0.1080
 3439TIP3    H131952   3.846   3.943   0.303  1.7478 -2.6399  0.1408
 3439TIP3    H231953   3.726   3.850   0.302 -0.0769 -0.3976  0.5887
 3440TIP3   OH231954   6.233   5.768   1.537  0.1089 -0.0264 -0.5641
 3440TIP3    H131955   6.235   5.859   1.566  1.6712 -0.0003 -0.6394
 3440TIP3    H231956   6.183   5.722   1.605 -0.2757  0.8003 -0.2728
 3441TIP3   OH231957   0.808   2.544   7.352 -0.2591  0.4925 -0.1739
 3441TIP3    H131958   0.737   2.591   7.308  1.0829  0.0807 -3.0012
 3441TIP3    H231959   0.884   2.601   7.342  0.4635 -0.4063  0.1031
 3442TIP3   OH231960   6.159   1.196   8.011 -0.3014 -0.3786 -0.1059
 3442TIP3    H131961   6.091   1.129   8.002  0.1620 -0.7687 -0.7666
 3442TIP3    H231962   6.112   1.273   8.045 -1.3427 -0.2090 -1.8334
 3443TIP3   OH231963   3.663   2.159   6.630 -0.3657  0.2629 -0.1718
 3443TIP3    H131964   3.743   2.196   6.667 -1.0139  2.3622 -0.7348
 3443TIP3    H231965   3.667   2.180   6.537 -1.0553 -0.5911 -0.4072
 3444TIP3   OH231966   0.673   3.755   1.705  0.1979  0.0207 -0.2636
 3444TIP3    H131967   0.706   3.670   1.675 -0.9786 -0.0881 -1.3214
 3444TIP3    H231968   0.736   3.783   1.771  1.7670 -0.7056 -1.3882
 3445TIP3   OH231969   5.664   1.957   6.723 -0.5896 -0.2243  0.7011
 3445TIP3    H131970   5.584   1.973   6.774  0.0361  0.2944  1.5539
 3445TIP3    H231971   5.677   2.037   6.673 -1.6688 -1.0526 -0.9701
 3446TIP3   OH231972   3.868   4.356   0.720 -0.2551  0.4262  0.4947
 3446TIP3    H131973   3.803   4.286   0.727 -0.5701  0.5930 -0.5715
 3446TIP3    H231974   3.943   4.326   0.771  0.1780 -1.3529 -1.0887
 3447TIP3   OH231975   4.804   3.194   6.216  0.2022  0.0442 -0.1337
 3447TIP3    H131976   4.850   3.237   6.143  0.8412  0.6320  0.5912
 3447TIP3    H231977   4.788   3.265   6.279  2.6081 -0.9612  1.7769
 3448TIP3   OH231978   3.358   4.601   2.083  0.3489  0.1134  0.3211
 3448TIP3    H131979   3.328   4.548   2.010  0.2316  1.7065 -0.8292
 3448TIP3    H231980   3.453   4.607   2.071  0.3710  0.1329  0.4909
 3449TIP3   OH231981   0.831   1.105   7.533 -0.2057  0.2648 -0.1966
 3449TIP3    H131982   0.793   1.110   7.446 -1.8275 -0.6248  0.4079
 3449TIP3    H231983   0.906   1.164   7.531 -0.2530  0.3052 -2.1565
 3450TIP3   OH231984   1.193   5.851   1.127  0.0513  0.2483  0.4846
 3450TIP3    H131985   1.198   5.947   1.119  2.2250  0.1646  0.4017
 3450TIP3    H231986   1.273   5.827   1.173 -1.0220 -1.4527  1.5387
 3451TIP3   OH231987   1.392   3.406   1.584  0.4607 -0.5538 -0.4636
 3451TIP3    H131988   1.461   3.468   1.562  0.5503 -0.7226 -0.6577
 3451TIP3    H231989   1.434   3.321   1.581  0.4614 -0.5864  0.3050
 3452TIP3   OH231990   4.770   4.204   0.239 -0.2468 -0.0024 -0.7768
 3452TIP3    H131991   4.791   4.296   0.229 -0.1809  0.1107  0.2932
 3452TIP3    H231992   4.813   4.178   0.321 -0.0279 -1.0486 -1.2058
 3453TIP3   OH231993   4.393   4.472   6.226  0.0450 -0.0347 -0.5554
 3453TIP3    H131994   4.410   4.556   6.268 -0.1809  0.2709 -1.0594
 3453TIP3    H231995   4.314   4.487   6.174 -1.5285 -1.2616  1.3181
 3454TIP3   OH231996   3.943   0.650   6.665  0.2507  0.3551 -0.3801
 3454TIP3    H131997   3.847   0.650   6.661  0.1784  2.2567  0.1573
 3454TIP3    H231998   3.970   0.675   6.577  0.2018  0.8371 -0.2622
 3455TIP3   OH231999   2.889   6.184   6.581 -0.6563 -0.3536  0.1201
 3455TIP3    H132000   2.863   6.260   6.631  0.7709 -0.7499  1.5416
 3455TIP3    H232001   2.823   6.176   6.512 -1.6440  1.2697  0.8436
 3456TIP3   OH232002   2.357   4.810   7.002  0.1617  0.2510 -0.2285
 3456TIP3    H132003   2.352   4.849   6.914 -0.8295  2.3159  0.6766
 3456TIP3    H232004   2.326   4.720   6.989  0.0932  0.4794 -1.9963
 3457TIP3   OH232005   6.863   4.466   0.839 -0.0945  0.0427  0.0181
 3457TIP3    H132006   6.850   4.535   0.903  1.6261  0.3751  0.0568
 3457TIP3    H232007   6.779   4.458   0.794 -0.7012  1.2329  0.9140
 3458TIP3   OH232008   2.361   4.841   7.578 -0.1354  0.1774 -0.5330
 3458TIP3    H132009   2.329   4.880   7.658 -2.2911  0.6746 -1.5776
 3458TIP3    H232010   2.436   4.788   7.606  0.3610  1.8288  1.4856
 3459TIP3   OH232011   1.528   2.605   1.005 -0.1979  0.4027 -0.3214
 3459TIP3    H132012   1.541   2.660   1.083 -1.9460 -0.6705  0.8117
 3459TIP3    H232013   1.569   2.653   0.934 -0.7541  2.6603  0.8054
 3460TIP3   OH232014   6.780   5.581   0.005  0.6453 -0.6866  0.0652
 3460TIP3    H132015   6.864   5.621   0.026  0.9019 -0.6914 -0.8748
 3460TIP3    H232016   6.798   5.487   0.008  0.0135 -0.7924  2.3938
 3461TIP3   OH232017   4.280   1.628   6.178 -0.1556 -0.4557  0.3077
 3461TIP3    H132018   4.321   1.588   6.255 -0.3495 -0.1837  0.5566
 3461TIP3    H232019   4.207   1.678   6.214  0.5528  0.7607  0.0754
 3462TIP3   OH232020   5.798   2.662   0.370 -0.0680  0.1553  0.2185
 3462TIP3    H132021   5.809   2.698   0.282  0.3155 -1.2883 -0.3514
 3462TIP3    H232022   5.715   2.699   0.401  0.0671  1.1121 -0.5129
 3463TIP3   OH232023   1.185   4.006   0.369  0.0512  0.0545 -0.3817
 3463TIP3    H132024   1.092   4.022   0.379  0.0115 -0.1157 -0.4749
 3463TIP3    H232025   1.223   4.092   0.353  0.5169  0.8929  3.9163
 3464TIP3   OH232026   4.580   4.117   6.610 -0.6048 -0.7004 -1.0479
 3464TIP3    H132027   4.596   4.024   6.624  0.7995 -0.3904 -0.4206
 3464TIP3    H232028   4.497   4.134   6.655  0.6184 -1.0612  1.5389
 3465TIP3   OH232029   3.858   5.958   6.699 -0.2583  0.2798 -0.2702
 3465TIP3    H132030   3.785   5.899   6.683 -1.5144  1.0552  2.0765
 3465TIP3    H232031   3.835   6.038   6.652 -1.1486  0.6522  0.7676
 3466TIP3   OH232032   7.061   7.012   1.924  0.5376  0.5062 -0.1939
 3466TIP3    H132033   7.101   6.939   1.971  0.1783 -0.1427 -0.8773
 3466TIP3    H232034   7.126   7.082   1.928  1.0570  0.0091  0.1118
 3467TIP3   OH232035   5.276   4.664   6.360  0.5472 -0.1697 -0.0789
 3467TIP3    H132036   5.261   4.653   6.454  0.2531 -0.6947 -0.1809
 3467TIP3    H232037   5.188   4.668   6.322  0.6581  1.0569 -0.2290
 3468TIP3   OH232038   6.966   6.467   8.101  0.4587  0.8026 -0.3024
 3468TIP3    H132039   7.032   6.505   8.043 -0.7197  3.5182 -0.0216
 3468TIP3    H232040   6.895   6.441   8.043  0.9217 -0.2633 -0.4127
 3469TIP3   OH232041   7.054   4.658   1.479 -0.3203  0.2551  0.6346
 3469TIP3    H132042   7.064   4.678   1.386 -1.7886  1.2350  0.6466
 3469TIP3    H232043   7.119   4.712   1.522  1.3215 -1.2291  0.1217
 3470TIP3   OH232044   5.666   2.692   5.949 -0.2653  0.0267 -0.1396
 3470TIP3    H132045   5.754   2.684   5.986 -1.2506 -2.0044  2.0654
 3470TIP3    H232046   5.680   2.720   5.858  2.4183  3.2283  1.0755
 3471TIP3   OH232047   6.202   3.817   0.463  0.0980  0.4922 -0.0154
 3471TIP3    H132048   6.169   3.850   0.379  2.6494  1.2076 -0.8116
 3471TIP3    H232049   6.281   3.868   0.479  1.9673 -2.4695  0.7629
 3472TIP3   OH232050   2.826   4.772   0.807 -0.2959  0.6177 -0.5920
 3472TIP3    H132051   2.905   4.744   0.853 -0.9652 -0.1772  0.1242
 3472TIP3    H232052   2.775   4.691   0.796 -0.0457  0.7010 -3.0396
 3473TIP3   OH232053   4.275   0.460   0.370  0.3678  0.1403 -0.3605
 3473TIP3    H132054   4.280   0.394   0.301  1.4248  1.8299 -1.9715
 3473TIP3    H232055   4.254   0.409   0.449  1.6622 -2.2076 -1.3984
 3474TIP3   OH232056   2.486   1.247   1.987  0.6216 -0.1079  0.0504
 3474TIP3    H132057   2.434   1.315   2.029  0.1632  0.6074 -1.5801
 3474TIP3    H232058   2.423   1.179   1.964  0.8600 -0.4773  0.4793
 3475TIP3   OH232059   5.360   5.794   1.081  0.2855  0.0199 -0.3488
 3475TIP3    H132060   5.427   5.751   1.135  0.1529 -1.3033 -1.2108
 3475TIP3    H232061   5.405   5.870   1.044  1.5398 -1.2085 -1.4389
 3476TIP3   OH232062   1.103   0.487   8.150  0.0153  0.9028  0.3896
 3476TIP3    H132063   1.110   0.515   8.241  2.7294 -0.4652  0.7289
 3476TIP3    H232064   1.128   0.395   8.152  0.7016  0.9851 -1.7919
 3477TIP3   OH232065   0.092   6.577   1.175 -0.4139  0.1411  0.2224
 3477TIP3    H132066   0.178   6.614   1.194  1.0317 -2.6611 -0.3702
 3477TIP3    H232067   0.101   6.536   1.089 -1.7016 -1.8929  0.9662
 3478TIP3   OH232068   6.233   2.224   7.402  0.0219  0.2047 -0.2523
 3478TIP3    H132069   6.259   2.133   7.417  0.9260  0.7291  1.8164
 3478TIP3    H232070   6.141   2.227   7.429 -0.0397 -0.1141 -0.4217
 3479TIP3   OH232071   4.858   2.447   7.796 -0.3295 -0.3124 -0.4078
 3479TIP3    H132072   4.793   2.413   7.857  0.9747 -1.0952  0.5744
 3479TIP3    H232073   4.814   2.443   7.711 -2.2441  0.9767  0.4535
 3480TIP3   OH232074   2.358   0.564   6.901 -0.0435  0.3617  0.0288
 3480TIP3    H132075   2.270   0.559   6.938  0.8517 -0.8324  2.2115
 3480TIP3    H232076   2.350   0.522   6.815 -1.5402 -0.0553  0.3339
 3481TIP3   OH232077   1.498   3.822   0.201 -0.0720 -0.1108 -0.3248
 3481TIP3    H132078   1.450   3.900   0.174 -1.0194  0.0667  1.6978
 3481TIP3    H232079   1.465   3.752   0.145 -1.0110  0.4685 -0.5069
 3482TIP3   OH232080   1.425   4.613   6.838 -0.2677  0.1421  0.4597
 3482TIP3    H132081   1.388   4.628   6.925 -1.2582  0.8188 -0.0549
 3482TIP3    H232082   1.420   4.699   6.795 -0.3449 -0.3173 -0.4666
 3483TIP3   OH232083   1.818   0.876   0.092  0.2752 -0.0292  0.4808
 3483TIP3    H132084   1.728   0.909   0.092 -0.1959 -1.1868 -1.1667
 3483TIP3    H232085   1.860   0.919   0.018  0.0464 -1.9557 -0.8387
 3484TIP3   OH232086   6.977   5.750   1.991  0.3413  0.4102 -0.2857
 3484TIP3    H132087   6.888   5.780   1.971  0.2172 -0.1385 -0.5868
 3484TIP3    H232088   7.034   5.811   1.944  0.0902  0.0977 -1.0159
 3485TIP3   OH232089   1.836   4.286   1.578  0.2746 -0.2907  0.6016
 3485TIP3    H132090   1.907   4.350   1.590  0.0374 -0.1597  1.3639
 3485TIP3    H232091   1.829   4.275   1.483 -0.5822  1.8544  0.3645
 3486TIP3   OH232092   2.116   4.993   6.393  0.4168  0.3050  0.6439
 3486TIP3    H132093   2.156   5.078   6.377  0.6331  0.5777  2.4293
 3486TIP3    H232094   2.098   4.992   6.487 -0.4306 -1.2619  0.5039
 3487TIP3   OH232095   2.616   5.480   6.531  0.8487 -0.4516  0.0027
 3487TIP3    H132096   2.554   5.537   6.486  0.3513  0.8349  2.1667
 3487TIP3    H232097   2.702   5.510   6.501  0.5071 -0.7168 -1.2786
 3488TIP3   OH232098   2.627   4.960   1.756 -0.2827 -0.4282  0.3068
 3488TIP3    H132099   2.563   4.935   1.823 -1.2568  1.2178  0.0626
 3488TIP3    H232100   2.575   5.006   1.690  0.6847 -1.8496 -1.5327
 3489TIP3   OH232101   5.081   3.895   6.425  1.0425 -0.1526  0.0263
 3489TIP3    H132102   5.060   3.982   6.459  0.9840  0.6510 -1.9441
 3489TIP3    H232103   5.012   3.877   6.361  0.4862 -2.1087  1.1016
 3490TIP3   OH232104   3.747   0.399   8.090 -0.3925 -0.0610  0.6472
 3490TIP3    H132105   3.744   0.337   8.163  0.9745 -0.1506  0.6606
 3490TIP3    H232106   3.673   0.374   8.034  1.1874 -3.0743 -0.3727
 3491TIP3   OH232107   6.411   3.260   6.255  0.2890  0.0061  0.4346
 3491TIP3    H132108   6.412   3.179   6.307  1.6134 -0.5864 -0.4565
 3491TIP3    H232109   6.328   3.259   6.209  0.5929 -1.2309 -0.1173
 3492TIP3   OH232110   2.754   2.746   6.840  0.1764  0.2781  0.2751
 3492TIP3    H132111   2.747   2.689   6.917 -1.3502 -0.8461 -0.6369
 3492TIP3    H232112   2.801   2.823   6.872 -0.6303 -0.0316  2.3973
 3493TIP3   OH232113   6.594   6.179   1.664  0.4715  0.2822 -0.1493
 3493TIP3    H132114   6.657   6.115   1.628  0.0065  0.3774 -1.1788
 3493TIP3    H232115   6.544   6.208   1.588  1.4914  2.8423  0.0483
 3494TIP3   OH232116   2.206   3.643   6.839 -0.2422  0.4959  0.0560
 3494TIP3    H132117   2.131   3.619   6.893  0.2334  1.9030  1.4060
 3494TIP3    H232118   2.237   3.560   6.802 -0.3018 -0.6057  2.3198
 3495TIP3   OH232119   7.039   0.529   7.642  0.7837 -0.0245 -0.1968
 3495TIP3    H132120   7.087   0.479   7.577  0.2291 -1.0848  0.1898
 3495TIP3    H232121   7.006   0.464   7.703 -2.0552  0.5190 -1.0195
 3496TIP3   OH232122   0.867   1.326   1.190  0.2456  0.0487 -0.6213
 3496TIP3    H132123   0.802   1.389   1.222 -0.0866 -0.2658 -0.6716
 3496TIP3    H232124   0.940   1.380   1.162  0.2159  0.3776 -0.0820
 3497TIP3   OH232125   6.563   5.357   7.905  0.5457 -0.0053 -0.1411
 3497TIP3    H132126   6.610   5.436   7.880 -2.5927  2.1929  0.2240
 3497TIP3    H232127   6.564   5.358   8.001  0.3227 -0.2825 -0.1330
 3498TIP3   OH232128   3.821   1.751   0.368  0.1043 -0.6466  0.2978
 3498TIP3    H132129   3.782   1.740   0.454  0.9666 -0.0803  0.7746
 3498TIP3    H232130   3.915   1.742   0.382  0.1878 -1.6923 -0.7769
 3499TIP3   OH232131   5.221   0.869   1.169 -0.4017  0.4515 -0.3812
 3499TIP3    H132132   5.141   0.876   1.116 -0.7124 -1.1831 -0.1889
 3499TIP3    H232133   5.255   0.782   1.149 -0.0743  0.1193  1.4650
 3500TIP3   OH232134   4.584   3.550   6.757 -0.3992  0.5389 -0.4171
 3500TIP3    H132135   4.600   3.541   6.663 -2.0443  0.8912 -0.7602
 3500TIP3    H232136   4.597   3.462   6.792 -1.1514  0.0862 -1.2158
 3501TIP3   OH232137   2.143   2.774   8.043  0.5359 -0.0050  0.0039
 3501TIP3    H132138   2.186   2.857   8.020 -0.1419  0.3827  0.0975
 3501TIP3    H232139   2.056   2.801   8.075  0.4325 -0.7313  0.3449
 3502TIP3   OH232140   4.284   3.453   7.307 -0.1482  0.0545 -0.0370
 3502TIP3    H132141   4.372   3.459   7.345 -0.0938 -1.1113  0.0424
 3502TIP3    H232142   4.297   3.472   7.214  0.0946  0.4095  0.0638
 3503TIP3   OH232143   6.991   6.721   6.178 -0.0652  0.0042 -0.0544
 3503TIP3    H132144   7.067   6.707   6.235  0.5833 -1.3272 -1.1792
 3503TIP3    H232145   6.938   6.642   6.191 -1.0556  0.7208  0.3806
 3504TIP3   OH232146   4.524   2.041   7.944 -0.1832  0.3960 -0.3386
 3504TIP3    H132147   4.542   1.964   7.997  2.8754  1.0587 -0.2821
 3504TIP3    H232148   4.462   2.010   7.878  0.5589 -1.9805 -0.0014
 3505TIP3   OH232149   1.368   4.183   1.310 -0.3000 -0.0592 -0.5529
 3505TIP3    H132150   1.384   4.106   1.257  3.0688  0.5432 -0.6307
 3505TIP3    H232151   1.402   4.256   1.258 -0.9718  1.1434  0.6094
 3506TIP3   OH232152   5.861   3.309   7.599  0.4792 -0.1435  0.0316
 3506TIP3    H132153   5.835   3.352   7.518 -0.1221  0.1994  0.3999
 3506TIP3    H232154   5.779   3.283   7.640  0.8216 -1.4056 -0.0496
 3507TIP3   OH232155   6.534   3.649   6.368  0.0557  0.2209  0.2832
 3507TIP3    H132156   6.499   3.683   6.285 -1.2961  1.0551  1.1520
 3507TIP3    H232157   6.598   3.583   6.342 -0.2945  0.5104 -1.4279
 3508TIP3   OH232158   3.894   2.282   6.684 -0.1155 -0.1067  0.4712
 3508TIP3    H132159   3.872   2.375   6.687  0.1111 -0.0321 -0.0635
 3508TIP3    H232160   3.981   2.277   6.723 -0.7152 -0.2977  1.8524
 3509TIP3   OH232161   4.468   5.997   7.852  0.0414 -0.4951  0.2677
 3509TIP3    H132162   4.507   5.921   7.809  0.3917 -0.4778  0.5551
 3509TIP3    H232163   4.538   6.034   7.905 -0.6515 -1.1015  1.6545
 3510TIP3   OH232164   3.155   2.032   1.263 -0.2858  0.1793  0.4440
 3510TIP3    H132165   3.190   2.120   1.252 -0.2022 -0.1009 -2.1746
 3510TIP3    H232166   3.212   1.991   1.328  2.2259  0.8079 -1.2417
 3511TIP3   OH232167   0.573   7.079   0.714  0.0556 -0.4591 -0.0572
 3511TIP3    H132168   0.640   7.018   0.685  0.1220  0.0125 -0.9415
 3511TIP3    H232169   0.498   7.060   0.658  0.1120  0.3290 -0.4121
 3512TIP3   OH232170   2.814   5.502   0.759  0.1149  0.4516 -0.7379
 3512TIP3    H132171   2.791   5.520   0.850 -0.1543  2.0066 -1.0767
 3512TIP3    H232172   2.820   5.407   0.754  1.4277  0.3738  1.2074
 3513TIP3   OH232173   3.113   6.899   1.408 -0.4478  0.5871  0.2375
 3513TIP3    H132174   3.086   6.827   1.352  1.3609 -0.3569  0.4999
 3513TIP3    H232175   3.039   6.914   1.467 -1.0757 -0.6512 -0.2288
 3514TIP3   OH232176   0.966   0.434   6.493 -0.5633  0.4966  0.0511
 3514TIP3    H132177   0.995   0.514   6.450 -0.0106  0.1273 -0.2679
 3514TIP3    H232178   1.000   0.363   6.439 -2.8871  0.0248 -0.9040
 3515TIP3   OH232179   2.722   0.517   0.824  0.0545  0.9254  0.5186
 3515TIP3    H132180   2.639   0.471   0.814  0.0400  1.2219 -0.9546
 3515TIP3    H232181   2.697   0.606   0.851 -0.1050  0.9816  0.1883
 3516TIP3   OH232182   6.148   6.583   1.372  0.3707  0.4076  0.5643
 3516TIP3    H132183   6.204   6.628   1.436 -2.0471  1.8237  1.8557
 3516TIP3    H232184   6.078   6.646   1.354 -1.1756 -1.5024 -0.4464
 3517TIP3   OH232185   5.414   2.469   0.656  0.2125  0.3445  0.3759
 3517TIP3    H132186   5.356   2.425   0.594 -0.1907 -0.5706  1.3507
 3517TIP3    H232187   5.495   2.418   0.653  0.4967  0.8221 -0.0293
 3518TIP3   OH232188   1.602   4.067   1.203 -0.5355 -0.0353  0.1801
 3518TIP3    H132189   1.525   4.036   1.154 -0.3232 -0.7307  0.2793
 3518TIP3    H232190   1.623   3.996   1.263  0.4412 -0.0269 -0.1376
 3519TIP3   OH232191   3.657   4.424   7.821  0.0367  0.2041 -0.0737
 3519TIP3    H132192   3.699   4.500   7.862  0.1902  0.2962 -0.4004
 3519TIP3    H232193   3.729   4.376   7.780 -0.4189  1.6555 -2.7516
 3520TIP3   OH232194   6.308   2.667   2.011  0.3000  0.1433  0.4035
 3520TIP3    H132195   6.317   2.646   1.919 -0.0822  0.7546  0.2163
 3520TIP3    H232196   6.361   2.602   2.057 -1.4195 -1.6885 -0.0742
 3521TIP3   OH232197   4.621   4.208   8.127 -0.4680  0.1247  0.4337
 3521TIP3    H132198   4.594   4.135   8.183  1.1545  0.2932  1.5005
 3521TIP3    H232199   4.562   4.279   8.151 -1.0694 -0.3759  0.4780
 3522TIP3   OH232200   6.431   6.860   6.893  0.0470  0.5151 -0.3836
 3522TIP3    H132201   6.497   6.804   6.853 -0.3546 -1.1288  1.1339
 3522TIP3    H232202   6.396   6.912   6.820  0.5338 -1.1033 -1.8391
 3523TIP3   OH232203   2.450   4.681   8.051  0.5813 -0.0758 -0.0820
 3523TIP3    H132204   2.518   4.732   8.007  1.1737 -1.0610 -0.3409
 3523TIP3    H232205   2.398   4.746   8.098  0.8570  0.8336 -1.0038
 3524TIP3   OH232206   2.657   0.791   0.853 -0.1212  0.0851 -0.2482
 3524TIP3    H132207   2.595   0.838   0.909 -0.3415  0.1767 -0.5615
 3524TIP3    H232208   2.676   0.853   0.782 -1.4932 -0.7852 -1.4299
 3525TIP3   OH232209   3.094   5.616   7.519 -0.3651 -0.5132  0.2809
 3525TIP3    H132210   3.139   5.649   7.441 -1.2053 -0.4877 -0.1973
 3525TIP3    H232211   3.070   5.695   7.567 -1.7615 -0.4285 -0.5199
 3526TIP3   OH232212   5.852   1.244   7.353  0.3958 -0.1639 -0.4035
 3526TIP3    H132213   5.785   1.309   7.332 -0.5098 -0.6479  0.8750
 3526TIP3    H232214   5.847   1.181   7.280 -1.2671 -0.7315  0.1456
 3527TIP3   OH232215   4.431   5.740   0.318 -0.5530  0.1273 -0.6006
 3527TIP3    H132216   4.374   5.708   0.248 -0.8224 -2.0371  0.5382
 3527TIP3    H232217   4.394   5.825   0.341 -1.5723  0.0496 -1.8124
 3528TIP3   OH232218   4.004   1.597   6.918  0.5370  0.3096 -0.3397
 3528TIP3    H132219   3.991   1.647   6.998  2.6376 -2.4296  1.9599
 3528TIP3    H232220   4.092   1.620   6.889  1.2885 -1.3748  0.4062
 3529TIP3   OH232221   3.924   3.247   8.097  0.5548  0.4403 -0.7058
 3529TIP3    H132222   3.946   3.281   8.010 -1.0917 -0.4448 -1.5196
 3529TIP3    H232223   3.972   3.164   8.103 -0.6883 -0.3694 -1.5327
 3530TIP3   OH232224   0.639   0.277   0.664 -0.4493 -0.6992  0.0223
 3530TIP3    H132225   0.620   0.183   0.659 -1.8610 -0.5029  0.8588
 3530TIP3    H232226   0.553   0.318   0.675  0.0253  0.8090 -1.4856
 3531TIP3   OH232227   0.888   6.693   7.963  0.7119  0.0427 -0.1905
 3531TIP3    H132228   0.868   6.659   7.876  2.5497 -0.0854 -0.5878
 3531TIP3    H232229   0.949   6.630   8.001  0.3007  0.3398  1.0166
 3532TIP3   OH232230   4.571   1.392   6.016  0.2647 -0.6075  0.0648
 3532TIP3    H132231   4.659   1.386   5.979 -0.5383 -1.8197 -1.8067
 3532TIP3    H232232   4.516   1.420   5.943 -0.8907  0.4160  1.2735
 3533TIP3   OH232233   3.258   2.373   0.965 -0.2069  0.1818 -0.2874
 3533TIP3    H132234   3.173   2.341   0.995  0.1977 -0.3118  0.3442
 3533TIP3    H232235   3.261   2.350   0.872  0.1393 -1.7782  0.1793
 3534TIP3   OH232236   3.384   5.395   0.783 -0.1973  0.2488 -0.4061
 3534TIP3    H132237   3.375   5.490   0.786  1.9171  0.4984 -0.6378
 3534TIP3    H232238   3.357   5.371   0.694 -1.5646  0.4840 -0.0864
 3535TIP3   OH232239   3.743   5.408   8.056 -0.0468  0.2541 -0.1485
 3535TIP3    H132240   3.651   5.425   8.036 -0.6413 -2.0102  0.3438
 3535TIP3    H232241   3.740   5.353   8.134  1.8216  1.3749  0.7704
 3536TIP3   OH232242   0.126   6.807   6.685 -0.1173  0.4383  0.5867
 3536TIP3    H132243   0.177   6.878   6.647 -0.6007  0.1048 -0.7503
 3536TIP3    H232244   0.048   6.849   6.720 -0.2734  0.6126  0.0390
 3537TIP3   OH232245   0.876   2.052   6.281 -0.5577  0.2898 -0.9440
 3537TIP3    H132246   0.856   2.146   6.275  0.4015  0.5710  0.1139
 3537TIP3    H232247   0.965   2.048   6.314 -1.0149 -1.0139  0.2219
 3538TIP3   OH232248   3.418   1.813   6.738 -0.1276 -0.3508 -0.5424
 3538TIP3    H132249   3.387   1.848   6.821 -1.6551 -2.5629 -0.0990
 3538TIP3    H232250   3.506   1.850   6.728 -0.6506  1.5183  1.0422
 3539TIP3   OH232251   2.027   6.631   1.623 -0.1091 -0.5634 -0.2105
 3539TIP3    H132252   2.104   6.660   1.671  0.0817  0.1032 -0.8994
 3539TIP3    H232253   2.003   6.548   1.664 -0.8447  0.6704  2.0429
 3540TIP3   OH232254   5.279   3.701   0.082  0.6971 -0.3909 -0.0821
 3540TIP3    H132255   5.194   3.678   0.043  1.7226 -0.8554 -2.2186
 3540TIP3    H232256   5.335   3.625   0.064  2.2785  0.9482 -1.1117
 3541TIP3   OH232257   2.741   6.712   0.645 -0.5617 -0.3198  0.3724
 3541TIP3    H132258   2.716   6.787   0.699 -1.3694 -0.9701  0.9154
 3541TIP3    H232259   2.799   6.660   0.700 -0.0254 -0.1131  0.0075
 3542TIP3   OH232260   5.657   7.073   0.080 -0.2884  0.1138  0.1905
 3542TIP3    H132261   5.699   7.080   0.166  0.4277 -0.5021 -0.0879
 3542TIP3    H232262   5.716   7.120   0.021 -0.0608 -0.6039 -0.1778
 3543TIP3   OH232263   6.204   0.662   7.949  0.5501  0.4001 -0.1378
 3543TIP3    H132264   6.115   0.638   7.974  0.0391  0.9150 -1.3702
 3543TIP3    H232265   6.259   0.592   7.985 -0.7345 -2.0203 -2.5302
 3544TIP3   OH232266   5.162   4.845   7.235  0.1013  0.2489  0.1111
 3544TIP3    H132267   5.238   4.870   7.182  0.8053 -0.7207  0.6335
 3544TIP3    H232268   5.092   4.829   7.172  0.8386 -0.5801 -0.5106
 3545TIP3   OH232269   4.349   0.049   7.961  0.0640 -0.6559 -0.1201
 3545TIP3    H132270   4.351  -0.046   7.957 -0.3712 -0.8029  1.9921
 3545TIP3    H232271   4.404   0.077   7.888  1.9976 -2.5745  0.4859
 3546TIP3   OH232272   5.374   1.795   7.252  0.5549 -0.8204  0.0107
 3546TIP3    H132273   5.305   1.763   7.310  2.6160 -1.7282  2.1194
 3546TIP3    H232274   5.344   1.881   7.224 -1.4236 -1.2059  0.7975
 3547TIP3   OH232275   6.662   4.134   6.431 -0.1833  0.1225 -0.2710
 3547TIP3    H132276   6.573   4.145   6.399 -0.5424  0.7779  0.8887
 3547TIP3    H232277   6.699   4.065   6.376 -1.5594 -0.5106 -0.4334
 3548TIP3   OH232278   1.388   3.643   8.017 -0.3583 -0.2626 -0.2798
 3548TIP3    H132279   1.297   3.670   8.031 -0.5951 -0.5075 -1.2808
 3548TIP3    H232280   1.440   3.715   8.052 -0.9498  0.3612 -0.6650
 3549TIP3   OH232281   4.874   2.954   2.355  0.4191 -0.2853  0.1811
 3549TIP3    H132282   4.890   2.980   2.265 -1.4908 -0.0104 -0.1070
 3549TIP3    H232283   4.914   3.024   2.407  0.8639 -0.0622 -0.4454
 3550TIP3   OH232284   4.308   4.210   1.849 -0.2983  0.0078  0.0438
 3550TIP3    H132285   4.399   4.207   1.821  0.1260 -0.1255  1.4058
 3550TIP3    H232286   4.287   4.120   1.875 -0.8609  0.0153 -0.3426
 3551TIP3   OH232287   6.561   0.653   0.239  0.6583 -0.4805 -0.2943
 3551TIP3    H132288   6.525   0.625   0.323  1.9549  1.4530  1.0091
 3551TIP3    H232289   6.496   0.626   0.174 -1.9758  0.7683  1.6604
 3552TIP3   OH232290   4.754   1.821   1.629  0.4647  0.5223  0.1505
 3552TIP3    H132291   4.736   1.885   1.697  0.5902  0.7745 -0.0529
 3552TIP3    H232292   4.715   1.740   1.661 -0.6163  0.9438 -0.0628
 3553TIP3   OH232293   3.190   5.777   1.708  0.0730 -0.0327  0.3922
 3553TIP3    H132294   3.181   5.867   1.740  1.5776 -0.8270  3.4798
 3553TIP3    H232295   3.099   5.746   1.699 -0.4572  1.3081  0.8241
 3554TIP3   OH232296   5.922   5.233   1.504  0.4672 -0.6712  0.3685
 3554TIP3    H132297   5.919   5.279   1.588  1.8147  0.1750 -0.0083
 3554TIP3    H232298   6.014   5.239   1.477 -0.0020 -0.5917 -1.3357
 3555TIP3   OH232299   4.760   3.204   0.702 -0.1038  0.2417 -0.4454
 3555TIP3    H132300   4.841   3.152   0.701  0.8284  1.6154 -1.1508
 3555TIP3    H232301   4.757   3.242   0.790 -0.8064 -1.0032  0.0818
 3556TIP3   OH232302   6.247   0.306   0.963  0.6509 -0.1664 -0.7091
 3556TIP3    H132303   6.245   0.322   1.057  2.8141 -1.4709 -0.3578
 3556TIP3    H232304   6.225   0.213   0.954 -0.1965  0.1077 -1.5616
 3557TIP3   OH232305   4.760   2.333   7.237 -0.0713 -0.5105  0.0345
 3557TIP3    H132306   4.735   2.241   7.225 -0.2180 -0.5416  0.5811
 3557TIP3    H232307   4.855   2.330   7.249 -0.1701 -0.6750  0.8473
 3558TIP3   OH232308   4.659   3.914   8.211  0.4249  0.5089 -0.8472
 3558TIP3    H132309   4.684   3.847   8.148  2.1929  1.6282 -1.3946
 3558TIP3    H232310   4.591   3.872   8.264 -0.8953 -0.5673 -3.2431
 3559TIP3   OH232311   5.273   5.349   8.165  0.0348  0.8083  0.0312
 3559TIP3    H132312   5.312   5.325   8.249 -0.1288  0.1924 -0.0659
 3559TIP3    H232313   5.241   5.438   8.179  0.8783  1.0776  0.3113
 3560TIP3   OH232314   3.443   6.729   6.290  0.0681  0.6081 -0.4383
 3560TIP3    H132315   3.378   6.720   6.360 -0.6850 -2.1572 -1.3637
 3560TIP3    H232316   3.526   6.703   6.331 -0.0308  0.8321 -0.0971
 3561TIP3   OH232317   0.100   2.238   5.908 -0.1513 -0.8238 -0.4758
 3561TIP3    H132318   0.181   2.193   5.884  0.3421  0.6864 -1.8752
 3561TIP3    H232319   0.128   2.308   5.968 -0.2921  0.0540 -1.3972
 3562TIP3   OH232320   5.671   3.416   1.500 -0.2700 -0.2019 -0.1334
 3562TIP3    H132321   5.612   3.390   1.571 -1.1874  0.6528 -0.5512
 3562TIP3    H232322   5.710   3.499   1.529 -1.5963  0.8176 -1.0949
 3563TIP3   OH232323   2.269   4.961   0.617  0.7028 -0.1057  0.6157
 3563TIP3    H132324   2.245   4.873   0.587  0.6182  0.5381 -1.3098
 3563TIP3    H232325   2.340   4.988   0.560  0.1269  1.4305  0.5775
 3564TIP3   OH232326   6.304   2.777   7.157  0.1861  0.2466  0.4821
 3564TIP3    H132327   6.209   2.783   7.146  0.1772  0.0655  0.4688
 3564TIP3    H232328   6.317   2.701   7.213  0.2283  1.1483  1.7525
 3565TIP3   OH232329   2.360   2.996   6.749 -0.0655 -0.3197  0.1377
 3565TIP3    H132330   2.296   3.024   6.814 -0.7422 -2.2609  0.3532
 3565TIP3    H232331   2.308   2.964   6.675  0.6938  1.2124 -1.1295
 3566TIP3   OH232332   5.839   0.668   1.453  0.2504 -0.0262  0.0738
 3566TIP3    H132333   5.913   0.648   1.510  0.3846  0.3959  0.0506
 3566TIP3    H232334   5.811   0.583   1.419  0.1255 -0.2937  0.8231
 3567TIP3   OH232335   5.047   5.627   0.462 -0.2512 -0.2477  0.0435
 3567TIP3    H132336   5.024   5.719   0.453  1.6493  0.6373  2.9313
 3567TIP3    H232337   4.989   5.593   0.530  0.7381 -0.4470  0.8174
 3568TIP3   OH232338   2.543   2.598   8.075 -0.1938 -0.2192  0.1151
 3568TIP3    H132339   2.451   2.603   8.097 -0.0332  0.1441  0.7269
 3568TIP3    H232340   2.563   2.682   8.035 -0.8920 -1.4774 -3.1517
 3569TIP3   OH232341   6.080   5.648   1.736  0.4779  0.5114  0.3884
 3569TIP3    H132342   6.060   5.708   1.807  0.9635  0.9368  0.1687
 3569TIP3    H232343   5.994   5.620   1.703  0.2014 -1.0586  2.2499
 3570TIP3   OH232344   6.144   6.970   7.873  0.2965  0.3769 -0.2024
 3570TIP3    H132345   6.072   7.027   7.845  0.7239  0.3429 -1.4539
 3570TIP3    H232346   6.190   6.949   7.792  0.7359 -0.9603  0.3776
 3571TIP3   OH232347   2.624   5.777   7.616  0.0195 -0.1323 -0.4533
 3571TIP3    H132348   2.669   5.696   7.640  0.2585 -0.3704 -1.6441
 3571TIP3    H232349   2.660   5.843   7.674 -0.3593 -0.9210  0.7107
 3572TIP3   OH232350   5.455   3.757   1.994  0.4083 -0.1243 -0.1203
 3572TIP3    H132351   5.402   3.806   1.932 -0.6128 -1.7210 -0.5766
 3572TIP3    H232352   5.520   3.819   2.026 -0.4305  1.3112 -1.1404
 3573TIP3   OH232353   2.453   5.888   7.898 -0.0777  0.6347  0.0466
 3573TIP3    H132354   2.523   5.943   7.863  0.8057  1.3411  2.7072
 3573TIP3    H232355   2.419   5.937   7.973 -1.9009 -0.7350  0.1800
 3574TIP3   OH232356   4.404   7.072   0.129 -0.0087  0.0560 -0.5694
 3574TIP3    H132357   4.326   7.071   0.185  0.1408 -1.1990 -0.3570
 3574TIP3    H232358   4.378   7.123   0.052 -0.8437  0.1394 -0.2417
 3575TIP3   OH232359   2.650   1.102   7.160  0.7712 -0.2544 -0.2163
 3575TIP3    H132360   2.640   1.099   7.255 -2.7670 -0.5913 -0.4738
 3575TIP3    H232361   2.742   1.123   7.146  1.7294 -1.5086  3.2452
 3576TIP3   OH232362   1.384   6.919   1.726  0.1791  0.0888 -0.5443
 3576TIP3    H132363   1.379   6.875   1.641 -1.8785 -1.1894  0.1572
 3576TIP3    H232364   1.340   6.859   1.786  0.7310  1.4052  1.2535
 3577TIP3   OH232365   6.708   7.054   6.976  0.1822 -0.4981  0.3740
 3577TIP3    H132366   6.789   7.012   7.006 -0.0190 -1.4846 -0.3975
 3577TIP3    H232367   6.663   6.986   6.926 -0.3162  0.5606 -0.6557
 3578TIP3   OH232368   1.251   3.736   7.564  0.7548  0.3088 -0.2888
 3578TIP3    H132369   1.295   3.753   7.648  0.6941 -0.9885  0.0233
 3578TIP3    H232370   1.187   3.807   7.556  1.9770  1.4654 -0.1138
 3579TIP3   OH232371   6.615   1.085   1.264  0.4174  0.2529  0.4415
 3579TIP3    H132372   6.648   1.118   1.181 -0.5685  0.8319  0.2652
 3579TIP3    H232373   6.526   1.120   1.271 -0.4891 -1.9164  0.5034
 3580TIP3   OH232374   0.094   2.771   7.066  0.1084 -0.0149 -0.2395
 3580TIP3    H132375   0.115   2.681   7.043  0.0037  0.1785 -1.1422
 3580TIP3    H232376   0.114   2.778   7.159 -0.6146 -1.1900  0.0260
 3581TIP3   OH232377   6.020   3.445   0.745  0.0498 -0.1920  1.1798
 3581TIP3    H132378   6.081   3.410   0.681  0.2139  1.3785  0.4138
 3581TIP3    H232379   6.074   3.499   0.803 -0.7053  2.5700 -0.4888
 3582TIP3   OH232380   0.483   6.748   7.166 -0.3176 -0.4582  0.1059
 3582TIP3    H132381   0.524   6.693   7.233  2.0226 -0.6364 -1.3852
 3582TIP3    H232382   0.485   6.695   7.086  1.5483  1.5025 -1.2648
 3583TIP3   OH232383   2.091   6.723   1.201  0.0573  0.0386  0.1601
 3583TIP3    H132384   2.074   6.802   1.252  2.1456 -0.2596  1.4259
 3583TIP3    H232385   2.030   6.658   1.237  0.5033  0.2310  1.3024
 3584TIP3   OH232386   5.066   0.967   0.518  0.4335  0.1224 -0.6579
 3584TIP3    H132387   5.078   1.021   0.597 -1.9051  0.8701 -0.7456
 3584TIP3    H232388   5.143   0.987   0.464  1.7105  0.1749  1.0646
 3585TIP3   OH232389   5.592   2.494   1.208  0.0701 -0.0729 -0.8721
 3585TIP3    H132390   5.572   2.414   1.160  0.3966  0.0911 -1.2849
 3585TIP3    H232391   5.589   2.468   1.300 -1.3981 -0.1987 -0.9382
 3586TIP3   OH232392   1.845   2.922   0.954 -1.2279  0.0644 -0.3926
 3586TIP3    H132393   1.849   2.997   0.895 -0.7265  1.5901  1.4932
 3586TIP3    H232394   1.764   2.934   1.003 -0.3620  0.2941  1.0456
 3587TIP3   OH232395   2.393   1.728   0.952  0.3545  0.2231  0.1740
 3587TIP3    H132396   2.405   1.821   0.935  2.5948 -0.2132 -0.9999
 3587TIP3    H232397   2.320   1.703   0.895  1.3067  0.8158 -1.3664
 3588TIP3   OH232398   3.364   0.899   1.989  0.4284  0.0635  0.0033
 3588TIP3    H132399   3.348   0.804   1.985 -1.2805  0.2648  1.1421
 3588TIP3    H232400   3.460   0.907   1.991  0.7631 -1.4592 -3.1384
 3589TIP3   OH232401   4.547   1.917   8.209  0.4738 -0.8270 -0.7761
 3589TIP3    H132402   4.455   1.896   8.191  0.4894 -1.6716  0.0485
 3589TIP3    H232403   4.549   1.931   8.304  1.3363 -1.5794 -0.6760
 3590TIP3   OH232404   3.730   1.955   1.553  0.1385  0.6481  0.2918
 3590TIP3    H132405   3.814   1.978   1.512  0.8925 -0.7308  0.9939
 3590TIP3    H232406   3.754   1.909   1.633 -1.2701 -1.2483 -0.3069
 3591TIP3   OH232407   4.218   1.139   1.716 -0.0315 -0.1763  0.3182
 3591TIP3    H132408   4.201   1.085   1.793  1.3207 -0.0515  0.7382
 3591TIP3    H232409   4.279   1.206   1.747 -0.6859  0.8306 -0.4945
 3592TIP3   OH232410   5.887   4.979   7.467  0.3550 -0.4230 -0.4726
 3592TIP3    H132411   5.808   4.947   7.425 -0.5350  1.5879 -0.4158
 3592TIP3    H232412   5.909   4.911   7.531 -0.7967 -1.4287 -1.1064
 3593TIP3   OH232413   5.134   0.669   6.686  0.5230 -0.3271 -0.1935
 3593TIP3    H132414   5.195   0.736   6.718  0.7097 -0.5194 -0.1463
 3593TIP3    H232415   5.190   0.596   6.659  0.4716  0.3064 -2.1717
 3594TIP3   OH232416   3.510   0.037   7.235 -0.1393  0.0446 -0.4841
 3594TIP3    H132417   3.568   0.020   7.161  0.7404  0.2390  0.1488
 3594TIP3    H232418   3.535   0.124   7.266 -1.1731  0.3843 -0.5556
 3595TIP3   OH232419   3.131   6.888   8.170  0.5545 -0.1084 -0.0810
 3595TIP3    H132420   3.139   6.980   8.198  3.4838 -0.0382 -0.9269
 3595TIP3    H232421   3.194   6.841   8.224  1.2930 -1.1124 -1.7679
 3596TIP3   OH232422   1.846   2.357   6.075 -0.2071 -0.5040  0.1530
 3596TIP3    H132423   1.928   2.315   6.048  0.4230  0.5068  0.4517
 3596TIP3    H232424   1.803   2.381   5.993  0.1759 -0.3229  0.0006
 3597TIP3   OH232425   3.601   0.898   7.250  0.4524 -0.5424 -0.0494
 3597TIP3    H132426   3.529   0.949   7.212 -0.9899 -2.6020 -0.2768
 3597TIP3    H232427   3.561   0.852   7.323  1.0825 -2.9526 -1.1335
 3598TIP3   OH232428   3.456   6.304   6.026  0.3551  0.4119  0.0581
 3598TIP3    H132429   3.432   6.348   6.107  2.2807 -1.0286  1.5232
 3598TIP3    H232430   3.544   6.334   6.007  0.2984 -0.0199 -0.9761
 3599TIP3   OH232431   3.104   0.073   8.277 -0.1494  0.1282  0.4291
 3599TIP3    H132432   3.147   0.132   8.341  1.5561 -0.7802  0.1911
 3599TIP3    H232433   3.119   0.115   8.193 -0.4858  0.2381  0.4248
 3600TIP3   OH232434   6.313   3.839   8.069 -0.0323  0.4006 -0.1108
 3600TIP3    H132435   6.315   3.746   8.050  2.2976 -0.0703  1.8302
 3600TIP3    H232436   6.220   3.860   8.081 -0.5593 -1.8479  0.1663
 3601TIP3   OH232437   5.794   0.189   2.025 -0.2718  0.0407 -0.2100
 3601TIP3    H132438   5.733   0.255   2.058 -0.6396 -0.7357  0.7129
 3601TIP3    H232439   5.785   0.116   2.086 -0.1907 -1.0300 -1.4490
 3602TIP3   OH232440   1.728   1.442   1.068  0.1416 -0.8162  0.5256
 3602TIP3    H132441   1.756   1.515   1.122  0.5728 -0.2378 -0.4470
 3602TIP3    H232442   1.673   1.483   1.001  2.9920 -0.8062 -2.0322
 3603TIP3   OH232443   6.014   2.001   8.129 -0.6276 -0.8060  0.4771
 3603TIP3    H132444   5.937   2.025   8.077 -1.2248  0.1556  1.7618
 3603TIP3    H232445   6.003   1.907   8.145 -1.2957 -0.7762  0.2580
 3604TIP3   OH232446   5.695   5.380   7.492  0.4894  0.0381 -0.5005
 3604TIP3    H132447   5.783   5.383   7.456 -0.2858  1.8859 -2.4610
 3604TIP3    H232448   5.655   5.464   7.467 -1.5807 -0.4091  0.9809
 3605TIP3   OH232449   6.046   3.354   6.434 -0.2063  0.3307  0.0507
 3605TIP3    H132450   6.051   3.277   6.491 -2.0232  1.9839  2.6875
 3605TIP3    H232451   6.016   3.321   6.350 -1.3188 -1.7955  1.2133
 3606TIP3   OH232452   3.205   1.503   0.324 -0.2579  0.6166 -0.4050
 3606TIP3    H132453   3.123   1.547   0.345 -1.4907 -1.1889 -1.2162
 3606TIP3    H232454   3.183   1.442   0.254  1.4352 -0.9747  0.3366
 3607TIP3   OH232455   3.206   1.962   0.364 -0.1095 -0.0165 -0.0908
 3607TIP3    H132456   3.149   2.032   0.332 -0.7749 -1.0361 -1.2156
 3607TIP3    H232457   3.212   1.900   0.291  0.3704 -1.1959  0.9068
 3608TIP3   OH232458   0.181   1.909   7.987  0.4480  0.4050  0.0680
 3608TIP3    H132459   0.270   1.931   8.012  0.0028  1.9114  0.4244
 3608TIP3    H232460   0.133   1.903   8.070  0.6798 -2.9212  0.1042
 3609TIP3   OH232461   1.961   3.963   1.504  0.2922 -0.3740 -0.4579
 3609TIP3    H132462   1.948   4.021   1.579 -0.0614 -0.3112 -0.5639
 3609TIP3    H232463   1.873   3.942   1.474  0.3434 -2.2479  0.5352
 3610TIP3   OH232464   1.818   2.438   0.950 -0.1982  0.1252  0.2949
 3610TIP3    H132465   1.733   2.396   0.961  0.4175 -0.9573  1.0738
 3610TIP3    H232466   1.874   2.399   1.018  0.7339  1.3165  0.2568
 3611TIP3   OH232467   5.515   3.564   7.501  0.3471  0.3166  0.4950
 3611TIP3    H132468   5.506   3.532   7.411 -2.1229  0.1766  0.7265
 3611TIP3    H232469   5.455   3.639   7.506 -0.5603 -0.4730  2.3502
 3612TIP3   OH232470   3.046   5.836   8.278 -0.3163  0.3850 -0.3636
 3612TIP3    H132471   3.129   5.880   8.260  0.9220 -0.8038  2.0429
 3612TIP3    H232472   2.985   5.906   8.299  0.0785  1.2648 -2.0212
 3613TIP3   OH232473   6.477   4.597   0.231  0.3553 -0.0447 -0.1622
 3613TIP3    H132474   6.399   4.639   0.194 -0.6400  0.3561  2.1466
 3613TIP3    H232475   6.474   4.507   0.199 -0.3433  0.3176 -1.1460
 3614TIP3   OH232476   3.282   1.490   7.651  0.7127  0.2521 -0.7509
 3614TIP3    H132477   3.216   1.479   7.720  2.9507 -1.5139  1.3001
 3614TIP3    H232478   3.330   1.569   7.676  1.7761 -0.6068  0.0054
 3615TIP3   OH232479   0.738   5.270   1.200  0.2796 -0.7014 -0.3509
 3615TIP3    H132480   0.668   5.243   1.141  0.0812  0.0713 -0.4819
 3615TIP3    H232481   0.699   5.266   1.287 -0.0427  0.0530 -0.4530
 3616TIP3   OH232482   5.463   6.038   1.292  0.1202 -0.6568 -0.0024
 3616TIP3    H132483   5.426   6.126   1.287  1.2847 -0.1431  0.1364
 3616TIP3    H232484   5.498   6.021   1.205  1.7552 -0.1193  0.5147
 3617TIP3   OH232485   4.588   0.174   7.494 -0.7056  0.3866  0.5983
 3617TIP3    H132486   4.501   0.213   7.507 -0.8399  0.2197  0.2139
 3617TIP3    H232487   4.569   0.085   7.464 -0.4087 -0.2045  2.0741
 3618TIP3   OH232488   4.967   5.841   6.525 -0.0312 -0.9173 -0.2166
 3618TIP3    H132489   4.967   5.853   6.619  1.1760 -2.0619 -0.0365
 3618TIP3    H232490   4.874   5.844   6.500 -0.2552  2.0580  0.5710
 3619TIP3   OH232491   4.319   6.593   7.695 -0.3376  0.0218 -0.7051
 3619TIP3    H132492   4.405   6.567   7.661 -0.1983  0.7393 -0.9302
 3619TIP3    H232493   4.318   6.560   7.785 -0.6866 -1.8651 -1.3475
 3620TIP3   OH232494   1.131   0.191   0.802 -0.3183  0.2306 -0.0718
 3620TIP3    H132495   1.047   0.190   0.849 -1.2050 -1.2333 -1.5765
 3620TIP3    H232496   1.161   0.281   0.809 -2.5875  1.0909 -0.4571
 3621TIP3   OH232497   2.963   1.878   0.930 -0.1840  0.0282 -0.2454
 3621TIP3    H132498   3.011   1.818   0.986 -0.5522 -0.9657 -0.9670
 3621TIP3    H232499   3.025   1.949   0.911  0.9758 -1.1498 -1.0515
 3622TIP3   OH232500   4.372   2.354   6.418  0.5972  0.1669 -0.6281
 3622TIP3    H132501   4.276   2.359   6.412  0.6918  1.4875 -1.6520
 3622TIP3    H232502   4.400   2.333   6.329  1.2920  0.6873 -0.5393
 3623TIP3   OH232503   3.400   3.389   7.499  0.7010 -0.0198  0.6262
 3623TIP3    H132504   3.394   3.428   7.586 -1.2777  0.3415  0.3769
 3623TIP3    H232505   3.411   3.295   7.515  2.5314  0.2549  1.2265
 3624TIP3   OH232506   5.599   2.319   7.355  0.2602 -0.2617  0.0764
 3624TIP3    H132507   5.636   2.399   7.394  0.3231  0.2988 -1.0792
 3624TIP3    H232508   5.671   2.282   7.303 -0.4207  0.2061 -1.2558
 3625TIP3   OH232509   2.845   2.543   6.215 -0.7766  0.2320  0.5046
 3625TIP3    H132510   2.823   2.616   6.156  0.3110 -0.7878 -1.2447
 3625TIP3    H232511   2.802   2.467   6.177  1.0238 -0.7109  0.2149
 3626TIP3   OH232512   6.156   4.013   7.411  0.5999 -0.1508 -0.0317
 3626TIP3    H132513   6.174   3.964   7.491 -1.3637  0.3142  0.7620
 3626TIP3    H232514   6.115   3.950   7.352  0.6726 -0.1377 -0.0962
 3627TIP3   OH232515   4.181   0.128   5.939 -0.4738  0.3716 -0.4065
 3627TIP3    H132516   4.224   0.072   5.875 -1.9106  1.8123 -2.7875
 3627TIP3    H232517   4.109   0.075   5.973  0.1520 -0.3203 -0.1242
 3628TIP3   OH232518   4.965   3.655   7.015 -0.8174  0.2897  0.0485
 3628TIP3    H132519   5.057   3.643   7.039 -1.1101 -0.7673  0.6921
 3628TIP3    H232520   4.950   3.592   6.944 -1.0100  0.5755 -0.1686
 3629TIP3   OH232521   6.798   5.376   6.685  0.2762 -0.3337 -0.1538
 3629TIP3    H132522   6.800   5.442   6.754  1.3860  0.2849 -0.7644
 3629TIP3    H232523   6.709   5.382   6.649 -0.0522 -0.1134  0.6778
 3630TIP3   OH232524   3.156   3.847   0.678 -0.3118  0.6929 -0.1218
 3630TIP3    H132525   3.150   3.821   0.770  1.1398 -0.7629 -0.4057
 3630TIP3    H232526   3.129   3.939   0.678  0.4065  0.9555  1.8837
 3631TIP3   OH232527   1.296   1.668   7.739 -0.2149  0.0435  0.5228
 3631TIP3    H132528   1.223   1.713   7.782 -0.9701  0.7128 -1.3524
 3631TIP3    H232529   1.374   1.704   7.780 -0.8939 -0.1127  2.0301
 3632TIP3   OH232530   4.985   3.816   0.536  0.6680  0.3723 -0.6209
 3632TIP3    H132531   5.043   3.844   0.607 -0.6338  1.0494  0.2204
 3632TIP3    H232532   4.925   3.753   0.577  0.4145  0.1489 -1.3194
 3633TIP3   OH232533   5.515   3.915   8.097 -0.3434  0.3095 -0.2830
 3633TIP3    H132534   5.585   3.976   8.077  1.1681 -1.2450  0.0557
 3633TIP3    H232535   5.533   3.884   8.186 -1.7298  0.2156  0.0005
 3634TIP3   OH232536   0.343   6.919   1.366  0.1084 -0.0464  0.0576
 3634TIP3    H132537   0.414   6.888   1.423 -0.1087  0.8551  0.8617
 3634TIP3    H232538   0.290   6.975   1.423 -0.6491  0.1407 -0.8096
 3635TIP3   OH232539   2.731   3.196   0.336  0.0834  0.1112 -0.0028
 3635TIP3    H132540   2.664   3.249   0.293  0.2760  0.3314 -0.0375
 3635TIP3    H232541   2.784   3.161   0.264 -0.3740 -0.5888 -0.0119
 3636TIP3   OH232542   6.796   6.156   0.068  0.4097 -0.1663 -0.5293
 3636TIP3    H132543   6.877   6.207   0.062 -1.2079  2.4918 -2.3191
 3636TIP3    H232544   6.742   6.204   0.131 -0.7070 -0.3724 -1.3012
 3637TIP3   OH232545   4.754   6.892   7.057 -0.2356  0.8425  0.0146
 3637TIP3    H132546   4.832   6.947   7.050  0.0646  0.4723  0.3899
 3637TIP3    H232547   4.681   6.951   7.042  0.1386  1.1007 -0.8572
 3638TIP3   OH232548   2.952   5.820   1.004 -0.2569 -0.3130 -0.2631
 3638TIP3    H132549   3.002   5.881   0.949  1.5455 -0.1303  1.4763
 3638TIP3    H232550   3.005   5.810   1.083 -1.3057 -2.8813  0.2049
 3639TIP3   OH232551   1.586   3.037   5.713 -0.1967 -0.2024  0.3982
 3639TIP3    H132552   1.545   3.114   5.673  0.5006  0.0464  0.1460
 3639TIP3    H232553   1.517   2.998   5.766 -0.5662  0.5809  0.5032
 3640TIP3   OH232554   6.662   1.451   1.098  0.2810  0.2382  0.2080
 3640TIP3    H132555   6.601   1.522   1.080 -0.8042 -0.2483  1.7733
 3640TIP3    H232556   6.643   1.385   1.031 -1.4791 -0.2223  1.1049
 3641TIP3   OH232557   4.770   3.537   6.127  0.2258  0.2567  0.0829
 3641TIP3    H132558   4.823   3.575   6.057 -1.5091  1.0573 -0.8511
 3641TIP3    H232559   4.708   3.479   6.083 -1.5344  1.4939  0.7838
 3642TIP3   OH232560   6.920   5.412   7.411 -0.5147 -0.3252 -0.1394
 3642TIP3    H132561   6.982   5.354   7.456  0.9183  1.3450  0.1622
 3642TIP3    H232562   6.889   5.471   7.479 -3.4455 -1.8522 -0.0287
 3643TIP3   OH232563   2.493   3.954   8.048  0.2013  0.8136 -0.3173
 3643TIP3    H132564   2.503   4.049   8.059  2.1300  0.4867  1.3430
 3643TIP3    H232565   2.445   3.926   8.127  1.5712  0.1661  0.3072
 3644TIP3   OH232566   1.610   2.503   1.323 -0.8191  0.0642 -0.5545
 3644TIP3    H132567   1.693   2.474   1.360 -0.6511  0.6290 -0.4772
 3644TIP3    H232568   1.625   2.594   1.299 -1.3759  0.1308 -0.6674
 3645TIP3   OH232569   2.942   1.720   1.298  0.0696 -0.0529 -0.0470
 3645TIP3    H132570   2.913   1.682   1.381  0.9011  0.4350  0.4836
 3645TIP3    H232571   3.037   1.724   1.306  0.1159  0.5403 -0.7900
 3646TIP3   OH232572   1.142   5.659   0.922  0.1215  0.1856 -0.2732
 3646TIP3    H132573   1.162   5.713   0.998  0.3047 -0.0770 -0.1335
 3646TIP3    H232574   1.047   5.670   0.910  0.1404  0.4577 -0.1865
 3647TIP3   OH232575   2.376   6.911   0.505  1.0162 -0.8296  0.2998
 3647TIP3    H132576   2.353   6.827   0.466  2.2769 -1.6949  1.2969
 3647TIP3    H232577   2.386   6.892   0.598  0.0335  0.7325  0.7566
 3648TIP3   OH232578   6.476   3.645   1.583  0.6430 -0.0533 -0.3391
 3648TIP3    H132579   6.421   3.722   1.569 -0.1644 -0.7697 -1.3109
 3648TIP3    H232580   6.430   3.594   1.650  0.9217  0.0777 -0.0472
 3649TIP3   OH232581   6.253   2.592   7.353 -0.3863 -0.0558 -0.2393
 3649TIP3    H132582   6.317   2.656   7.386 -1.2100  0.7677 -0.2022
 3649TIP3    H232583   6.171   2.641   7.348 -0.5698 -0.4931 -2.3425
 3650TIP3   OH232584   1.406   2.190   6.397  0.0251 -0.4901  0.4744
 3650TIP3    H132585   1.407   2.107   6.349  0.3559 -0.3052  0.1650
 3650TIP3    H232586   1.324   2.231   6.371  0.8771  0.2862 -1.0942
 3651TIP3   OH232587   0.852   0.144   0.362 -0.3655 -0.1887  0.9987
 3651TIP3    H132588   0.814   0.117   0.279 -0.9688 -0.7610  1.4571
 3651TIP3    H232589   0.915   0.075   0.384  2.2845  1.5533 -0.5901
 3652TIP3   OH232590   0.134   6.920   6.033  0.5459 -0.1889  0.3215
 3652TIP3    H132591   0.065   6.966   6.080 -0.1127 -1.1851  0.3751
 3652TIP3    H232592   0.091   6.841   5.999  1.0105  0.4298 -1.8897
 3653TIP3   OH232593   4.725   5.376   0.028 -0.3777  1.2634 -0.4066
 3653TIP3    H132594   4.812   5.347   0.001 -1.5711 -0.1630 -3.1985
 3653TIP3    H232595   4.666   5.307  -0.004 -2.5720  2.3038  1.1409
 3654TIP3   OH232596   2.373   5.786   0.297 -0.1967  0.1834 -0.2562
 3654TIP3    H132597   2.326   5.726   0.354  2.2640 -0.6344  1.0633
 3654TIP3    H232598   2.388   5.736   0.217 -2.9162  1.0469 -1.4335
 3655TIP3   OH232599   1.809   4.986   7.858  0.2151 -0.4763  0.2804
 3655TIP3    H132600   1.742   4.942   7.910  1.2329 -1.5325  0.7529
 3655TIP3    H232601   1.769   5.069   7.832 -1.1869 -0.9907  0.7080
 3656TIP3   OH232602   4.754   2.832   7.396  0.8187  0.0302  0.0094
 3656TIP3    H132603   4.743   2.746   7.436  0.3005  0.0476 -0.0926
 3656TIP3    H232604   4.844   2.832   7.364  1.0617 -0.1915  0.6736
 3657TIP3   OH232605   4.396   6.885   7.886 -0.1615 -0.2516  0.0142
 3657TIP3    H132606   4.406   6.923   7.799  0.3881  0.8661  0.5553
 3657TIP3    H232607   4.317   6.831   7.879 -0.7498  0.6863 -0.8801
 3658TIP3   OH232608   6.036   2.783   6.445 -0.1061  0.0386 -0.3852
 3658TIP3    H132609   5.993   2.729   6.378  1.1085 -0.6724 -0.6412
 3658TIP3    H232610   6.041   2.870   6.406 -0.4498 -0.0954 -0.7366
 3659TIP3   OH232611   0.018   4.324   2.037  0.3261 -0.5410 -0.1404
 3659TIP3    H132612  -0.024   4.399   2.077  0.3713 -0.7893  0.3815
 3659TIP3    H232613  -0.021   4.248   2.080  0.4529 -0.8118 -0.4910
 3660TIP3   OH232614   0.841   6.971   8.009  0.5272  0.0152 -0.2655
 3660TIP3    H132615   0.890   6.990   8.089  1.0927 -1.0307 -0.3528
 3660TIP3    H232616   0.860   6.879   7.990 -2.4446 -0.8613  0.3839
 3661TIP3   OH232617   6.836   0.614   1.436  0.2395 -0.1997  0.0737
 3661TIP3    H132618   6.814   0.703   1.409 -1.3581 -0.1645  1.3313
 3661TIP3    H232619   6.874   0.623   1.524 -1.5042 -0.8376  0.9449
 3662TIP3   OH232620   4.833   0.863   0.437 -0.0374  0.3377  0.3025
 3662TIP3    H132621   4.819   0.957   0.448  1.8045  0.4913  1.8111
 3662TIP3    H232622   4.922   0.847   0.467 -0.7661 -2.1165  1.4869
 3663TIP3   OH232623   0.677   4.640   8.238  0.0231  0.2639 -0.6453
 3663TIP3    H132624   0.610   4.579   8.269 -1.1252  2.1809  0.8235
 3663TIP3    H232625   0.707   4.685   8.316  0.4163  1.9738 -1.7303
 3664TIP3   OH232626   0.177   3.667   1.812 -0.2458 -0.3781 -0.5077
 3664TIP3    H132627   0.255   3.650   1.864 -0.4933  1.8092  0.6977
 3664TIP3    H232628   0.119   3.594   1.832 -0.5539  0.6066  2.8755
 3665TIP3   OH232629   4.129   4.942   6.347 -0.4686 -0.6859  0.5904
 3665TIP3    H132630   4.047   4.892   6.351  0.5088 -2.2704  2.7024
 3665TIP3    H232631   4.168   4.930   6.433  1.6237  0.7032 -0.1051
 3666TIP3   OH232632   5.884   4.424   0.420 -0.4006  0.3877  0.3175
 3666TIP3    H132633   5.932   4.389   0.344 -0.5981  1.7545 -0.4715
 3666TIP3    H232634   5.900   4.360   0.489 -0.5851 -1.1546 -0.9851
 3667TIP3   OH232635   6.559   2.528   2.164 -0.0876 -0.1987 -0.4040
 3667TIP3    H132636   6.565   2.617   2.201  1.2176 -0.6209  0.4810
 3667TIP3    H232637   6.632   2.524   2.102  1.9853 -1.6827  1.9658
 3668TIP3   OH232638   4.575   6.078   6.864 -0.1099  0.0793 -0.0461
 3668TIP3    H132639   4.570   6.019   6.939  1.8104 -0.8927 -0.6253
 3668TIP3    H232640   4.508   6.145   6.882 -0.5136 -0.7791  1.9220
 3669TIP3   OH232641   3.305   4.259   7.402  0.2368 -0.3235 -0.1311
 3669TIP3    H132642   3.339   4.205   7.473 -1.3669 -0.9888  0.1738
 3669TIP3    H232643   3.227   4.212   7.371  0.6466  0.1634 -2.0596
 3670TIP3   OH232644   6.063   0.104   1.371 -0.0416  0.7774 -0.3294
 3670TIP3    H132645   6.027   0.147   1.448 -0.4354  1.2537 -0.7739
 3670TIP3    H232646   6.116   0.032   1.406 -1.6024 -0.1024  0.3349
 3671TIP3   OH232647   3.816   4.983   0.738  0.6146  0.3659 -0.1488
 3671TIP3    H132648   3.778   5.057   0.690  2.0915  0.0709 -1.8920
 3671TIP3    H232649   3.795   4.906   0.684  1.7324 -0.0739  0.0069
 3672TIP3   OH232650   5.259   1.353   0.580  0.0237  1.0599 -0.6159
 3672TIP3    H132651   5.276   1.262   0.603 -0.9350  1.6010  2.6747
 3672TIP3    H232652   5.337   1.400   0.610  0.1665  1.4652 -1.5688
 3673TIP3   OH232653   0.877   6.728   1.287 -0.3431  0.0453  0.4667
 3673TIP3    H132654   0.807   6.792   1.303 -0.4118 -0.1502  0.9846
 3673TIP3    H232655   0.913   6.752   1.202 -3.2240 -1.8514 -1.4411
 3674TIP3   OH232656   0.553   4.581   6.672  0.4447  0.7252 -0.0399
 3674TIP3    H132657   0.459   4.564   6.685  0.7392  0.1539  1.6480
 3674TIP3    H232658   0.582   4.513   6.613 -0.1335  0.6638 -0.2607
 3675TIP3   OH232659   0.721   4.055   6.711 -0.2576  0.2886 -0.1159
 3675TIP3    H132660   0.678   4.079   6.793 -0.5105 -1.1998  0.2076
 3675TIP3    H232661   0.649   4.036   6.651 -0.0681  0.3211 -0.3540
 3676TIP3   OH232662   0.040   2.248   8.040 -0.2435 -0.3253  0.3159
 3676TIP3    H132663  -0.031   2.299   8.000  0.6915  1.0275  0.3084
 3676TIP3    H232664  -0.004   2.171   8.075 -1.8127  0.6810  0.7093
 3677TIP3   OH232665   5.259   5.286   7.651  0.3484  0.0141 -0.0066
 3677TIP3    H132666   5.310   5.206   7.664 -0.0589 -0.2446  0.0148
 3677TIP3    H232667   5.300   5.328   7.575  1.5728  0.5993  0.9328
 3678TIP3   OH232668   0.404   6.709   5.849 -0.5703 -0.5793  0.0566
 3678TIP3    H132669   0.426   6.617   5.857 -0.5298 -0.6085 -0.3667
 3678TIP3    H232670   0.314   6.716   5.880 -1.8244 -1.3555 -3.0608
 3679TIP3   OH232671   0.812   5.864   0.652 -0.5437 -0.0637  0.1284
 3679TIP3    H132672   0.895   5.901   0.624  0.2401 -1.9055 -0.1531
 3679TIP3    H232673   0.751   5.886   0.581  0.0661  0.0799 -0.3650
 3680TIP3   OH232674   0.601   2.133   0.348  0.2235  0.0670 -0.0938
 3680TIP3    H132675   0.579   2.044   0.377 -0.4371  0.5215  0.8325
 3680TIP3    H232676   0.667   2.163   0.410 -0.6686  0.7780  0.5420
 3681TIP3   OH232677   6.454   5.197   1.391  0.0074  0.0728 -0.0022
 3681TIP3    H132678   6.547   5.196   1.366  0.3739 -3.0057  1.0248
 3681TIP3    H232679   6.433   5.105   1.407 -2.7355  0.8675  1.6237
 3682TIP3   OH232680   0.538   3.183   0.666  0.2020  0.5031 -0.3066
 3682TIP3    H132681   0.470   3.232   0.618 -0.1938 -0.5456 -0.8476
 3682TIP3    H232682   0.560   3.240   0.740  0.1726  1.7633 -1.2228
 3683TIP3   OH232683   2.328   5.176   7.427 -0.1869 -0.4210 -0.6572
 3683TIP3    H132684   2.364   5.099   7.383 -1.2468 -1.3656  0.0923
 3683TIP3    H232685   2.405   5.230   7.447  0.5284 -1.0719 -1.5530
 3684TIP3   OH232686   1.665   3.812   7.530 -0.0943 -0.1523  0.4510
 3684TIP3    H132687   1.671   3.845   7.440  0.2690  1.8949  1.1745
 3684TIP3    H232688   1.676   3.889   7.585 -1.8076 -1.1041  2.2691
 3685TIP3   OH232689   0.465   3.234   6.276  0.1927  0.2863 -0.7267
 3685TIP3    H132690   0.372   3.236   6.298  0.5792  1.4766  0.9962
 3685TIP3    H232691   0.506   3.181   6.344  1.1345  2.2429  0.3231
 3686TIP3   OH232692   6.295   4.346   5.733  0.5645  0.3509 -0.0885
 3686TIP3    H132693   6.244   4.412   5.685 -1.3106 -1.2632 -0.4769
 3686TIP3    H232694   6.385   4.360   5.704 -0.0105  1.6644 -1.4114
 3687TIP3   OH232695   6.187   5.259   7.504  0.5258 -0.0762 -0.6598
 3687TIP3    H132696   6.246   5.307   7.563  0.4851 -1.1632  0.2853
 3687TIP3    H232697   6.244   5.229   7.433  1.2129 -1.4329  0.4312
 3688TIP3   OH232698   2.628   4.069   0.796 -0.1240 -0.1883 -0.1960
 3688TIP3    H132699   2.709   4.031   0.828 -0.2642  1.1883  2.0330
 3688TIP3    H232700   2.578   3.995   0.763  2.2795 -0.9806 -2.3977
 3689TIP3   OH232701   2.391   4.673   0.923  0.4692 -0.6619 -0.4575
 3689TIP3    H132702   2.438   4.748   0.887  0.8943 -0.0628  1.2236
 3689TIP3    H232703   2.442   4.648   1.000  0.2795 -2.6385 -0.9198
 3690TIP3   OH232704   4.062   2.545   0.815 -0.2750 -0.1737 -0.7588
 3690TIP3    H132705   4.036   2.635   0.836  1.0448 -0.2534  1.6236
 3690TIP3    H232706   4.004   2.490   0.868  1.4606 -0.5065  0.9196
 3691TIP3   OH232707   2.578   3.125   7.914 -0.3012 -0.4946 -0.2678
 3691TIP3    H132708   2.646   3.182   7.950  0.1374 -2.0762  1.6228
 3691TIP3    H232709   2.498   3.177   7.917  0.3025  0.4228  0.2476
 3692TIP3   OH232710   3.916   2.760   7.988  0.3115 -0.4112  0.1539
 3692TIP3    H132711   3.961   2.719   7.915  1.8554 -2.1348  1.9339
 3692TIP3    H232712   3.897   2.687   8.048  0.0913  1.0500  1.9609
 3693TIP3   OH232713   0.236   0.448   7.832 -0.2316  0.0651  0.1166
 3693TIP3    H132714   0.282   0.477   7.753  0.2603 -0.0654  0.3530
 3693TIP3    H232715   0.241   0.352   7.828 -1.1593  0.0237 -0.2534
 3694TIP3   OH232716   4.214   6.838   8.216  0.0499  0.2966 -0.5027
 3694TIP3    H132717   4.163   6.794   8.148  1.0859 -1.5584 -0.1524
 3694TIP3    H232718   4.182   6.929   8.215 -2.0164 -0.3813 -1.4158
 3695TIP3   OH232719   4.603   6.607   7.428  0.1476 -0.0532 -0.0733
 3695TIP3    H132720   4.573   6.527   7.472  1.0857 -0.4894 -0.2168
 3695TIP3    H232721   4.666   6.577   7.363 -0.3548  0.7035 -0.9338
 3696TIP3   OH232722   6.503   3.626   7.355 -0.1186 -0.3210 -0.7251
 3696TIP3    H132723   6.507   3.676   7.274  0.0955  0.3150 -0.3261
 3696TIP3    H232724   6.563   3.671   7.414 -0.3190 -0.7454 -0.1896
 3697TIP3   OH232725   5.327   3.046   0.943  0.0698  0.5197  0.0227
 3697TIP3    H132726   5.310   3.056   1.037  0.0826 -0.7492  0.1845
 3697TIP3    H232727   5.285   2.963   0.920  0.5109  0.5600 -0.9806
 3698TIP3   OH232728   3.246   3.005   8.124 -0.0890  0.0223  0.0935
 3698TIP3    H132729   3.288   2.919   8.133 -0.8482 -0.5869 -1.8069
 3698TIP3    H232730   3.153   2.987   8.135 -0.2017  0.7466  0.3932
 3699TIP3   OH232731   4.132   2.288   6.352  0.0936 -0.0685 -0.4167
 3699TIP3    H132732   4.104   2.213   6.405 -1.2526  1.1058  0.6149
 3699TIP3    H232733   4.051   2.320   6.313  0.8937 -0.1316 -2.2073
 3700TIP3   OH232734   1.819   5.670   6.530  0.1928  0.3040 -0.0960
 3700TIP3    H132735   1.754   5.740   6.521 -0.4621 -0.0773  1.3108
 3700TIP3    H232736   1.900   5.715   6.553  0.6074  0.8306 -2.4197
 3701TIP3   OH232737   4.112   6.390   1.245 -0.4920 -0.0559 -0.5016
 3701TIP3    H132738   4.037   6.375   1.188  0.0551  0.5400 -1.4138
 3701TIP3    H232739   4.075   6.397   1.333 -1.4299 -0.3264 -0.8633
 3702TIP3   OH232740   2.290   4.899   7.843  0.4575  1.0892  0.0980
 3702TIP3    H132741   2.366   4.929   7.894  0.1564  0.7212  0.7721
 3702TIP3    H232742   2.238   4.978   7.829  0.7715  1.2758 -0.0489
 3703TIP3   OH232743   3.345   2.716   6.158  0.4416 -0.2743 -0.3227
 3703TIP3    H132744   3.308   2.800   6.185 -0.2047 -0.6135 -0.1355
 3703TIP3    H232745   3.277   2.651   6.180  1.3055 -0.9587  0.4075
 3704TIP3   OH232746   4.688   1.833   1.308 -0.2010  0.1327  0.7022
 3704TIP3    H132747   4.778   1.858   1.286 -0.3885  0.9810  0.8626
 3704TIP3    H232748   4.684   1.837   1.404 -0.0586 -1.1946  0.7908
 3705TIP3   OH232749   1.145   0.053   7.873  0.0652  0.4137 -0.4318
 3705TIP3    H132750   1.124   0.020   7.785 -3.3590  2.3326 -0.4987
 3705TIP3    H232751   1.127   0.147   7.868 -0.5227  0.5256  2.3854
 3706TIP3   OH232752   2.272   2.683   8.260  0.5728  0.2491 -0.0735
 3706TIP3    H132753   2.220   2.695   8.181  1.4360 -0.0744 -0.7091
 3706TIP3    H232754   2.233   2.606   8.303  1.1569 -0.6389 -1.0855
 3707TIP3   OH232755   2.714   6.097   1.469 -0.9492 -0.0878  0.7589
 3707TIP3    H132756   2.678   6.144   1.394 -2.6350  0.2083  1.6879
 3707TIP3    H232757   2.678   6.008   1.461 -2.7813  0.4428  2.1673
 3708TIP3   OH232758   2.861   3.552   6.559  0.5170  0.1600 -0.0848
 3708TIP3    H132759   2.811   3.479   6.523  0.3581  0.3631 -0.2807
 3708TIP3    H232760   2.799   3.624   6.562  0.3293 -0.0376  1.2635
 3709TIP3   OH232761   6.677   3.616   8.025 -0.3451 -0.4468 -0.0434
 3709TIP3    H132762   6.638   3.632   7.940  0.6375  1.3731 -0.2154
 3709TIP3    H232763   6.741   3.546   8.010  0.2198  0.2371 -0.9649
 3710TIP3   OH232764   0.653   0.455   2.061  0.0826  0.3162 -0.2160
 3710TIP3    H132765   0.726   0.462   1.999 -0.7583 -0.8567 -1.4199
 3710TIP3    H232766   0.616   0.368   2.043 -0.5049  0.1568  1.6272
 3711TIP3   OH232767   6.215   0.362   8.075  0.5447 -0.1996  0.3211
 3711TIP3    H132768   6.148   0.335   8.013  0.1059  0.4678  0.5058
 3711TIP3    H232769   6.169   0.375   8.157  0.5803  1.9033  0.0637
 3712TIP3   OH232770   4.101   5.651   7.047 -0.0295  0.0782 -0.1724
 3712TIP3    H132771   4.067   5.614   6.965  0.6799 -0.3825 -0.2686
 3712TIP3    H232772   4.023   5.679   7.095 -0.5047 -0.3937 -0.6528
 3713TIP3   OH232773   5.270   5.225   6.946 -0.2704 -0.2768 -0.6621
 3713TIP3    H132774   5.282   5.253   7.037 -0.9940 -1.2471 -0.2497
 3713TIP3    H232775   5.178   5.200   6.941 -0.2446 -0.1809 -1.6801
 3714TIP3   OH232776   2.719   6.971   7.422 -0.6693 -0.0843 -0.4322
 3714TIP3    H132777   2.717   6.875   7.422  0.2914 -0.1204 -0.2304
 3714TIP3    H232778   2.677   6.995   7.505  0.1058 -0.3782  0.0562
 3715TIP3   OH232779   4.600   4.620   7.319 -0.5542 -0.1092  0.0429
 3715TIP3    H132780   4.505   4.630   7.321 -0.5191  0.4051  1.9632
 3715TIP3    H232781   4.615   4.526   7.327 -0.9344 -0.0766  1.4137
 3716TIP3   OH232782   2.926   2.604   7.404  0.0129  0.0713 -0.0505
 3716TIP3    H132783   2.963   2.518   7.423 -1.0829 -0.3306  0.3343
 3716TIP3    H232784   2.860   2.588   7.337  0.3663  0.7355 -0.5646
 3717TIP3   OH232785   4.956   1.414   0.802  0.1951  0.1006  0.3118
 3717TIP3    H132786   4.938   1.398   0.709 -0.9620  0.0312  0.5404
 3717TIP3    H232787   5.051   1.428   0.805  0.7081 -2.5724 -0.5039
 3718TIP3   OH232788   6.554   4.179   1.292  0.2604  0.3539 -0.0394
 3718TIP3    H132789   6.458   4.181   1.292  0.2417 -0.1318  0.7940
 3718TIP3    H232790   6.576   4.109   1.231  0.0452 -0.2936  0.6043
 3719TIP3   OH232791   3.545   3.742   6.827 -0.1423 -0.0702 -0.5074
 3719TIP3    H132792   3.496   3.689   6.764  0.8709  0.1677 -1.5289
 3719TIP3    H232793   3.478   3.786   6.879 -1.0039 -0.1053 -1.5621
 3720TIP3   OH232794   5.587   1.166   7.396  0.0110  0.3498  0.1469
 3720TIP3    H132795   5.680   1.149   7.380  0.0502  0.8894 -0.2000
 3720TIP3    H232796   5.546   1.080   7.388  0.5241  0.0478  0.6446
 3721TIP3   OH232797   0.442   4.450   8.040 -0.3878  0.3858 -0.3248
 3721TIP3    H132798   0.447   4.435   8.135  1.5598 -1.3855 -0.6477
 3721TIP3    H232799   0.370   4.394   8.011 -1.9060  1.9574  0.2231
 3722TIP3   OH232800   6.894   5.498   2.051 -0.1388  1.0850  0.6687
 3722TIP3    H132801   6.922   5.587   2.032 -0.0371  1.0390  0.6064
 3722TIP3    H232802   6.799   5.499   2.037  0.0437  0.8215 -0.7396
 3723TIP3   OH232803   4.173   4.051   7.586 -0.2894 -1.1392 -0.1936
 3723TIP3    H132804   4.210   4.071   7.672 -1.5183  0.3675  0.0378
 3723TIP3    H232805   4.246   4.019   7.534  0.8297 -0.4701  0.9261
 3724TIP3   OH232806   4.196   1.187   1.290 -0.5592  0.1479 -0.6255
 3724TIP3    H132807   4.238   1.159   1.210  0.1799  1.1922 -0.6253
 3724TIP3    H232808   4.176   1.106   1.338 -0.1744 -0.4264 -1.4346
 3725TIP3   OH232809   2.074   0.028   8.071  0.0976  0.3054 -0.3377
 3725TIP3    H132810   2.036  -0.059   8.056 -0.8397  0.3047  1.7629
 3725TIP3    H232811   2.153   0.010   8.123 -0.9259  0.7458  1.4609
 3726TIP3   OH232812   4.008   5.560   7.614  0.8057 -0.3804  0.4701
 3726TIP3    H132813   3.999   5.555   7.709  1.0621 -2.8753  0.4379
 3726TIP3    H232814   4.007   5.468   7.585  0.2567  0.3216 -1.9835
 3727TIP3   OH232815   6.340   1.508   0.150  0.3350 -0.3631 -0.8298
 3727TIP3    H132816   6.381   1.467   0.074  0.6166 -1.6936  0.0075
 3727TIP3    H232817   6.411   1.556   0.193  0.4080 -0.4491 -0.8534
 3728TIP3   OH232818   1.903   6.770   1.416  0.2389  0.4297 -0.6082
 3728TIP3    H132819   1.945   6.722   1.486  1.6842  1.0838 -0.9832
 3728TIP3    H232820   1.810   6.749   1.424  0.5396 -0.4961  0.6960
 3729TIP3   OH232821   0.856   3.211   0.844 -0.2557 -0.0599 -0.1462
 3729TIP3    H132822   0.772   3.222   0.889  0.5577  1.5501  1.1372
 3729TIP3    H232823   0.835   3.216   0.751 -1.7692 -1.4382  0.0875
 3730TIP3   OH232824   5.548   6.351   1.280 -0.1404 -0.1464  0.7932
 3730TIP3    H132825   5.551   6.431   1.228  0.5572  0.5836  1.9008
 3730TIP3    H232826   5.456   6.339   1.302 -0.8075 -1.6031 -2.2041
 3731TIP3   OH232827   5.786   2.904   0.534 -0.1282 -0.4422  0.2018
 3731TIP3    H132828   5.708   2.849   0.538 -0.6332  0.2918  0.4577
 3731TIP3    H232829   5.859   2.841   0.539 -0.6484 -1.2908 -1.6726
 3732TIP3   OH232830   0.950   2.882   0.376 -0.0652 -0.0423 -0.1174
 3732TIP3    H132831   0.861   2.906   0.352 -0.3446 -1.7664 -0.9145
 3732TIP3    H232832   0.956   2.902   0.469  0.0231  3.7915 -0.7749
 3733TIP3   OH232833   1.600   1.930   1.385 -0.2397  0.4247  0.8511
 3733TIP3    H132834   1.544   1.925   1.463 -1.4361  2.0297  0.1379
 3733TIP3    H232835   1.540   1.928   1.311  0.8899 -1.1268 -0.0871
 3734TIP3   OH232836   7.082   5.149   7.676  0.5001 -0.0464  0.1464
 3734TIP3    H132837   7.103   5.186   7.590 -0.2177  0.0046 -0.0091
 3734TIP3    H232838   7.002   5.193   7.703 -0.4602 -1.5523 -0.1104
 3735TIP3   OH232839   2.760   2.951   7.737 -0.0998 -0.2701 -0.2791
 3735TIP3    H132840   2.781   3.007   7.661  1.9325 -1.0904 -0.3850
 3735TIP3    H232841   2.679   2.987   7.771 -0.1687  1.1914 -1.8395
 3736TIP3   OH232842   5.997   5.893   6.002 -0.1699 -0.4246  0.3193
 3736TIP3    H132843   6.085   5.930   6.008  0.3520 -1.7246  0.9504
 3736TIP3    H232844   5.939   5.969   6.004  0.9775  0.7054 -2.8202
 3737TIP3   OH232845   0.857   4.172   6.388 -0.0111  0.2741 -0.1684
 3737TIP3    H132846   0.787   4.200   6.447 -1.9576 -0.6821 -1.9396
 3737TIP3    H232847   0.834   4.209   6.303  1.4499 -0.3755 -0.8852
 3738TIP3   OH232848   1.300   4.197   0.698  0.1518  0.3939  0.1365
 3738TIP3    H132849   1.272   4.126   0.756  0.7788  0.2322  0.2540
 3738TIP3    H232850   1.349   4.153   0.628 -0.1834  0.6342 -0.2512
 3739TIP3   OH232851   0.802   0.816   7.548 -0.1589  0.6375 -0.2082
 3739TIP3    H132852   0.765   0.890   7.500  2.3997  1.8871 -0.4373
 3739TIP3    H232853   0.895   0.815   7.524  0.4901 -0.9109  1.9749
 3740TIP3   OH232854   1.972   6.180   0.542 -0.0342  0.4075  0.0898
 3740TIP3    H132855   1.989   6.105   0.485 -2.1547  0.9040 -1.3398
 3740TIP3    H232856   2.006   6.255   0.493  0.5500  0.5607  0.7268
 3741TIP3   OH232857   5.606   5.354   0.972  0.8155  0.6691 -0.1739
 3741TIP3    H132858   5.560   5.438   0.963  1.4532  1.2901  1.8695
 3741TIP3    H232859   5.697   5.374   0.952  1.2501  0.8713  1.7678
 3742TIP3   OH232860   0.543   2.688   6.752  0.1652  0.2261  0.0354
 3742TIP3    H132861   0.617   2.653   6.801 -0.8310 -0.0683  1.4002
 3742TIP3    H232862   0.506   2.755   6.810 -0.3590  0.6778 -0.8076
 3743TIP3   OH232863   0.539   6.501   6.105  0.7583  0.0595  0.1262
 3743TIP3    H132864   0.570   6.411   6.114  0.0838 -0.3663 -1.5578
 3743TIP3    H232865   0.478   6.512   6.178  0.9958 -0.7695  0.4684
 3744TIP3   OH232866   1.348   1.035   1.924  0.1735  0.1662 -0.1166
 3744TIP3    H132867   1.266   1.079   1.948 -0.6090 -2.1037  1.8380
 3744TIP3    H232868   1.394   1.024   2.008  1.9327  0.3110 -1.0237
 3745TIP3   OH232869   0.237   1.976   1.148  0.2005  0.2004  0.8868
 3745TIP3    H132870   0.298   1.916   1.105 -0.0529  0.4113  0.2224
 3745TIP3    H232871   0.279   2.062   1.140  0.2435  0.2149  1.2405
 3746TIP3   OH232872   3.666   3.026   1.419 -0.6329  0.9885 -0.6581
 3746TIP3    H132873   3.618   3.073   1.487 -0.2482 -0.0273  0.3512
 3746TIP3    H232874   3.646   3.073   1.338 -2.0647  1.5095 -0.0325
 3747TIP3   OH232875   3.355   1.483   1.384 -0.2883 -0.0425 -0.2556
 3747TIP3    H132876   3.439   1.450   1.415  0.7799  0.9740 -1.8929
 3747TIP3    H232877   3.333   1.428   1.309 -1.3359 -0.5918  0.4348
 3748TIP3   OH232878   6.724   1.588   1.993  0.4207 -0.3203  0.1223
 3748TIP3    H132879   6.661   1.588   2.065 -0.0496  1.0236 -0.2508
 3748TIP3    H232880   6.692   1.656   1.934  1.7788 -0.1807 -0.4887
 3749TIP3   OH232881   1.427   6.154   6.344 -0.1313  0.1253 -0.2646
 3749TIP3    H132882   1.348   6.152   6.290  1.5854 -0.1248 -2.9614
 3749TIP3    H232883   1.418   6.079   6.403 -2.1644  0.5110 -0.0170
 3750TIP3   OH232884   2.928   6.883   7.288 -0.2813 -0.1584 -0.3273
 3750TIP3    H132885   2.930   6.798   7.333  0.1920  0.1254  0.2010
 3750TIP3    H232886   2.877   6.939   7.346  0.4255  0.2417 -0.0740
 3751TIP3   OH232887   4.195   3.622   1.592 -0.1821  0.5733 -0.3975
 3751TIP3    H132888   4.161   3.661   1.673 -0.4093  0.5625 -0.4879
 3751TIP3    H232889   4.282   3.662   1.582  1.2291 -1.7594  1.5299
 3752TIP3   OH232890   3.695   3.964   6.782  0.0687  0.0127  0.2327
 3752TIP3    H132891   3.772   3.937   6.832  0.2103  0.5916  0.3405
 3752TIP3    H232892   3.632   3.894   6.795  0.1822  0.0478  1.0481
 3753TIP3   OH232893   3.355   0.231   6.135 -0.9271  0.0645 -0.9279
 3753TIP3    H132894   3.272   0.183   6.137 -0.6552 -0.3825 -0.0989
 3753TIP3    H232895   3.334   0.317   6.171 -0.9935 -0.1193 -0.5213
 3754TIP3   OH232896   5.380   1.778   1.428  0.2388  0.9175 -0.0652
 3754TIP3    H132897   5.409   1.719   1.359  0.6222 -0.1446  0.9691
 3754TIP3    H232898   5.320   1.839   1.385  0.9884  0.7112 -1.4536
 3755TIP3   OH232899   4.644   3.383   0.295  0.1467 -0.4395  0.0351
 3755TIP3    H132900   4.664   3.316   0.229  0.6088 -1.0669  0.7952
 3755TIP3    H232901   4.701   3.457   0.273  0.7648 -0.8904  0.0979
 3756TIP3   OH232902   4.830   2.167   6.244 -0.3344 -0.5993 -0.6238
 3756TIP3    H132903   4.914   2.211   6.252 -1.1312  0.9366 -0.1912
 3756TIP3    H232904   4.848   2.076   6.266  0.9053  0.0187  1.1405
 3757TIP3   OH232905   6.648   5.284   7.021 -0.2353 -0.2839  0.0988
 3757TIP3    H132906   6.617   5.342   7.091 -2.1275 -0.2253 -0.7188
 3757TIP3    H232907   6.735   5.317   7.000 -0.9572  1.8271  0.1691
 3758TIP3   OH232908   5.737   3.207   6.834 -0.3973  0.0790  0.3129
 3758TIP3    H132909   5.820   3.254   6.845 -1.6219  1.8771  2.5569
 3758TIP3    H232910   5.738   3.179   6.742  0.6534  4.1297 -1.1296
 3759TIP3   OH232911   5.251   4.731   1.363 -0.3708 -1.0306 -0.2284
 3759TIP3    H132912   5.305   4.735   1.443 -0.3685 -0.8117 -0.2397
 3759TIP3    H232913   5.169   4.772   1.388 -0.4342 -1.1196 -0.2904
 3760TIP3   OH232914   3.248   5.115   7.511  0.0009 -0.3489  0.4889
 3760TIP3    H132915   3.195   5.063   7.451 -0.8966 -0.0377  0.9884
 3760TIP3    H232916   3.322   5.146   7.458 -0.7818 -0.0554 -0.4562
 3761TIP3   OH232917   2.324   4.965   0.879 -0.2898 -0.1561  0.3297
 3761TIP3    H132918   2.237   4.977   0.916 -0.7058  1.1529 -0.9926
 3761TIP3    H232919   2.309   4.954   0.785  1.0174  1.2684 -0.0887
 3762TIP3   OH232920   4.353   1.722   5.928 -0.3678  0.0104 -0.2529
 3762TIP3    H132921   4.302   1.654   5.884  1.2006 -1.7165  0.4204
 3762TIP3    H232922   4.346   1.701   6.021  1.8118 -0.5679 -0.1535
 3763TIP3   OH232923   4.779   5.609   1.610 -0.3856 -0.5399  0.2119
 3763TIP3    H132924   4.848   5.627   1.674 -1.4989 -1.0279  1.5947
 3763TIP3    H232925   4.738   5.694   1.594 -0.4468 -0.5086  0.5429
 3764TIP3   OH232926   5.149   4.044   6.946  0.3622 -0.8362 -0.5135
 3764TIP3    H132927   5.240   4.051   6.916  0.4873 -1.7514 -0.3765
 3764TIP3    H232928   5.099   4.089   6.878  0.9738  0.3077 -0.2308
 3765TIP3   OH232929   5.027   1.240   7.756 -0.2815  0.2584  0.2688
 3765TIP3    H132930   5.030   1.157   7.804  0.9600 -0.2867 -0.7056
 3765TIP3    H232931   5.015   1.306   7.824 -1.3500 -0.6949  1.0701
 3766TIP3   OH232932   1.777   3.957   7.293 -0.5047 -0.1225  0.2437
 3766TIP3    H132933   1.774   4.047   7.261 -0.9112 -0.3157 -0.2746
 3766TIP3    H232934   1.748   3.904   7.219  0.1120 -0.7152  0.4180
 3767TIP3   OH232935   1.399   5.315   1.837 -0.0041 -0.3286  0.1715
 3767TIP3    H132936   1.305   5.301   1.843 -0.0824  0.2571  0.3069
 3767TIP3    H232937   1.416   5.391   1.891  0.0135  1.9240 -2.7495
 3768TIP3   OH232938   4.832   6.749   0.280 -0.1757 -0.2503  0.0281
 3768TIP3    H132939   4.926   6.764   0.266 -0.1374 -0.7991 -0.3120
 3768TIP3    H232940   4.811   6.802   0.358  0.4021 -0.0908  0.0807
 3769TIP3   OH232941   0.660   0.186   6.496  0.4540  0.6621  0.4251
 3769TIP3    H132942   0.583   0.221   6.451 -0.7456 -1.1793  0.9386
 3769TIP3    H232943   0.714   0.150   6.426  0.0352  0.4627  0.1998
 3770TIP3   OH232944   3.328   3.434   6.213  0.2739 -0.0673 -0.1045
 3770TIP3    H132945   3.392   3.495   6.251 -0.2979  0.2940  0.3063
 3770TIP3    H232946   3.318   3.366   6.280 -0.5241  0.4199  0.2903
 3771TIP3   OH232947   0.918   6.332   1.862 -0.2439  0.0520 -0.3293
 3771TIP3    H132948   0.855   6.275   1.819 -0.3376 -1.9852  2.2533
 3771TIP3    H232949   1.004   6.297   1.838 -0.2212  0.3733 -0.7174
 3772TIP3   OH232950   6.823   4.305   2.149  0.1663  0.2672 -0.0873
 3772TIP3    H132951   6.858   4.394   2.147  0.9542 -0.0116 -2.4317
 3772TIP3    H232952   6.900   4.249   2.148 -0.3062 -0.3982 -0.6222
 3773TIP3   OH232953   5.699   3.488   1.968  0.2382  0.1175  0.0471
 3773TIP3    H132954   5.678   3.395   1.976  0.3019  0.0641 -0.3722
 3773TIP3    H232955   5.630   3.522   1.910  1.1499 -0.0062 -1.1465
 3774TIP3   OH232956   1.790   5.941   6.730 -0.1515  0.6470 -0.3369
 3774TIP3    H132957   1.860   5.908   6.674  0.7537 -1.2090  1.7294
 3774TIP3    H232958   1.749   5.862   6.766 -1.9745  1.7384  0.0906
 3775TIP3   OH232959   0.824   6.314   1.534 -0.0325 -1.0152  0.5320
 3775TIP3    H132960   0.767   6.248   1.573 -1.2059 -0.3706 -0.0620
 3775TIP3    H232961   0.913   6.281   1.551 -0.5542 -1.9640  1.5901
 3776TIP3   OH232962   4.598   6.417   1.849  0.2719 -0.0069  0.8263
 3776TIP3    H132963   4.546   6.368   1.913  0.5966 -0.9454  0.4014
 3776TIP3    H232964   4.680   6.367   1.842  0.9980  1.1038  1.0409
 3777TIP3   OH232965   5.080   2.356   6.532 -0.2304 -0.3093  0.3309
 3777TIP3    H132966   5.019   2.429   6.521  1.2543  0.7762 -1.0950
 3777TIP3    H232967   5.095   2.324   6.443 -0.2942 -1.8992  0.8672
 3778TIP3   OH232968   0.878   4.201   7.174 -0.0404 -0.4298 -0.1702
 3778TIP3    H132969   0.923   4.160   7.100 -0.7222 -1.4484 -0.0353
 3778TIP3    H232970   0.901   4.294   7.167  1.1979 -0.7562 -0.7256
 3779TIP3   OH232971   4.333   1.279   0.060 -0.1905 -0.2484 -0.3523
 3779TIP3    H132972   4.321   1.355   0.116 -1.3440  0.2407 -1.2264
 3779TIP3    H232973   4.423   1.288   0.026 -0.1689  0.4842 -0.1060
 3780TIP3   OH232974   4.342   2.175   6.973 -0.0686 -0.2237 -0.4780
 3780TIP3    H132975   4.396   2.103   7.005 -1.0354 -0.6047  0.3340
 3780TIP3    H232976   4.405   2.238   6.938  0.8863 -0.7340  0.2735
 3781TIP3   OH232977   5.635   3.371   1.124  0.0473  0.3734  0.2376
 3781TIP3    H132978   5.592   3.366   1.209 -1.2057  0.3417 -0.3798
 3781TIP3    H232979   5.575   3.328   1.064 -1.4494  4.4175 -1.5382
 3782TIP3   OH232980   5.175   3.586   6.023  0.2261 -0.5081  0.1272
 3782TIP3    H132981   5.169   3.661   5.963 -0.5136  1.0340  2.0448
 3782TIP3    H232982   5.266   3.557   6.016  0.7473  1.0853 -0.0709
 3783TIP3   OH232983   3.875   2.236   7.800  0.0525 -0.1622 -0.0372
 3783TIP3    H132984   3.878   2.141   7.791  0.7660 -0.1173 -0.2966
 3783TIP3    H232985   3.878   2.252   7.894 -0.5863 -0.4072  0.0316
 3784TIP3   OH232986   2.175   4.439   1.189 -0.3797  0.6582 -0.2589
 3784TIP3    H132987   2.145   4.356   1.224  3.1476  0.4930  3.1366
 3784TIP3    H232988   2.120   4.505   1.232 -1.1743  0.1954 -0.5515
 3785TIP3   OH232989   0.466   0.650   0.675 -0.2438 -0.3024 -0.4030
 3785TIP3    H132990   0.513   0.566   0.678  1.1256  0.3881 -1.3979
 3785TIP3    H232991   0.463   0.672   0.582 -0.8334  0.6344 -0.1726
 3786TIP3   OH232992   2.438   1.961   7.886  0.1923 -0.0547 -0.1727
 3786TIP3    H132993   2.475   2.045   7.914 -1.0400  0.6893 -0.6973
 3786TIP3    H232994   2.466   1.899   7.954  0.8349  0.8412  0.4037
 3787TIP3   OH232995   0.812   5.367   0.110 -0.3543 -0.6660 -0.3491
 3787TIP3    H132996   0.752   5.437   0.084  0.4613 -0.0652 -0.6563
 3787TIP3    H232997   0.841   5.392   0.198 -0.6541 -1.0288 -0.1442
 3788TIP3   OH232998   5.281   0.502   8.051 -0.1477  0.0778  0.0574
 3788TIP3    H132999   5.277   0.495   7.956 -1.8878  0.6447  0.0583
 3788TIP3    H233000   5.373   0.521   8.070  0.3394 -0.6008 -1.4472
 3789TIP3   OH233001   6.918   1.246   0.070  0.3252 -0.1762 -0.4357
 3789TIP3    H133002   6.839   1.196   0.049  0.0545  0.4202 -0.8679
 3789TIP3    H233003   6.977   1.231  -0.004 -0.2625  1.1630 -1.2259
 3790TIP3   OH233004   5.432   4.481   1.734 -0.7395  0.2912  0.3792
 3790TIP3    H133005   5.477   4.482   1.819 -0.9966 -0.4287  0.5325
 3790TIP3    H233006   5.363   4.415   1.745 -1.2273  0.7070 -0.1594
 3791TIP3   OH233007   1.975   4.522   1.382 -0.8712  0.3681  0.0271
 3791TIP3    H133008   2.019   4.489   1.460 -0.3784  2.4137  0.6616
 3791TIP3    H233009   1.884   4.533   1.409 -0.9038  0.1634  0.0053
 3792TIP3   OH233010   2.040   0.416   7.907 -0.7304  0.1670 -0.2755
 3792TIP3    H133011   1.948   0.391   7.911 -1.2216  1.7667 -0.5775
 3792TIP3    H233012   2.047   0.464   7.824  0.1499  0.8279  0.1619
 3793TIP3   OH233013   4.079   2.999   8.042  0.2365 -0.2472  0.2582
 3793TIP3    H133014   4.043   2.919   8.005  0.4285 -0.8823  1.4077
 3793TIP3    H233015   4.080   2.984   8.137  1.4789  0.6059  0.4044
 3794TIP3   OH233016   1.889   1.464   7.368  0.6585 -0.0780 -0.1748
 3794TIP3    H133017   1.802   1.427   7.385  0.7745  0.4384  1.6934
 3794TIP3    H233018   1.883   1.555   7.397  2.1251 -0.3238  0.9953
 3795TIP3   OH233019   3.712   4.205   1.478 -0.4130 -0.0946  0.2741
 3795TIP3    H133020   3.674   4.122   1.507 -2.0650  0.5102 -0.0108
 3795TIP3    H233021   3.777   4.226   1.545  0.0911 -1.6308  0.3159
 3796TIP3   OH233022   6.903   3.504   6.458  0.2779 -0.2437 -0.5660
 3796TIP3    H133023   6.839   3.574   6.470  0.2120 -0.2851 -0.6721
 3796TIP3    H233024   6.908   3.461   6.543 -0.4536 -0.7665 -0.7823
 3797TIP3   OH233025   1.977   2.881   2.119  0.0186  0.2833 -0.0789
 3797TIP3    H133026   1.903   2.888   2.180  1.2477 -0.2408  1.5367
 3797TIP3    H233027   2.032   2.812   2.156 -0.4196 -1.9451 -3.1885
 3798TIP3   OH233028   6.479   4.284   7.230  0.2542 -0.1976  0.3348
 3798TIP3    H133029   6.503   4.288   7.137 -2.0096  0.7415 -0.2887
 3798TIP3    H233030   6.400   4.339   7.236 -0.2825 -1.1345  2.6066
 3799TIP3   OH233031   2.771   6.478   7.022  0.2497 -0.3425 -0.1144
 3799TIP3    H133032   2.682   6.511   7.033  0.1976  0.2302 -1.9499
 3799TIP3    H233033   2.824   6.530   7.083 -0.5846 -0.4051  0.6896
 3800TIP3   OH233034   4.300   6.326   1.033  0.5496 -0.3043  0.5015
 3800TIP3    H133035   4.248   6.347   1.111 -1.4896 -1.2944 -0.5054
 3800TIP3    H233036   4.287   6.401   0.975 -0.1218 -0.7272  0.0908
 3801TIP3   OH233037   1.750   5.685   6.818 -0.2658 -0.4757  0.4255
 3801TIP3    H133038   1.776   5.617   6.757 -1.9085  0.7891 -1.8552
 3801TIP3    H233039   1.654   5.682   6.818 -0.3550 -0.6496  3.2980
 3802TIP3   OH233040   4.779   3.183   2.049 -0.4400  0.5391  1.0756
 3802TIP3    H133041   4.859   3.132   2.067 -1.2527 -1.5175 -0.6594
 3802TIP3    H233042   4.709   3.131   2.088 -1.4731 -0.6804 -2.1245
 3803TIP3   OH233043   4.584   6.244   1.350  0.1172 -0.3344 -0.0959
 3803TIP3    H133044   4.497   6.253   1.388  0.7975 -2.2314  2.1530
 3803TIP3    H233045   4.574   6.176   1.283 -0.3051  0.1031 -0.4796
 3804TIP3   OH233046   5.195   3.605   7.147 -0.9363 -0.0692  0.2891
 3804TIP3    H133047   5.139   3.589   7.223  0.3487  1.8447  1.7431
 3804TIP3    H233048   5.271   3.548   7.161 -1.7722 -1.5305 -0.8879
 3805TIP3   OH233049   6.441   0.959   0.097 -0.1767 -0.4884  0.6265
 3805TIP3    H133050   6.450   0.899   0.023  0.2436 -0.8925  1.0023
 3805TIP3    H233051   6.525   0.955   0.142  0.5472  1.8199 -0.3928
 3806TIP3   OH233052   4.975   0.746   6.322 -0.0224  0.0203  0.6104
 3806TIP3    H133053   5.038   0.682   6.288 -1.4841 -0.6916 -0.8598
 3806TIP3    H233054   5.017   0.780   6.402  1.4484 -1.6590  0.6191
 3807TIP3   OH233055   4.532   3.108   0.337 -0.1410  0.2675 -0.4168
 3807TIP3    H133056   4.553   3.048   0.266  1.9090  1.2196 -0.6994
 3807TIP3    H233057   4.534   3.195   0.297  1.0421  0.8256  0.7353
 3808TIP3   OH233058   3.857   5.826   0.172 -0.4006  0.1930  0.7348
 3808TIP3    H133059   3.847   5.738   0.210 -1.4331  0.2648  0.6515
 3808TIP3    H233060   3.798   5.881   0.223  0.4311  0.8998  0.9498
 3809TIP3   OH233061   0.192   3.845   0.856 -0.3130 -0.2040  0.2824
 3809TIP3    H133062   0.229   3.892   0.930 -1.3350  1.2525 -0.0839
 3809TIP3    H233063   0.250   3.769   0.844  1.5905  1.0923  0.7333
 3810TIP3   OH233064   1.942   5.484   0.818 -0.3203 -0.2042  0.1488
 3810TIP3    H133065   1.892   5.530   0.886  1.2008  0.5584  0.7872
 3810TIP3    H233066   2.027   5.466   0.858 -0.4956 -2.6716 -0.4526
 3811TIP3   OH233067   5.978   3.099   0.437  0.3811  0.3801  0.1029
 3811TIP3    H133068   5.942   3.187   0.430 -1.0698 -0.0242  1.5978
 3811TIP3    H233069   5.906   3.047   0.472  1.0278 -1.5360 -1.2375
 3812TIP3   OH233070   0.487   1.834   0.045  0.3128 -0.6410 -0.4555
 3812TIP3    H133071   0.454   1.861   0.131 -0.9153  2.7396 -1.8424
 3812TIP3    H233072   0.434   1.757   0.023  0.2557 -1.2195  1.5175
 3813TIP3   OH233073   2.555   4.806   0.697  0.5194 -0.0166  0.0934
 3813TIP3    H133074   2.640   4.838   0.727  0.5477  0.7417 -0.7429
 3813TIP3    H233075   2.519   4.878   0.645 -0.1527 -0.7339 -0.4700
 3814TIP3   OH233076   3.957   0.353   6.685 -0.3177 -0.2456 -0.5488
 3814TIP3    H133077   4.006   0.330   6.607 -1.1386  0.4334 -1.2856
 3814TIP3    H233078   3.969   0.448   6.694 -1.0368 -0.1562 -0.4299
 3815TIP3   OH233079   4.631   6.266   7.411 -0.5124 -0.0295  0.1819
 3815TIP3    H133080   4.678   6.185   7.431  0.2755  0.6122  0.9610
 3815TIP3    H233081   4.597   6.296   7.495  0.6767  1.3627  0.1915
 3816TIP3   OH233082   3.084   5.818   7.118 -0.0931  0.7592 -0.1629
 3816TIP3    H133083   3.169   5.860   7.135  0.2687 -0.1416  0.3395
 3816TIP3    H233084   3.084   5.802   7.023  1.3929 -1.4241  0.1221
 3817TIP3   OH233085   3.915   0.264   7.620 -0.5152 -0.3358 -0.0630
 3817TIP3    H133086   3.874   0.341   7.580  0.6764  0.4785  0.2403
 3817TIP3    H233087   3.976   0.232   7.554  0.9701  0.6169  0.7821
 3818TIP3   OH233088   1.917   3.804   0.971  0.3548 -0.6652  0.8858
 3818TIP3    H133089   2.011   3.823   0.971  0.3459 -0.6154  1.1840
 3818TIP3    H233090   1.901   3.764   1.056 -0.1774  0.7711  1.4923
 3819TIP3   OH233091   3.398   2.314   0.047  0.1893 -0.2025 -0.4961
 3819TIP3    H133092   3.478   2.315   0.100 -0.6010  0.6752  0.7432
 3819TIP3    H233093   3.377   2.221   0.038 -0.5594 -0.4113  2.2788
 3820TIP3   OH233094   3.469   3.600   6.390  0.0841 -0.0711  0.4117
 3820TIP3    H133095   3.459   3.593   6.485 -3.3646  0.5652  0.2284
 3820TIP3    H233096   3.527   3.675   6.377 -0.6408  0.8263  2.0488
 3821TIP3   OH233097   6.164   1.576   1.497  0.3705  0.2209  0.5196
 3821TIP3    H133098   6.074   1.550   1.515 -0.0310  0.6258 -0.8250
 3821TIP3    H233099   6.213   1.493   1.496 -0.4177 -0.2480 -1.0737
 3822TIP3   OH233100   1.139   0.158   7.588  0.3353 -0.2000  0.2426
 3822TIP3    H133101   1.196   0.233   7.573 -0.2558  0.4205  1.0317
 3822TIP3    H233102   1.098   0.141   7.502  0.3357  0.4895  0.1070
 3823TIP3   OH233103   0.195   0.159   1.995  0.2333 -0.4642  0.7069
 3823TIP3    H133104   0.286   0.139   2.015  0.0566 -1.3822  0.6449
 3823TIP3    H233105   0.199   0.235   1.936  1.0373 -1.3617 -0.4370
 3824TIP3   OH233106   2.483   0.008   6.077 -0.1239 -0.0504  0.2246
 3824TIP3    H133107   2.546  -0.009   6.147 -0.8203 -1.9025  0.4430
 3824TIP3    H233108   2.399   0.015   6.122 -0.3937  0.1192 -0.2989
 3825TIP3   OH233109   1.571   1.019   0.136  0.4522 -0.2801 -0.4062
 3825TIP3    H133110   1.575   1.053   0.046 -0.4718 -0.5450 -0.5629
 3825TIP3    H233111   1.477   1.014   0.155  0.6327  0.3646  0.8029
 3826TIP3   OH233112   0.886   4.873   1.480  0.1094 -0.4007 -0.1301
 3826TIP3    H133113   0.921   4.787   1.456  2.2132  0.4466 -0.3231
 3826TIP3    H233114   0.808   4.883   1.426  0.4058 -1.7587 -0.8580
 3827TIP3   OH233115   3.879   4.160   8.149  0.2007 -0.4399 -0.4169
 3827TIP3    H133116   3.823   4.194   8.080  0.3617 -0.5733 -0.6124
 3827TIP3    H233117   3.826   4.168   8.229 -1.0598 -2.8971 -0.9289
 3828TIP3   OH233118   3.975   3.351   7.853 -0.0918  0.0370  0.3443
 3828TIP3    H133119   3.963   3.303   7.771  1.9833 -0.1393  0.0901
 3828TIP3    H233120   3.899   3.409   7.858 -0.3133  0.0000 -1.6709
 3829TIP3   OH233121   1.568   5.958   7.084  0.5632 -0.3381 -0.2130
 3829TIP3    H133122   1.622   5.992   7.013  2.5596 -0.3350  1.2083
 3829TIP3    H233123   1.518   5.887   7.045  1.2033  0.0058 -1.7289
 3830TIP3   OH233124   5.917   2.706   7.461 -0.1998 -0.2762  0.1047
 3830TIP3    H133125   5.854   2.686   7.529 -0.7142  1.5747  0.2351
 3830TIP3    H233126   5.942   2.621   7.424 -1.7755 -1.1191  0.9180
 3831TIP3   OH233127   6.003   3.720   1.661  0.3908  0.3011  0.1384
 3831TIP3    H133128   5.940   3.720   1.588 -1.3824 -2.2451  1.5471
 3831TIP3    H233129   6.048   3.636   1.654  2.2321  1.2217  0.3920
 3832TIP3   OH233130   0.886   6.593   2.388  0.3968 -0.8901  0.2554
 3832TIP3    H133131   0.794   6.603   2.411  0.8152 -0.5058  1.9499
 3832TIP3    H233132   0.924   6.679   2.407  1.2415 -1.2700  0.3039
 3833TIP3   OH233133   1.341   3.634   6.621 -0.1673 -0.0396 -0.1828
 3833TIP3    H133134   1.328   3.540   6.633 -0.0520 -0.0245  0.0638
 3833TIP3    H233135   1.343   3.646   6.526 -1.1218 -0.1607 -0.2301
 3834TIP3   OH233136   4.456   6.626   1.903  0.2932  0.6945  0.1720
 3834TIP3    H133137   4.536   6.578   1.880 -0.7840 -0.9808 -0.1892
 3834TIP3    H233138   4.488   6.710   1.937  2.3355 -0.8027  2.2687
 3835TIP3   OH233139   5.605   4.396   0.355  0.3047  0.1715  0.1656
 3835TIP3    H133140   5.695   4.425   0.365  0.2520  0.5829 -0.5131
 3835TIP3    H233141   5.602   4.311   0.400  1.6420 -1.0147 -1.8254
 3836TIP3   OH233142   1.202   5.575   7.098  0.2050 -1.0910  0.4755
 3836TIP3    H133143   1.166   5.637   7.034  2.4341  0.5334  0.6803
 3836TIP3    H233144   1.148   5.587   7.176 -0.4025 -0.5784 -0.0134
 3837TIP3   OH233145   7.001   1.291   1.998 -0.6950 -0.8289  0.5748
 3837TIP3    H133146   7.083   1.330   2.027 -0.4637  0.5783 -1.7198
 3837TIP3    H233147   6.933   1.350   2.032 -0.6622 -1.0767  1.0800
 3838TIP3   OH233148   4.411   5.320   7.594  0.0225  0.0472  0.4709
 3838TIP3    H133149   4.400   5.235   7.635  1.4704  0.7021  2.3563
 3838TIP3    H233150   4.381   5.383   7.660  2.0071  1.1198  0.4298
 3839TIP3   OH233151   2.533   3.797   7.095  0.3986  0.3944 -0.3600
 3839TIP3    H133152   2.504   3.707   7.077 -0.7256  0.2554  1.7954
 3839TIP3    H233153   2.452   3.846   7.109  1.0640  1.2207  0.7204
 3840TIP3   OH233154   0.767   6.439   6.570  0.7835 -0.5665 -0.3199
 3840TIP3    H133155   0.809   6.517   6.607  1.8314 -1.4136  0.3266
 3840TIP3    H233156   0.831   6.369   6.582 -0.1767 -1.5575 -0.7991
 3841TIP3   OH233157   2.294   3.089   7.394  0.0605  0.3425 -0.4902
 3841TIP3    H133158   2.308   3.083   7.299 -0.7103 -0.8444 -0.5422
 3841TIP3    H233159   2.203   3.062   7.407  0.2283  0.2690  0.6219
 3842TIP3   OH233160   2.254   0.343   1.795  0.2133 -0.2730  0.4449
 3842TIP3    H133161   2.193   0.403   1.751  1.3273 -0.4468 -1.4385
 3842TIP3    H233162   2.199   0.293   1.856 -1.0550  1.3547  0.7268
 3843TIP3   OH233163   3.991   5.252   6.902  0.1772 -0.2079 -0.3845
 3843TIP3    H133164   3.969   5.342   6.926 -1.4455 -0.7295  0.2433
 3843TIP3    H233165   4.007   5.209   6.986  0.7849 -0.5488 -0.6715
 3844TIP3   OH233166   3.868   5.773   7.403  0.5843 -0.5471  0.3704
 3844TIP3    H133167   3.847   5.699   7.461 -0.8294  0.5197  1.3050
 3844TIP3    H233168   3.887   5.845   7.463  0.3438  0.2570 -0.5047
 3845TIP3   OH233169   6.563   2.917   7.132  0.5244  0.4591  0.1157
 3845TIP3    H133170   6.488   2.857   7.143  0.3608  0.3293 -1.3831
 3845TIP3    H233171   6.640   2.860   7.137  0.5017  0.4950  1.0161
 3846TIP3   OH233172   0.934   0.561   0.980 -0.3700  0.2142 -0.1502
 3846TIP3    H133173   1.008   0.617   0.957 -0.5098  1.5934  2.3863
 3846TIP3    H233174   0.974   0.489   1.029 -0.5196 -0.1608 -0.5750
 3847TIP3   OH233175   5.584   3.433   7.719  0.4608 -0.3412 -0.4674
 3847TIP3    H133176   5.557   3.350   7.681 -0.3095 -0.1845 -0.2717
 3847TIP3    H233177   5.558   3.499   7.654  0.1389 -0.1659 -0.1623
 3848TIP3   OH233178   2.603   2.757   7.547 -0.0953  0.0211 -0.2050
 3848TIP3    H133179   2.522   2.767   7.497  0.1736 -0.5403 -0.7615
 3848TIP3    H233180   2.606   2.834   7.603 -0.0909  0.9849 -1.4949
 3849TIP3   OH233181   3.638   4.156   0.366  0.4178  0.5798 -0.3560
 3849TIP3    H133182   3.551   4.187   0.389  1.3683  1.3264  2.5904
 3849TIP3    H233183   3.638   4.063   0.389 -0.0712  0.1370 -1.9985
 3850TIP3   OH233184   5.088   2.032   6.990 -0.1923 -0.4845 -0.1379
 3850TIP3    H133185   5.055   2.074   6.911  0.4951  0.8806  0.2710
 3850TIP3    H233186   5.102   1.940   6.964 -0.3228 -0.1439 -1.4921
 3851TIP3   OH233187   6.006   7.005   6.141  0.2272 -0.5312  0.4705
 3851TIP3    H133188   6.084   7.046   6.178  0.1234 -1.3070  1.6059
 3851TIP3    H233189   6.014   6.913   6.166  0.2244 -1.1556 -1.5973
 3852TIP3   OH233190   2.894   6.600   0.874 -0.2164  0.2497  0.4472
 3852TIP3    H133191   2.988   6.605   0.890  0.2643  2.0001 -2.2220
 3852TIP3    H233192   2.855   6.658   0.941  0.8111  1.0577  0.3672
 3853TIP3   OH233193   0.375   1.651   0.570 -0.0345  0.1839  0.3393
 3853TIP3    H133194   0.311   1.603   0.518 -0.2207  0.1046  0.6421
 3853TIP3    H233195   0.456   1.599   0.563 -0.5665 -0.8931  1.7271
 3854TIP3   OH233196   1.758   5.886   8.052 -0.1470  0.3905  0.1144
 3854TIP3    H133197   1.842   5.903   8.095 -0.5625  2.8981  0.0599
 3854TIP3    H233198   1.693   5.914   8.115 -0.8744  0.6872 -0.7516
 3855TIP3   OH233199   1.945   3.681   7.531  0.3552 -0.0453 -0.2803
 3855TIP3    H133200   1.853   3.657   7.523 -0.0061  1.2289 -0.1515
 3855TIP3    H233201   1.945   3.777   7.535  1.7849  0.0358 -1.4856
 3856TIP3   OH233202   2.020   2.703   0.681  0.3047  0.0341  0.4208
 3856TIP3    H133203   2.092   2.662   0.633  0.4718 -0.4097  1.0388
 3856TIP3    H233204   2.053   2.790   0.703  0.7170 -0.2249  0.8371
 3857TIP3   OH233205   5.609   0.785   1.394 -0.3912 -0.3388 -0.1137
 3857TIP3    H133206   5.692   0.742   1.416 -1.0723 -1.6262  0.0547
 3857TIP3    H233207   5.586   0.833   1.473  0.4258  0.4323 -0.3283
 3858TIP3   OH233208   3.300   2.718   6.779  0.3650  0.2919  0.1582
 3858TIP3    H133209   3.301   2.689   6.870  2.0036  0.8376  0.3498
 3858TIP3    H233210   3.228   2.669   6.739  0.5918 -1.1178  1.3771
 3859TIP3   OH233211   2.385   1.691   1.261  0.1646  0.1947 -0.2784
 3859TIP3    H133212   2.418   1.691   1.172  1.2290  0.8963  0.1009
 3859TIP3    H233213   2.457   1.658   1.314 -0.7678 -1.0998  0.2421
 3860TIP3   OH233214   4.720   5.062   8.034 -0.7536  0.2586  0.6125
 3860TIP3    H133215   4.673   5.043   7.953  2.1068  2.1750 -1.7162
 3860TIP3    H233216   4.656   5.106   8.089 -1.9915  1.9937 -2.0174
 3861TIP3   OH233217   4.105   1.333   0.846  0.2078  0.4205 -0.2030
 3861TIP3    H133218   4.065   1.399   0.903  0.4900  2.0759 -1.8349
 3861TIP3    H233219   4.036   1.268   0.834 -0.0697  0.3540  1.4702
 3862TIP3   OH233220   2.781   2.434   6.773  0.4913  0.3429 -0.6535
 3862TIP3    H133221   2.694   2.444   6.813 -0.3122 -0.3101 -2.1649
 3862TIP3    H233222   2.798   2.517   6.730  1.3480  1.0389  0.9511
 3863TIP3   OH233223   1.882   2.088   1.638 -0.2005  0.8748 -0.0867
 3863TIP3    H133224   1.969   2.107   1.604  0.0577  0.5598  0.3844
 3863TIP3    H233225   1.874   2.144   1.716 -0.1777  0.4606  0.2167
 3864TIP3   OH233226   2.310   3.232   0.378 -0.5545 -0.0542  0.5623
 3864TIP3    H133227   2.398   3.269   0.377 -1.0855  1.2966 -1.0175
 3864TIP3    H233228   2.284   3.232   0.470  0.1481  1.9063  0.8022
 3865TIP3   OH233229   2.451   3.201   6.602 -0.3532 -0.5513  0.3622
 3865TIP3    H133230   2.442   3.124   6.658 -0.7184 -2.4497 -2.1151
 3865TIP3    H233231   2.477   3.166   6.517 -2.0540  1.9093 -1.3209
 3866TIP3   OH233232   0.500   6.151   0.597 -0.1834 -0.1282 -0.3357
 3866TIP3    H133233   0.456   6.158   0.682 -0.5684  0.7958 -0.6005
 3866TIP3    H233234   0.545   6.066   0.601 -0.2061 -0.1124  0.7803
 3867TIP3   OH233235   4.854   4.608   7.017  0.7609  0.5806 -0.0100
 3867TIP3    H133236   4.885   4.669   6.950  1.1381 -0.1381 -0.5000
 3867TIP3    H233237   4.759   4.603   7.001  1.1104 -1.2573 -1.9511
 3868TIP3   OH233238   2.487   3.121   5.831 -0.0091 -0.1253  0.9133
 3868TIP3    H133239   2.564   3.070   5.806 -0.6623 -0.8021  0.2586
 3868TIP3    H233240   2.416   3.085   5.779 -1.0685 -0.4243  2.4803
 3869TIP3   OH233241   0.090   0.182   1.694  0.1793 -0.0394  0.1151
 3869TIP3    H133242   0.141   0.106   1.721 -1.6847 -0.9065  1.3590
 3869TIP3    H233243   0.150   0.256   1.706  2.4118 -1.3080 -2.1555
 3870TIP3   OH233244   5.458   1.195   1.850 -0.1249 -0.0667  0.1546
 3870TIP3    H133245   5.409   1.272   1.880  0.0151  0.1718 -0.2249
 3870TIP3    H233246   5.391   1.131   1.828 -0.2814  0.3503 -0.6054
 3871TIP3   OH233247   4.727   5.808   0.116 -0.2607  0.1466 -0.6064
 3871TIP3    H133248   4.799   5.746   0.120 -0.4170 -0.0357 -0.6020
 3871TIP3    H233249   4.649   5.754   0.101 -0.6216  0.1890  1.0198
 3872TIP3   OH233250   6.344   3.024   7.323  0.3849  0.0164 -0.4295
 3872TIP3    H133251   6.391   2.942   7.310  0.1522 -0.3737  1.0252
 3872TIP3    H233252   6.260   2.999   7.361  0.3520  0.9297  0.1348
 3873TIP3   OH233253   5.697   3.057   7.436  0.5783 -0.3089  0.1978
 3873TIP3    H133254   5.703   2.983   7.376 -1.6952  0.0662 -0.6088
 3873TIP3    H233255   5.728   3.132   7.385  2.3437 -0.5785  0.8278
 3874TIP3   OH233256   3.047   0.152   7.233  0.6387 -0.2788  0.1668
 3874TIP3    H133257   3.082   0.222   7.177 -0.2628  0.6928  0.7823
 3874TIP3    H233258   2.976   0.194   7.282 -0.9572 -2.0004 -0.5473
 3875TIP3   OH233259   1.755   6.388   0.364  0.1962  0.2677  0.4099
 3875TIP3    H133260   1.845   6.414   0.385  0.3390  0.7918 -0.7383
 3875TIP3    H233261   1.762   6.351   0.276 -0.6171 -0.2997  0.5757
 3876TIP3   OH233262   6.835   3.966   1.221  0.1870 -0.2923  0.4626
 3876TIP3    H133263   6.764   4.019   1.183  0.5599 -0.1078  0.0231
 3876TIP3    H233264   6.845   3.892   1.162  2.9066  1.5798 -1.6519
 3877TIP3   OH233265   1.827   3.191   7.980  1.0935 -0.7434 -0.2896
 3877TIP3    H133266   1.761   3.174   7.913  0.5055 -0.6509  0.2566
 3877TIP3    H233267   1.789   3.156   8.061  0.7492  1.2114  0.4697
 3878TIP3   OH233268   5.461   0.129   7.984 -0.4663  0.1229 -0.3885
 3878TIP3    H133269   5.378   0.132   7.935 -0.1162 -2.3052 -1.2980
 3878TIP3    H233270   5.480   0.035   7.991  2.5422  0.6260 -0.7968
 3879TIP3   OH233271   0.586   3.441   7.966  0.2205  0.3288 -0.2122
 3879TIP3    H133272   0.607   3.476   8.052 -1.9788  0.9672  0.1358
 3879TIP3    H233273   0.628   3.501   7.905  0.9001  0.4981  0.4134
 3880TIP3   OH233274   5.490   1.393   7.203  0.1643  0.1264  0.4734
 3880TIP3    H133275   5.434   1.321   7.234  0.1484  0.1139  0.4153
 3880TIP3    H233276   5.563   1.395   7.265  0.8901 -0.8461 -0.3145
 3881TIP3   OH233277   7.027   5.981   7.287 -0.0222 -0.3647 -0.3243
 3881TIP3    H133278   7.051   6.017   7.202  0.7461 -0.2456 -0.0730
 3881TIP3    H233279   6.934   5.998   7.296  0.2386  1.2429 -0.3784
 3882TIP3   OH233280   0.982   4.773   7.874 -0.7196  0.2957  0.4220
 3882TIP3    H133281   1.022   4.819   7.948 -0.8413  0.5801  0.3121
 3882TIP3    H233282   0.916   4.716   7.914 -3.0612  2.7863  0.3331
 3883TIP3   OH233283   2.347   3.932   1.584  0.0456  0.4774  0.1985
 3883TIP3    H133284   2.293   3.854   1.577  0.5448  0.2021 -0.6328
 3883TIP3    H233285   2.400   3.918   1.662  1.1641 -0.6715 -0.7410
 3884TIP3   OH233286   3.490   6.429   6.302  0.1728  0.1901 -0.0845
 3884TIP3    H133287   3.461   6.518   6.322  1.7648  0.6478  0.3170
 3884TIP3    H233288   3.415   6.374   6.324 -0.1656  1.2527  1.5849
 3885TIP3   OH233289   0.509   4.724   0.487 -0.3642 -0.2485 -0.3962
 3885TIP3    H133290   0.433   4.741   0.431 -0.7429 -1.0983 -0.1591
 3885TIP3    H233291   0.480   4.654   0.546  0.2227  0.2213  0.4662
 3886TIP3   OH233292   4.523   3.931   6.016  0.3095  0.3223 -0.7906
 3886TIP3    H133293   4.478   4.015   6.021 -0.2325 -0.0349  1.7076
 3886TIP3    H233294   4.616   3.952   6.025  0.2574  0.7119 -1.1452
 3887TIP3   OH233295   4.056   5.062   8.063  0.3337  0.7102  0.4670
 3887TIP3    H133296   4.103   5.084   7.983  2.2281 -1.1129  0.9912
 3887TIP3    H233297   3.987   5.002   8.035 -0.2927  1.6380 -0.0228
 3888TIP3   OH233298   0.443   2.448   1.024  0.0178 -0.4506 -0.0361
 3888TIP3    H133299   0.538   2.438   1.018  0.2982  1.2295  1.0077
 3888TIP3    H233300   0.413   2.444   0.933  0.9364 -1.9182 -0.3246
 3889TIP3   OH233301   4.748   5.247   6.031  0.1141 -0.0194  0.5839
 3889TIP3    H133302   4.790   5.333   6.041  0.6522 -0.1017 -0.7123
 3889TIP3    H233303   4.730   5.241   5.937 -1.1882 -0.7498  0.8695
 3890TIP3   OH233304   6.065   6.443   6.223  0.1189 -0.5374 -0.0761
 3890TIP3    H133305   6.002   6.497   6.271 -0.0086 -0.6114 -0.1613
 3890TIP3    H233306   6.069   6.361   6.272  0.8355 -0.1942  0.4549
 3891TIP3   OH233307   2.779   1.586   1.067  0.0519  0.1693 -0.6124
 3891TIP3    H133308   2.850   1.524   1.085 -0.7260 -0.0297  2.0947
 3891TIP3    H233309   2.808   1.668   1.107 -0.6942  0.4591 -0.6527
 3892TIP3   OH233310   2.866   4.356   7.621 -0.3509 -0.2023  0.0075
 3892TIP3    H133311   2.909   4.419   7.679  1.8824 -0.5242 -1.1615
 3892TIP3    H233312   2.842   4.407   7.543  2.1593 -0.7833 -1.2758
 3893TIP3   OH233313   1.945   3.960   0.427 -0.4345 -0.2865  0.2437
 3893TIP3    H133314   1.967   3.878   0.383 -0.9829 -0.4678  0.3069
 3893TIP3    H233315   1.852   3.953   0.446 -0.4476  0.2830  0.3983
 3894TIP3   OH233316   4.847   6.328   1.862 -0.7104 -0.3860  0.4668
 3894TIP3    H133317   4.905   6.310   1.788  0.1394 -1.2279  1.3015
 3894TIP3    H233318   4.878   6.269   1.931 -2.0726 -0.2882  1.1960
 3895TIP3   OH233319   3.915   5.772   1.589 -0.0234 -0.0171  0.3140
 3895TIP3    H133320   3.978   5.768   1.660  0.7060  0.1001 -0.3084
 3895TIP3    H233321   3.866   5.853   1.604  1.2343  0.8869 -0.1987
 3896TIP3   OH233322   5.121   5.554   1.508  0.3765  0.4064  0.8157
 3896TIP3    H133323   5.068   5.622   1.549 -0.1641 -0.6372  1.9084
 3896TIP3    H233324   5.154   5.502   1.581  1.9930  0.3475  0.0861
 3897TIP3   OH233325   3.803   1.825   0.941  0.3465 -0.1528  0.0448
 3897TIP3    H133326   3.785   1.736   0.972 -0.7397  0.3934  1.0781
 3897TIP3    H233327   3.733   1.878   0.979  0.0791  0.9097 -1.7960
 3898TIP3   OH233328   3.059   4.122   7.306  0.3263 -0.6453  0.5140
 3898TIP3    H133329   2.964   4.106   7.309  0.6529 -3.5736 -0.9457
 3898TIP3    H233330   3.079   4.128   7.212  1.5963 -0.0987  0.8035
 3899TIP3   OH233331   5.787   4.198   0.855 -0.0885  0.3877 -0.3732
 3899TIP3    H133332   5.708   4.240   0.887 -0.4471 -0.0721 -0.6455
 3899TIP3    H233333   5.842   4.187   0.933 -0.6236 -0.0190 -0.0480
 3900TIP3   OH233334   0.656   3.405   5.770 -0.3314 -0.9749  0.5830
 3900TIP3    H133335   0.706   3.460   5.710  0.5244 -2.1248  0.1981
 3900TIP3    H233336   0.589   3.463   5.806  2.3811  1.2399  2.5667
 3901TIP3   OH233337   4.538   3.336   1.547  0.1219  0.3168 -0.3853
 3901TIP3    H133338   4.468   3.277   1.518  0.7590 -1.5737  1.6357
 3901TIP3    H233339   4.519   3.352   1.639  1.1138  1.6553 -0.3830
 3902TIP3   OH233340   0.583   4.545   2.093  0.6022  0.3092 -0.0053
 3902TIP3    H133341   0.534   4.530   2.012 -1.3141  1.7733  0.7920
 3902TIP3    H233342   0.598   4.640   2.095  0.8156  0.2672  1.2352
 3903TIP3   OH233343   5.305   3.506   1.418 -0.1686 -0.2458  0.3902
 3903TIP3    H133344   5.321   3.567   1.491  3.6395  2.8098 -2.5589
 3903TIP3    H233345   5.230   3.542   1.372 -0.1385  0.1302  0.6323
 3904TIP3   OH233346   1.167   2.132   0.307  0.0078  0.4148 -0.5265
 3904TIP3    H133347   1.101   2.175   0.254 -0.9553 -0.5436 -0.1551
 3904TIP3    H233348   1.212   2.073   0.247  2.5894  3.1449 -1.4766
 3905TIP3   OH233349   4.229   0.837   0.170 -0.1664  0.3889 -0.2746
 3905TIP3    H133350   4.308   0.863   0.122 -1.1816  0.1730 -2.1234
 3905TIP3    H233351   4.245   0.746   0.194  0.0539  0.2761 -0.8328
 3906TIP3   OH233352   0.416   2.873   7.830  0.0474 -0.4196 -0.1766
 3906TIP3    H133353   0.487   2.937   7.834 -1.0508  0.8322 -0.2814
 3906TIP3    H233354   0.439   2.816   7.756  1.3589 -0.5857  0.3179
 3907TIP3   OH233355   1.125   6.627   7.585  0.1999  0.4391 -0.0349
 3907TIP3    H133356   1.203   6.631   7.641  1.3696 -1.0567 -1.4742
 3907TIP3    H233357   1.063   6.573   7.634  0.0947  1.4582  1.0190
 3908TIP3   OH233358   1.602   6.336   6.247  0.4916 -0.6207 -0.2347
 3908TIP3    H133359   1.570   6.419   6.210  0.8321 -0.1464  0.5021
 3908TIP3    H233360   1.532   6.307   6.305 -0.2303 -1.5892 -1.5269
 3909TIP3   OH233361   6.060   4.298   0.230  0.3206 -0.2573  0.0145
 3909TIP3    H133362   6.139   4.314   0.283 -0.5172 -1.1763  1.6114
 3909TIP3    H233363   6.083   4.224   0.174  0.5069 -0.7296  0.7039
 3910TIP3   OH233364   0.799   4.857   0.071  0.1001  0.1674 -0.3960
 3910TIP3    H133365   0.882   4.835   0.112 -0.8553  0.0586  1.5748
 3910TIP3    H233366   0.795   4.953   0.074  0.1823  0.1790 -0.5998
 3911TIP3   OH233367   5.193   5.380   1.105  0.4569  0.0316 -0.5095
 3911TIP3    H133368   5.177   5.316   1.036 -3.6181  1.7153 -1.4420
 3911TIP3    H233369   5.216   5.460   1.058 -0.6293  0.7578  0.1540
 3912TIP3   OH233370   2.773   3.999   0.130 -0.2829 -0.7120  0.2365
 3912TIP3    H133371   2.818   3.988   0.214 -1.3536 -0.7580  0.8160
 3912TIP3    H233372   2.704   4.062   0.148 -1.4086 -1.7624 -0.2480
 3913TIP3   OH233373   2.508   6.188   2.179  0.1116 -0.6307  0.4339
 3913TIP3    H133374   2.479   6.218   2.093 -2.8792 -1.3654  1.0465
 3913TIP3    H233375   2.456   6.239   2.242  2.0667 -0.2525  1.8546
 3914TIP3   OH233376   6.828   2.340   7.316 -0.2375 -0.5177 -0.2508
 3914TIP3    H133377   6.912   2.386   7.313  1.5029 -3.2815  1.5819
 3914TIP3    H233378   6.770   2.401   7.361  1.0472  1.1005 -0.6782
 3915TIP3   OH233379   6.792   5.070   8.067  0.0764 -0.3081 -0.1957
 3915TIP3    H133380   6.886   5.085   8.063 -0.2689  2.8779  0.5582
 3915TIP3    H233381   6.782   4.997   8.128  2.0602 -0.9381 -0.5684
 3916TIP3   OH233382   6.019   5.513   0.080 -0.3209  0.1323 -0.0940
 3916TIP3    H133383   6.055   5.424   0.080  1.8220  0.9114  1.2000
 3916TIP3    H233384   5.993   5.528  -0.011  2.1568 -0.7932 -1.0589
 3917TIP3   OH233385   7.059   6.586   0.170 -0.2142  0.1890  0.1393
 3917TIP3    H133386   7.057   6.506   0.116 -0.8181  0.4436 -0.2276
 3917TIP3    H233387   7.006   6.564   0.246  2.4884 -0.9839  1.8581
 3918TIP3   OH233388   0.277   3.785   0.062 -0.1158 -0.1546  0.3520
 3918TIP3    H133389   0.233   3.864   0.092 -0.0029  0.7817 -1.7711
 3918TIP3    H233390   0.210   3.739   0.010  0.9060  0.6496 -1.8314
 3919TIP3   OH233391   2.718   6.438   7.582 -0.0922  0.0940  0.4216
 3919TIP3    H133392   2.727   6.495   7.658 -2.3511  1.7912 -0.4289
 3919TIP3    H233393   2.690   6.354   7.617  0.7580  0.2630  1.5546
 3920TIP3   OH233394   4.706   3.165   0.108 -0.1140 -0.0503  0.3319
 3920TIP3    H133395   4.659   3.146   0.027 -0.5678  0.6684  0.4140
 3920TIP3    H233396   4.799   3.160   0.085 -0.2344  0.8339 -0.4164
 3921TIP3   OH233397   5.940   0.842   1.260  0.5510  0.1928  0.0051
 3921TIP3    H133398   5.867   0.863   1.202  0.3283 -3.8292 -1.5248
 3921TIP3    H233399   5.899   0.819   1.344 -0.0780 -1.8834 -0.7997
 3922TIP3   OH233400   5.672   2.958   0.847 -0.3645  0.1557  0.7445
 3922TIP3    H133401   5.628   2.992   0.926 -2.8071 -0.3319 -0.3189
 3922TIP3    H233402   5.608   2.969   0.777  1.3854 -0.3096 -1.0286
 3923TIP3   OH233403   0.582   1.506   0.403 -0.6068 -0.0943 -0.0639
 3923TIP3    H133404   0.581   1.482   0.311 -0.5903 -1.2970  0.2288
 3923TIP3    H233405   0.511   1.455   0.442  0.0949 -0.4547  0.7793
 3924TIP3   OH233406   3.262   2.578   1.754 -0.6544 -0.7590 -0.3371
 3924TIP3    H133407   3.196   2.602   1.689  0.6447  3.3215 -0.4144
 3924TIP3    H233408   3.325   2.524   1.707 -1.3125 -0.4154 -1.6524
 3925TIP3   OH233409   3.707   5.968   7.051 -0.0885 -0.8913 -0.2331
 3925TIP3    H133410   3.687   5.948   7.142  0.3663 -0.4824 -0.0399
 3925TIP3    H233411   3.678   5.891   7.002 -1.5360 -0.5859  0.0994
 3926TIP3   OH233412   4.100   0.605   7.183  0.0806  0.7039  0.1366
 3926TIP3    H133413   4.032   0.622   7.248 -1.9681  0.2391 -1.7753
 3926TIP3    H233414   4.071   0.651   7.104  0.7395 -1.4234 -1.4584
 3927TIP3   OH233415   2.752   3.920   1.031  0.8372 -0.1007  0.0195
 3927TIP3    H133416   2.808   3.849   1.062  1.0787 -1.1372 -2.5958
 3927TIP3    H233417   2.813   3.981   0.989  0.6995  2.0211  2.5955
 3928TIP3   OH233418   0.439   4.053   7.630 -0.1792 -0.3979 -0.2934
 3928TIP3    H133419   0.475   4.139   7.651  1.6158 -1.3102  0.6395
 3928TIP3    H233420   0.346   4.069   7.613  0.1468  1.7277 -0.3139
 3929TIP3   OH233421   2.704   0.423   1.576 -0.3309 -0.1536 -0.3125
 3929TIP3    H133422   2.668   0.506   1.607 -1.5284 -0.5908 -0.4850
 3929TIP3    H233423   2.752   0.446   1.496  0.2368  0.5170  0.2026
 3930TIP3   OH233424   4.169   0.873   7.432  0.2399 -0.0923 -0.0390
 3930TIP3    H133425   4.106   0.804   7.452  1.5636 -0.9831  1.2498
 3930TIP3    H233426   4.230   0.832   7.370 -0.7384  0.9605 -1.7896
 3931TIP3   OH233427   5.706   7.050   1.240 -0.6252  0.3268  0.1415
 3931TIP3    H133428   5.697   7.053   1.335 -1.9422 -0.3979  0.0575
 3931TIP3    H233429   5.773   7.116   1.220  1.0970 -0.8473  1.7136
 3932TIP3   OH233430   6.425   6.060   7.001 -0.1628 -0.0090  0.3729
 3932TIP3    H133431   6.501   6.111   6.973  1.0836 -1.2226  1.3990
 3932TIP3    H233432   6.417   6.079   7.095  1.7749 -3.2884  1.3689
 3933TIP3   OH233433   4.494   4.201   0.160 -0.1876 -0.3053  0.3094
 3933TIP3    H133434   4.485   4.107   0.177  2.0356 -0.5561  0.3275
 3933TIP3    H233435   4.588   4.218   0.165 -0.4382  1.7327 -0.7396
 3934TIP3   OH233436   5.335   6.688   6.722  0.2806  0.7907 -0.0374
 3934TIP3    H133437   5.250   6.698   6.764  0.5839 -1.2885  1.2075
 3934TIP3    H233438   5.314   6.667   6.631 -0.6126 -0.7179  0.4779
 3935TIP3   OH233439   1.493   3.174   6.883  0.0873  0.1668 -0.0730
 3935TIP3    H133440   1.577   3.218   6.871  0.3170  0.0238  0.9164
 3935TIP3    H233441   1.516   3.090   6.923 -0.5094  0.0444  0.0249
 3936TIP3   OH233442   1.443   3.613   0.498 -0.4381 -0.4796  0.2684
 3936TIP3    H133443   1.449   3.518   0.505  0.9699 -0.4731 -0.3697
 3936TIP3    H233444   1.428   3.629   0.405  0.8878 -0.0562  0.1054
 3937TIP3   OH233445   3.736   2.409   1.554 -0.5548 -0.1815  0.0008
 3937TIP3    H133446   3.710   2.334   1.500 -1.7273  0.3588 -0.2178
 3937TIP3    H233447   3.658   2.465   1.557 -0.2049  0.2752  1.4631
 3938TIP3   OH233448   4.327   4.435   1.202 -0.1245 -0.0697 -0.2486
 3938TIP3    H133449   4.409   4.387   1.209 -0.8814 -1.2815  0.7962
 3938TIP3    H233450   4.268   4.378   1.154 -0.5107  0.5754 -0.5624
 3939TIP3   OH233451   2.872   0.570   7.467  0.2752  0.3545 -0.1746
 3939TIP3    H133452   2.932   0.629   7.513  1.7803 -1.6388  0.5726
 3939TIP3    H233453   2.817   0.533   7.535 -0.4926  0.6894 -0.6030
 3940TIP3   OH233454   6.292   2.371   0.519 -0.1205  0.3577 -0.0271
 3940TIP3    H133455   6.315   2.299   0.460  1.1368  0.6999  0.0308
 3940TIP3    H233456   6.224   2.419   0.472 -0.5018 -0.4835 -0.3540
 3941TIP3   OH233457   4.189   3.177   1.741  0.2648  0.1637  0.7176
 3941TIP3    H133458   4.198   3.101   1.798 -0.5410  0.5205  1.3381
 3941TIP3    H233459   4.203   3.252   1.798  1.4197  0.4957  0.0381
 3942TIP3   OH233460   4.840   7.033   7.491  0.5213 -0.3543 -0.1755
 3942TIP3    H133461   4.877   7.115   7.459  1.4967 -0.3723  0.8584
 3942TIP3    H233462   4.746   7.043   7.479  0.7818 -0.1059 -2.4074
 3943TIP3   OH233463   6.636   3.246   0.752 -0.1739 -0.5799 -0.2816
 3943TIP3    H133464   6.650   3.234   0.846  3.1383 -1.2403 -0.7642
 3943TIP3    H233465   6.583   3.171   0.725  0.9196 -1.7207  0.6723
 3944TIP3   OH233466   3.110   0.469   1.422 -0.1813 -0.0305  0.3270
 3944TIP3    H133467   3.171   0.458   1.495 -0.1643 -1.1500  0.1651
 3944TIP3    H233468   3.091   0.562   1.420  2.3083  0.5286 -0.2562
 3945TIP3   OH233469   3.656   2.819   1.212  0.0425 -0.5841  0.5782
 3945TIP3    H133470   3.668   2.866   1.295 -2.9374 -0.8878  1.2821
 3945TIP3    H233471   3.585   2.866   1.168  0.0042 -1.8138 -0.7437
 3946TIP3   OH233472   1.968   5.819   0.461  0.1109  0.0403 -0.4723
 3946TIP3    H133473   1.890   5.858   0.498  0.1174 -1.3191  1.0636
 3946TIP3    H233474   2.041   5.861   0.507  0.2289  0.2836 -0.8778
 3947TIP3   OH233475   5.180   4.903   1.055 -0.2699  0.3193  0.2765
 3947TIP3    H133476   5.168   4.890   1.149 -0.8130  1.2808  0.3498
 3947TIP3    H233477   5.106   4.958   1.029 -0.0489  0.1754 -0.6924
 3948TIP3   OH233478   6.220   4.662   1.217  0.6926 -0.3718 -0.2429
 3948TIP3    H133479   6.163   4.705   1.155  1.2247  0.7655  0.0315
 3948TIP3    H233480   6.161   4.626   1.284  0.2583  0.1610 -0.3377
 3949TIP3   OH233481   2.298   4.085   6.336  0.4306 -0.1706 -0.0812
 3949TIP3    H133482   2.328   4.175   6.320  1.7267 -0.6754 -0.6623
 3949TIP3    H233483   2.372   4.043   6.380 -0.2500 -0.8999  0.3927
 3950TIP3   OH233484   6.468   4.203   0.791 -0.1946  0.8218 -0.5938
 3950TIP3    H133485   6.421   4.147   0.852 -1.8928  1.5187 -1.2168
 3950TIP3    H233486   6.531   4.144   0.749 -1.3285 -0.4413 -0.6049
 3951TIP3   OH233487   2.481   3.737   6.704 -0.3520 -0.0681  0.0019
 3951TIP3    H133488   2.388   3.718   6.698 -0.3968  0.3563 -4.0447
 3951TIP3    H233489   2.520   3.660   6.745 -2.3824 -0.4256  1.3709
 3952TIP3   OH233490   4.850   5.062   1.484 -0.0803 -0.2884 -0.1825
 3952TIP3    H133491   4.876   5.148   1.449 -0.8114 -0.5188 -1.3783
 3952TIP3    H233492   4.775   5.081   1.540  0.4598 -0.0310  0.4699
 3953TIP3   OH233493   1.476   1.427   7.654  0.0431 -0.5156  0.4140
 3953TIP3    H133494   1.401   1.445   7.711 -0.8553  0.5218 -1.0493
 3953TIP3    H233495   1.451   1.349   7.605 -0.3043  0.1062 -0.4165
 3954TIP3   OH233496   0.348   1.603   8.219 -0.3607 -0.2082 -0.1483
 3954TIP3    H133497   0.386   1.526   8.177 -0.2892 -0.4131  0.2818
 3954TIP3    H233498   0.313   1.655   8.147 -0.8710 -0.8952 -0.4065
 3955TIP3   OH233499   0.778   0.307   8.236 -0.0765 -0.5426  0.2957
 3955TIP3    H133500   0.683   0.313   8.227  0.0705  2.1596 -0.1230
 3955TIP3    H233501   0.799   0.367   8.307  1.2260 -2.3197  1.4850
 3956TIP3   OH233502   2.775   6.983   7.050  0.3119 -0.4540 -0.0347
 3956TIP3    H133503   2.829   6.939   7.117  0.1898  0.2792  0.5565
 3956TIP3    H233504   2.824   6.971   6.969  0.4895 -1.3200  0.1891
 3957TIP3   OH233505   3.851   5.057   1.736  0.3239 -0.0580 -0.4160
 3957TIP3    H133506   3.854   4.961   1.735  0.5375 -0.0489 -1.0197
 3957TIP3    H233507   3.802   5.080   1.657 -0.2333  0.3189  0.0341
 3958TIP3   OH233508   5.585   5.651   1.170  0.2721 -0.1408  0.5996
 3958TIP3    H133509   5.675   5.625   1.150 -0.0511 -2.4847  1.8453
 3958TIP3    H233510   5.532   5.613   1.099  0.0446 -0.8972  1.1572
 3959TIP3   OH233511   4.218   3.357   0.982  0.0740  0.0712  0.0504
 3959TIP3    H133512   4.260   3.274   0.960 -0.0543  0.2473 -0.9128
 3959TIP3    H233513   4.199   3.351   1.076  1.4366 -0.3744  0.3230
 3960TIP3   OH233514   4.591   4.442   0.478 -0.0555  0.6109  0.2571
 3960TIP3    H133515   4.630   4.362   0.512 -2.1307 -0.5044  0.2057
 3960TIP3    H233516   4.630   4.513   0.530  1.3407 -0.4739  0.7366
 3961TIP3   OH233517   6.779   2.356   5.808 -0.6504  0.5353 -0.4683
 3961TIP3    H133518   6.748   2.268   5.783 -0.0165  0.0123  0.5365
 3961TIP3    H233519   6.770   2.407   5.728  0.0598 -0.7422 -1.4060
 3962TIP3   OH233520   5.456   6.319   6.912 -0.1424  0.0502  0.1265
 3962TIP3    H133521   5.487   6.392   6.964 -0.1203 -0.1513  0.4014
 3962TIP3    H233522   5.533   6.265   6.897 -0.3208 -0.3801  0.6955
 3963TIP3   OH233523   6.776   2.064   5.714  0.1932  1.1261 -0.3062
 3963TIP3    H133524   6.865   2.076   5.682  0.4087 -0.3001 -0.2966
 3963TIP3    H233525   6.753   1.974   5.689 -1.5358  1.7189 -1.0273
 3964TIP3   OH233526   3.360   6.886   7.551  0.0692 -0.6172  0.0013
 3964TIP3    H133527   3.412   6.867   7.630 -0.6116 -1.4011  0.2735
 3964TIP3    H233528   3.424   6.921   7.489  0.6526 -0.1474  0.8320
 3965TIP3   OH233529   2.807   2.391   0.907  0.1825 -0.2934 -0.3460
 3965TIP3    H133530   2.731   2.347   0.868 -1.0959 -0.2484  1.9602
 3965TIP3    H233531   2.775   2.478   0.930  0.7883 -0.4289  1.0799
 3966TIP3   OH233532   5.262   2.544   0.849  0.2425 -0.0174 -0.0604
 3966TIP3    H133533   5.333   2.534   0.786 -0.8599  0.7228 -1.4872
 3966TIP3    H233534   5.199   2.476   0.825 -0.0185  0.0201  0.5038
 3967TIP3   OH233535   6.360   5.017   1.672  0.0775  0.2149  0.4905
 3967TIP3    H133536   6.381   4.924   1.683  0.7975  0.0794 -1.6726
 3967TIP3    H233537   6.444   5.059   1.655 -0.4871  0.9071 -0.7020
 3968TIP3   OH233538   6.065   3.088   1.510  0.3981  0.1703  0.4157
 3968TIP3    H133539   6.094   3.117   1.596 -2.7570  0.5164  1.4718
 3968TIP3    H233540   6.013   3.160   1.476  1.3214 -0.0882 -1.7205
 3969TIP3   OH233541   0.192   0.608   0.779 -0.0071 -0.4681  0.3352
 3969TIP3    H133542   0.279   0.591   0.744 -0.3124 -0.4939 -0.4362
 3969TIP3    H233543   0.191   0.563   0.863  0.2210 -1.7679 -0.3301
 3970TIP3   OH233544   0.116   1.461   1.265  0.0218 -0.5097 -0.4102
 3970TIP3    H133545   0.091   1.546   1.227  1.8245  0.0032 -0.5413
 3970TIP3    H233546   0.089   1.397   1.199 -1.5379 -0.1006 -0.2253
 3971TIP3   OH233547   2.520   3.108   6.317 -0.3697  0.3126  0.5428
 3971TIP3    H133548   2.506   3.146   6.230  1.2937  0.4306  0.2862
 3971TIP3    H233549   2.514   3.013   6.303  0.5886  0.2990  0.1344
 3972TIP3   OH233550   4.707   3.433   0.561 -0.0264  0.2813  0.3143
 3972TIP3    H133551   4.671   3.411   0.475  0.9068  1.2348 -0.3518
 3972TIP3    H233552   4.731   3.349   0.599 -2.2023 -0.3247  0.4795
 3973TIP3   OH233553   4.057   2.484   7.149  0.0349 -0.3492 -0.5121
 3973TIP3    H133554   3.962   2.480   7.139 -0.1457  1.6142  0.0263
 3973TIP3    H233555   4.073   2.443   7.234 -0.3964 -0.2257 -0.3645
 3974TIP3   OH233556   0.746   4.331   0.435 -0.4332  0.2173  0.7280
 3974TIP3    H133557   0.829   4.285   0.444 -0.3597  0.3001  0.4884
 3974TIP3    H233558   0.770   4.422   0.416 -0.5302 -0.2399 -2.0440
 3975TIP3   OH233559   6.346   1.391   0.878 -0.1801  0.7735 -0.1931
 3975TIP3    H133560   6.391   1.314   0.911 -2.1551 -0.0594  0.7535
 3975TIP3    H233561   6.397   1.465   0.911  0.0099 -0.1031  1.5700
 3976TIP3   OH233562   0.177   6.921   8.137  0.5298 -0.1840 -0.5080
 3976TIP3    H133563   0.149   6.958   8.053  1.5679  2.2749  0.1224
 3976TIP3    H233564   0.096   6.895   8.180 -0.5714  2.9208 -0.4141
 3977TIP3   OH233565   2.482   1.994   7.318  0.4893 -0.4511  0.0119
 3977TIP3    H133566   2.505   1.933   7.248  1.2435 -1.4986  1.1349
 3977TIP3    H233567   2.545   1.975   7.388 -0.8492 -0.1140  1.3505
 3978TIP3   OH233568   5.360   4.397   0.553 -0.5962 -0.0022  0.6331
 3978TIP3    H133569   5.374   4.310   0.590  0.8127  0.7315  1.9160
 3978TIP3    H233570   5.387   4.389   0.462 -0.2167 -0.8405  0.8111
 3979TIP3   OH233571   0.458   6.632   0.063 -0.2111  0.5401 -0.8313
 3979TIP3    H133572   0.412   6.711   0.090 -0.4995  0.2444 -0.4519
 3979TIP3    H233573   0.392   6.562   0.067 -0.1161  0.3788 -1.7331
 3980TIP3   OH233574   1.807   1.279   7.857 -0.3359 -0.4077  0.3888
 3980TIP3    H133575   1.876   1.250   7.917  0.0809  0.5926  0.4218
 3980TIP3    H233576   1.736   1.309   7.913 -0.0302  0.3274  0.4066
 3981TIP3   OH233577   1.215   2.997   7.707 -0.8077 -0.6646 -0.1341
 3981TIP3    H133578   1.228   2.918   7.760 -0.8865 -0.5310  0.0869
 3981TIP3    H233579   1.265   3.065   7.753  0.2795 -0.8572 -0.9889
 3982TIP3   OH233580   3.835   0.665   7.749  0.1213 -0.3915  0.0811
 3982TIP3    H133581   3.821   0.630   7.837 -0.1746  1.3628  0.7655
 3982TIP3    H233582   3.906   0.728   7.759 -1.1071  1.1524 -0.5498
 3983TIP3   OH233583   3.284   2.756   7.102  0.1562  0.0176 -0.8906
 3983TIP3    H133584   3.335   2.676   7.097  0.2978 -0.1910  2.0008
 3983TIP3    H233585   3.338   2.816   7.153 -1.2228  0.8442 -0.3427
 3984TIP3   OH233586   3.080   6.757   0.379 -0.3333 -0.4420 -0.0603
 3984TIP3    H133587   3.076   6.730   0.470 -2.2463  0.9811  0.3423
 3984TIP3    H233588   2.989   6.779   0.356  0.0436 -1.0008 -2.3822
 3985TIP3   OH233589   2.923   6.954   6.843  0.4723 -0.9989  0.1864
 3985TIP3    H133590   3.000   6.937   6.898  0.4404 -1.2913  0.1399
 3985TIP3    H233591   2.943   6.912   6.760  1.3444  1.0258 -0.6991
 3986TIP3   OH233592   3.896   1.961   7.786  0.5013  0.1679 -0.1731
 3986TIP3    H133593   3.821   1.905   7.805  0.1995  0.9896  1.2798
 3986TIP3    H233594   3.971   1.915   7.824  0.9353 -1.0991 -2.4325
 3987TIP3   OH233595   3.201   6.465   0.126 -0.2802  0.0679  0.6071
 3987TIP3    H133596   3.171   6.518   0.053 -0.8222 -0.3263  0.5346
 3987TIP3    H233597   3.251   6.525   0.181  0.3747  0.3049 -0.2229
 3988TIP3   OH233598   1.942   4.514   6.137 -0.3704 -0.6567  0.3580
 3988TIP3    H133599   1.945   4.608   6.153  1.1539 -0.7799  0.9664
 3988TIP3    H233600   1.991   4.476   6.210 -0.9929 -1.9278  0.1414
 3989TIP3   OH233601   3.609   1.031   1.540  0.2649 -0.0178  0.2209
 3989TIP3    H133602   3.703   1.049   1.545  0.4645 -0.3952 -1.5934
 3989TIP3    H233603   3.581   1.066   1.456 -1.0662 -0.5955  0.3860
 3990TIP3   OH233604   6.590   2.994   0.613 -0.6343 -0.4946 -0.0616
 3990TIP3    H133605   6.590   3.034   0.526  0.6117 -0.0111  0.1424
 3990TIP3    H233606   6.515   2.934   0.612 -1.6038  0.6827 -0.9075
 3991TIP3   OH233607   1.970   0.334   0.648 -0.2750 -0.4371 -0.1228
 3991TIP3    H133608   2.042   0.318   0.709 -0.4986  2.2730  0.9996
 3991TIP3    H233609   2.006   0.397   0.585 -1.4922  0.7085  0.2602
 3992TIP3   OH233610   2.152   3.606   0.696  0.5329  0.4309 -0.1904
 3992TIP3    H133611   2.107   3.689   0.711 -1.9338 -0.9222  0.5910
 3992TIP3    H233612   2.096   3.559   0.634  0.4890 -1.5546  1.2246
 3993TIP3   OH233613   2.835   3.540   8.102  0.8757 -0.1675 -0.0638
 3993TIP3    H133614   2.759   3.576   8.057 -2.3098 -0.8232  4.1427
 3993TIP3    H233615   2.859   3.463   8.050 -1.7254 -0.2622 -1.2808
 3994TIP3   OH233616   2.798   4.464   1.781 -0.1005  0.1860  0.3622
 3994TIP3    H133617   2.866   4.397   1.787 -0.0968  0.1425 -0.1488
 3994TIP3    H233618   2.720   4.422   1.817 -0.1341 -0.1481 -0.0854
 3995TIP3   OH233619   1.998   2.724   0.361 -0.3996 -0.3554 -0.0007
 3995TIP3    H133620   1.978   2.685   0.276 -0.9188  0.1184 -0.1067
 3995TIP3    H233621   1.961   2.812   0.355  0.0820 -0.1162  0.5058
 3996TIP3   OH233622   0.620   5.878   1.885 -0.1176 -0.2894  0.2040
 3996TIP3    H133623   0.612   5.788   1.916  0.0117  0.5084  2.7882
 3996TIP3    H233624   0.535   5.898   1.847  0.5136 -2.1189 -2.4844
 3997TIP3   OH233625   3.723   2.681   7.529 -0.2969  0.4737  0.9612
 3997TIP3    H133626   3.718   2.602   7.584  0.9707 -0.8685 -0.7354
 3997TIP3    H233627   3.673   2.658   7.451 -0.8675  1.8107  0.9163
 3998TIP3   OH233628   2.333   3.098   0.810 -0.8137 -0.0739  0.5030
 3998TIP3    H133629   2.321   3.163   0.741 -0.3216 -0.5595 -0.0489
 3998TIP3    H233630   2.372   3.146   0.882 -2.7144  0.7843  1.0386
 3999TIP3   OH233631   0.993   4.978   5.759  0.3448 -0.3376 -0.3872
 3999TIP3    H133632   0.965   4.887   5.769  0.0639 -0.2832 -0.6444
 3999TIP3    H233633   0.926   5.017   5.703  0.0186  0.2295  0.3771
 4000TIP3   OH233634   4.168   3.018   7.573 -0.2278 -0.1290  0.4980
 4000TIP3    H133635   4.200   2.933   7.540  0.0222  0.4773 -0.8876
 4000TIP3    H233636   4.229   3.040   7.643  0.3357 -0.6193  0.1777
 4001TIP3   OH233637   0.009   6.396   1.429  0.0796 -0.2353  0.0359
 4001TIP3    H133638  -0.063   6.440   1.384 -1.4007 -1.0124  1.5547
 4001TIP3    H233639   0.051   6.345   1.360 -0.0648  1.1427 -1.1155
 4002TIP3   OH233640   5.931   4.590   0.169  0.4259 -0.3464  0.1287
 4002TIP3    H133641   5.922   4.562   0.078  1.1473  0.3193 -0.1607
 4002TIP3    H233642   5.846   4.629   0.190  0.8446  1.2060 -0.8819
 4003TIP3   OH233643   6.096   5.218   1.032 -0.1056 -0.5329 -0.2297
 4003TIP3    H133644   6.043   5.243   1.107  1.0811 -1.0537  0.8221
 4003TIP3    H233645   6.062   5.271   0.960 -1.1638  0.1004  0.7004
 4004TIP3   OH233646   4.063   5.904   1.798  0.3609  0.5943  0.6827
 4004TIP3    H133647   4.062   5.891   1.892  0.5260  1.0167  0.7474
 4004TIP3    H233648   4.068   5.999   1.787 -0.8809  0.6388  0.2467
 4005TIP3   OH233649   0.708   6.292   0.265  0.1373  0.4374  0.5876
 4005TIP3    H133650   0.625   6.339   0.273  0.2077  0.5623  0.5869
 4005TIP3    H233651   0.684   6.209   0.221  0.1949  1.0051 -0.5657
 4006TIP3   OH233652   0.677   6.039   0.103  0.1097  0.4150 -0.4304
 4006TIP3    H133653   0.715   6.083   0.027  0.4803 -0.0895 -0.5424
 4006TIP3    H233654   0.751   5.993   0.143 -0.5558 -1.4223 -1.2375
 4007TIP3   OH233655   3.333   2.822   1.836 -0.5190  0.7389  0.4209
 4007TIP3    H133656   3.317   2.729   1.823 -1.6772  1.0950 -1.0770
 4007TIP3    H233657   3.289   2.864   1.762 -0.0503  2.4802  1.0773
 4008TIP3   OH233658   4.383   4.742   6.978 -0.4603 -0.2492  0.2612
 4008TIP3    H133659   4.334   4.782   6.906  1.3675 -0.2380 -1.0647
 4008TIP3    H233660   4.354   4.788   7.056  0.1561  2.4183 -0.9564
 4009TIP3   OH233661   1.153   2.440   1.826 -0.0065  0.0963  0.0333
 4009TIP3    H133662   1.058   2.432   1.824 -0.0675  0.1659  1.4553
 4009TIP3    H233663   1.181   2.379   1.895  0.8440  1.0897  0.5946
 4010TIP3   OH233664   3.275   2.681   2.229  0.1451  0.0444 -0.5582
 4010TIP3    H133665   3.318   2.755   2.187  2.4890  0.3323  2.0154
 4010TIP3    H233666   3.247   2.625   2.157  0.1468  2.4171 -2.5282
 4011TIP3   OH233667   0.630   4.721   1.038 -0.8448  0.0761  0.3644
 4011TIP3    H133668   0.703   4.693   1.092  0.4562 -0.6580 -1.6788
 4011TIP3    H233669   0.555   4.670   1.071 -0.3342  0.3339  2.0232
 4012TIP3   OH233670   3.924   6.052   7.998 -0.1954  0.2089  0.2625
 4012TIP3    H133671   3.922   6.140   8.036 -0.8331  0.6065 -0.6451
 4012TIP3    H233672   3.943   6.066   7.906 -0.0841 -0.6301  0.1472
 4013TIP3   OH233673   0.450   5.799   6.586  0.2414  0.0716 -0.1793
 4013TIP3    H133674   0.440   5.882   6.632  1.1735 -0.7526  1.6070
 4013TIP3    H233675   0.369   5.751   6.603 -0.1132  0.4158 -0.8443
 4014TIP3   OH233676   1.869   3.530   1.087 -0.0871  0.2106  0.3325
 4014TIP3    H133677   1.800   3.548   1.023 -2.9047 -1.7721  2.5200
 4014TIP3    H233678   1.926   3.466   1.044 -0.2815  0.9759 -1.1129
 4015TIP3   OH233679   4.452   3.135   7.688 -0.7282 -0.0927  0.4322
 4015TIP3    H133680   4.547   3.130   7.685 -0.7190  0.2617  0.1257
 4015TIP3    H233681   4.432   3.229   7.690 -1.0990 -0.1314 -0.5917
 4016TIP3   OH233682   4.213   0.244   1.469  0.4534  0.3428  0.3481
 4016TIP3    H133683   4.237   0.153   1.487  1.1696  0.5748  0.5838
 4016TIP3    H233684   4.134   0.237   1.415  0.2712 -0.4110  0.6898
 4017TIP3   OH233685   3.507   5.007   0.403 -0.2291 -0.6711  0.5689
 4017TIP3    H133686   3.418   4.971   0.408 -0.2642 -0.4702  1.4051
 4017TIP3    H233687   3.496   5.089   0.354 -0.4110 -0.9404  0.1529
 4018TIP3   OH233688   0.161   6.072   7.978 -0.0080  0.0599 -0.2579
 4018TIP3    H133689   0.219   6.143   7.950  0.6606 -1.0274 -1.7872
 4018TIP3    H233690   0.074   6.100   7.949  0.0459  0.8135  0.2826
 4019TIP3   OH233691   2.795   2.047   7.169 -0.3052 -0.1068 -0.0360
 4019TIP3    H133692   2.744   2.124   7.141  0.8860 -0.1522 -2.6581
 4019TIP3    H233693   2.858   2.081   7.232 -0.1708  0.9877 -0.7339
 4020TIP3   OH233694   1.422   6.779   0.890  0.3731  0.2586  0.0959
 4020TIP3    H133695   1.398   6.871   0.886  3.2446  1.0591 -0.2229
 4020TIP3    H233696   1.410   6.755   0.982  0.4735  1.1916  0.3562
 4021TIP3   OH233697   5.312   4.331   7.491  0.1893 -0.1810  0.5766
 4021TIP3    H133698   5.261   4.333   7.572 -2.8204 -0.5881 -1.1733
 4021TIP3    H233699   5.387   4.275   7.511 -0.1627  0.1588  3.1965
 4022TIP3   OH233700   4.605   4.118   0.574  0.5068 -0.2671 -0.5809
 4022TIP3    H133701   4.691   4.160   0.564  0.6515 -0.4718 -0.1951
 4022TIP3    H233702   4.625   4.027   0.595  0.2392  0.2255  2.0964
 4023TIP3   OH233703   5.651   0.410   1.332 -0.7562 -0.0995 -0.9953
 4023TIP3    H133704   5.665   0.433   1.424 -0.7113 -1.3146 -0.6888
 4023TIP3    H233705   5.555   0.408   1.322 -0.7833  1.7296 -1.4334
 4024TIP3   OH233706   3.613   6.769   0.297  0.2458 -0.9502 -0.3270
 4024TIP3    H133707   3.642   6.732   0.380  0.8683 -0.3976 -0.2884
 4024TIP3    H233708   3.662   6.720   0.231 -1.1534 -2.2416 -0.4676
 4025TIP3   OH233709   5.280   1.390   6.993  0.1960 -0.1532 -0.0451
 4025TIP3    H133710   5.353   1.365   6.937  0.7282 -0.1953  0.6501
 4025TIP3    H233711   5.317   1.391   7.081 -0.2891  1.1825  0.1689
 4026TIP3   OH233712   1.261   4.792   1.432 -0.3109  0.2631 -0.1007
 4026TIP3    H133713   1.234   4.808   1.342 -1.4840  1.6739  0.4510
 4026TIP3    H233714   1.315   4.868   1.455  3.1444 -1.7999 -0.7004
 4027TIP3   OH233715   2.423   7.051   6.811 -0.6981 -0.4405 -0.3328
 4027TIP3    H133716   2.433   6.957   6.820  1.4572 -0.2034  0.4735
 4027TIP3    H233717   2.402   7.081   6.900  0.9571  0.0144 -0.0526
 4028TIP3   OH233718   2.634   4.857   6.368 -0.0973  0.4925  0.5711
 4028TIP3    H133719   2.585   4.886   6.291  1.0766  1.2340  0.0803
 4028TIP3    H233720   2.711   4.813   6.332  1.2956  2.2472  1.2570
 4029TIP3   OH233721   6.621   3.436   6.232 -0.2491 -0.4322 -0.5288
 4029TIP3    H133722   6.562   3.361   6.233  1.7705 -2.1536  1.8213
 4029TIP3    H233723   6.629   3.459   6.139 -0.7425 -3.3052 -1.3759
 4030TIP3   OH233724   0.182   6.514   0.905 -0.1695  0.1196 -0.1594
 4030TIP3    H133725   0.207   6.584   0.844  0.7996 -1.7058 -1.9757
 4030TIP3    H233726   0.263   6.466   0.922 -0.9780 -1.1774  0.2080
 4031TIP3   OH233727   5.700   1.488   7.372  0.1313  0.7838  0.4475
 4031TIP3    H133728   5.697   1.573   7.328 -2.0915  1.3977  1.6653
 4031TIP3    H233729   5.705   1.509   7.465 -0.0311 -0.4219  0.7457
 4032TIP3   OH233730   5.644   3.903   6.591 -0.4771 -0.1227  0.1632
 4032TIP3    H133731   5.689   3.933   6.670 -0.7390  0.4171  0.1101
 4032TIP3    H233732   5.569   3.961   6.582 -1.4469 -1.2782  0.4881
 4033TIP3   OH233733   6.196   0.950   7.064  0.0988 -0.0302  0.4098
 4033TIP3    H133734   6.166   0.869   7.106  0.2645 -1.4114 -1.9408
 4033TIP3    H233735   6.131   0.967   6.996  1.5495  0.1974 -0.9671
 4034TIP3   OH233736   1.155   5.110   7.469 -0.6112 -0.0568  0.0607
 4034TIP3    H133737   1.156   5.205   7.480  0.0900  0.2101 -1.9234
 4034TIP3    H233738   1.181   5.096   7.378  1.4911 -2.2170  0.8651
 4035TIP3   OH233739   4.296   4.035   8.160 -0.3403  0.4711  0.5080
 4035TIP3    H133740   4.323   3.944   8.155 -2.7130 -0.2637 -0.0121
 4035TIP3    H233741   4.254   4.043   8.246  0.6462  1.3588  0.9425
 4036TIP3   OH233742   2.274   0.432   7.649  0.6819  1.2334  1.0226
 4036TIP3    H133743   2.201   0.394   7.698 -0.3190  2.4366  0.5173
 4036TIP3    H233744   2.234   0.499   7.594  1.5016 -0.9803 -2.6043
 4037TIP3   OH233745   0.511   6.503   1.613  0.1067 -0.0154 -0.2839
 4037TIP3    H133746   0.569   6.539   1.546  0.1804  0.2143 -0.0948
 4037TIP3    H233747   0.423   6.519   1.579  0.1374 -1.4982 -1.1902
 4038TIP3   OH233748   2.646   0.362   6.612  0.3068  0.2986 -0.0145
 4038TIP3    H133749   2.638   0.346   6.706  1.6052 -1.9663 -0.2267
 4038TIP3    H233750   2.566   0.324   6.575 -0.4174  1.5826  0.1715
 4039TIP3   OH233751   5.240   6.755   1.377 -0.2321  0.3956  0.4726
 4039TIP3    H133752   5.172   6.698   1.340 -0.1403 -0.4781  1.5698
 4039TIP3    H233753   5.271   6.707   1.454  0.6221  1.4514  0.8071
 4040TIP3   OH233754   6.452   1.619   1.031  0.1397  0.3589  0.1153
 4040TIP3    H133755   6.410   1.688   0.979  1.0019  1.8343  1.3112
 4040TIP3    H233756   6.482   1.663   1.110  0.8517 -1.3760  0.8625
 4041TIP3   OH233757   0.784   5.677   6.585  0.1025  0.5766 -0.0379
 4041TIP3    H133758   0.712   5.739   6.595  0.9530  1.4553  0.9748
 4041TIP3    H233759   0.775   5.617   6.659  1.1761  1.5489  0.9353
 4042TIP3   OH233760   3.717   1.388   2.101 -0.0630  0.7792  0.7061
 4042TIP3    H133761   3.707   1.442   2.022  0.8733  0.0680  0.0775
 4042TIP3    H233762   3.633   1.395   2.145 -1.3612 -0.4371 -1.4047
 4043TIP3   OH233763   4.701   6.339   7.937  0.1832 -0.3050 -0.1611
 4043TIP3    H133764   4.612   6.369   7.954  0.0142 -0.5878 -0.5315
 4043TIP3    H233765   4.754   6.419   7.937  0.1050 -0.2366  1.1006
 4044TIP3   OH233766   1.923   5.331   6.765 -0.0578  0.4899  0.3769
 4044TIP3    H133767   1.896   5.292   6.848  0.6675 -1.5537 -0.2788
 4044TIP3    H233768   2.000   5.384   6.787  0.1119 -0.0144  1.0339
 4045TIP3   OH233769   5.282   5.766   0.078  0.4732  0.8112  0.1550
 4045TIP3    H133770   5.355   5.730   0.028 -0.5243 -0.8374 -0.2057
 4045TIP3    H233771   5.295   5.733   0.167 -0.2954 -0.2622 -0.1136
 4046TIP3   OH233772   6.324   2.200   6.373 -0.3141  0.0680 -0.1049
 4046TIP3    H133773   6.243   2.165   6.336 -0.0903  1.8736 -2.6427
 4046TIP3    H233774   6.380   2.217   6.296  1.1629  1.9210  1.2677
 4047TIP3   OH233775   0.005   2.255   2.211  0.3310 -0.6504 -0.2563
 4047TIP3    H133776  -0.070   2.281   2.264 -0.2941 -2.3081 -0.2671
 4047TIP3    H233777  -0.030   2.250   2.122  0.3372 -1.7386 -0.2160
 4048TIP3   OH233778   4.352   3.008   6.726 -0.2621 -0.6366  0.1531
 4048TIP3    H133779   4.291   3.058   6.672 -0.1989  0.6910  1.2667
 4048TIP3    H233780   4.296   2.944   6.771 -0.8282  0.3247  0.8828
 4049TIP3   OH233781   5.268   4.766   0.820  0.0861  0.2481 -0.1879
 4049TIP3    H133782   5.293   4.694   0.879 -0.3015 -0.4078 -0.8032
 4049TIP3    H233783   5.234   4.834   0.879 -1.7040 -0.9793  0.2914
 4050TIP3   OH233784   7.075   4.275   0.478 -0.7036 -0.2765  0.1278
 4050TIP3    H133785   7.082   4.370   0.475  0.1294 -0.3667 -1.5763
 4050TIP3    H233786   7.043   4.256   0.567  1.8791  1.4032  1.5430
 4051TIP3   OH233787   6.298   3.375   6.763 -0.3463 -0.0690  0.0596
 4051TIP3    H133788   6.204   3.387   6.753 -0.4920 -0.9804  0.2747
 4051TIP3    H233789   6.337   3.439   6.703 -1.1322 -1.3841 -1.9590
 4052TIP3   OH233790   3.611   0.900   7.701  0.4075 -0.7813  0.3426
 4052TIP3    H133791   3.679   0.838   7.675  0.8595  0.2568 -1.0922
 4052TIP3    H233792   3.647   0.986   7.677 -0.1255  0.0744  2.4110
 4053TIP3   OH233793   2.021   6.826   7.985 -0.6782 -0.1643 -0.5099
 4053TIP3    H133794   1.927   6.809   7.983 -0.7236  0.1067 -0.8857
 4053TIP3    H233795   2.062   6.741   7.997 -0.9080 -0.4983 -1.9564
 4054TIP3   OH233796   3.905   1.192   2.043 -0.7231 -0.7585 -0.0155
 4054TIP3    H133797   3.834   1.253   2.064 -0.2803  0.7488 -2.5520
 4054TIP3    H233798   3.908   1.133   2.118 -2.0824  1.4870  1.9331
 4055TIP3   OH233799   2.718   4.914   1.106 -0.4900  0.1839  0.0290
 4055TIP3    H133800   2.644   4.974   1.120 -2.3089 -2.0492  0.5828
 4055TIP3    H233801   2.731   4.873   1.192 -1.9911 -3.0391 -1.1320
 4056TIP3   OH233802   6.264   2.586   0.253 -0.2508 -0.3051  0.0002
 4056TIP3    H133803   6.201   2.612   0.320  0.4430  1.2906  0.0878
 4056TIP3    H233804   6.211   2.548   0.183 -1.3853  1.4029 -0.1237
 4057TIP3   OH233805   1.933   5.973   2.043 -0.3348  0.2983  0.0697
 4057TIP3    H133806   1.943   5.883   2.073 -0.6823  0.3978  0.4890
 4057TIP3    H233807   1.872   6.013   2.105 -1.8852  0.2202 -1.3305
 4058TIP3   OH233808   1.295   0.810   7.330 -0.1734  0.0524  0.1757
 4058TIP3    H133809   1.335   0.725   7.312  0.8027  0.3731  0.7191
 4058TIP3    H233810   1.359   0.873   7.295  0.2517  0.6037  1.8589
 4059TIP3   OH233811   1.184   6.170   7.709 -0.1113 -0.6856 -0.1419
 4059TIP3    H133812   1.256   6.196   7.651  1.0693  0.4450  1.7259
 4059TIP3    H233813   1.209   6.083   7.742 -0.5476 -1.1168 -0.9221
 4060TIP3   OH233814   2.444   1.644   7.273 -0.1750 -0.1488 -0.2230
 4060TIP3    H133815   2.472   1.553   7.282  0.3869 -0.1984 -2.0851
 4060TIP3    H233816   2.526   1.694   7.266 -0.4459  0.0904 -2.3823
 4061TIP3   OH233817   0.106   3.783   6.605  0.0058  0.2752  0.1398
 4061TIP3    H133818   0.131   3.691   6.609 -0.7171  0.0978  0.9448
 4061TIP3    H233819   0.060   3.792   6.522 -2.8225 -0.8980  1.4476
 4062TIP3   OH233820   6.658   0.422   1.199 -0.4664  0.0818 -0.1024
 4062TIP3    H133821   6.586   0.362   1.178  0.2220 -0.9876  0.4758
 4062TIP3    H233822   6.626   0.472   1.274  0.4643 -2.6115  2.3003
 4063TIP3   OH233823   1.869   4.221   0.250 -0.4188  0.3069  0.6603
 4063TIP3    H133824   1.925   4.145   0.264 -1.2791 -0.9790 -2.1232
 4063TIP3    H233825   1.929   4.292   0.228  0.2765 -0.7967 -1.2763
 4064TIP3   OH233826   4.533   1.024   1.279  0.2307 -0.2701  0.0460
 4064TIP3    H133827   4.449   1.037   1.235  0.2026  0.0195  0.1802
 4064TIP3    H233828   4.521   0.944   1.330  0.3869 -0.8116 -0.7556
 4065TIP3   OH233829   5.857   6.021   6.275  0.5097  0.8570  0.1844
 4065TIP3    H133830   5.838   6.024   6.181 -1.3534  1.2409  0.5307
 4065TIP3    H233831   5.810   5.944   6.307  0.3378  1.2620  0.9466
 4066TIP3   OH233832   4.830   5.592   0.642  0.0872 -0.7075  0.4253
 4066TIP3    H133833   4.787   5.619   0.561  0.3134 -1.7511 -0.0549
 4066TIP3    H233834   4.760   5.588   0.707 -0.1896 -0.4307  0.1427
 4067TIP3   OH233835   6.458   0.787   8.148  0.3676  0.1038  0.4577
 4067TIP3    H133836   6.391   0.827   8.093  0.8548  0.8031  0.3556
 4067TIP3    H233837   6.424   0.700   8.169  0.3158 -0.3086 -1.2188
 4068TIP3   OH233838   6.543   4.776   7.418  0.2702  0.1598  0.8486
 4068TIP3    H133839   6.467   4.829   7.441  0.6452  2.0171 -1.8329
 4068TIP3    H233840   6.507   4.705   7.364  0.4303  1.2011 -0.6601
 4069TIP3   OH233841   2.539   5.101   8.283 -0.1975 -0.0673 -0.0886
 4069TIP3    H133842   2.545   5.169   8.351 -3.8297 -1.0745  1.4772
 4069TIP3    H233843   2.610   5.041   8.304 -0.5831  0.1945  2.2552
 4070TIP3   OH233844   7.017   4.689   1.176  0.2138  0.1442 -0.2462
 4070TIP3    H133845   7.083   4.622   1.160 -0.4475 -1.0000  1.4935
 4070TIP3    H233846   6.958   4.683   1.101  0.2376 -1.1405 -0.1762
 4071TIP3   OH233847   6.613   6.174   7.497  0.0601  0.2074  0.3504
 4071TIP3    H133848   6.621   6.222   7.414  0.5019 -0.8384 -0.2357
 4071TIP3    H233849   6.693   6.195   7.544  1.5564 -1.9933 -1.0443
 4072TIP3   OH233850   0.446   1.861   2.102 -0.4413 -0.2669 -0.1167
 4072TIP3    H133851   0.423   1.884   2.192 -0.5453  0.2543 -0.2767
 4072TIP3    H233852   0.531   1.816   2.110 -0.6554 -0.6144  0.2827
 4073TIP3   OH233853   1.981   6.459   7.302 -0.5668  0.5138 -0.4398
 4073TIP3    H133854   2.031   6.397   7.355  0.8610  2.1347  0.1976
 4073TIP3    H233855   1.919   6.404   7.253 -0.4332 -1.2456  1.2264
 4074TIP3   OH233856   0.491   1.218   7.151 -0.1214  0.2637 -0.6686
 4074TIP3    H133857   0.425   1.167   7.104  0.7172 -0.7791 -0.7583
 4074TIP3    H233858   0.461   1.309   7.144 -0.9688 -0.0740 -1.6481
 4075TIP3   OH233859   5.786   3.440   0.644  0.3196 -0.0353  0.1923
 4075TIP3    H133860   5.859   3.446   0.707  0.3386  0.4766  0.1195
 4075TIP3    H233861   5.761   3.347   0.647  0.6410 -0.1159  0.5942
 4076TIP3   OH233862   4.312   4.015   6.261  0.4819 -0.1759  0.5335
 4076TIP3    H133863   4.309   4.070   6.183  1.2301 -1.1314 -0.1955
 4076TIP3    H233864   4.235   4.040   6.311 -0.3410  0.0469 -0.7986
 4077TIP3   OH233865   6.118   4.990   0.163  0.0822 -0.2674 -0.8184
 4077TIP3    H133866   6.100   5.027   0.249  2.2452  0.4487 -0.6204
 4077TIP3    H233867   6.213   4.995   0.154 -0.1592  0.9207 -3.7957
 4078TIP3   OH233868   1.439   0.876   0.778  0.0410 -0.2012  0.4555
 4078TIP3    H133869   1.437   0.781   0.792  0.5866 -0.2871  0.0020
 4078TIP3    H233870   1.528   0.893   0.745 -0.1459  0.4270  0.2711
 4079TIP3   OH233871   3.711   5.095   1.498  0.3019 -0.6035  0.7142
 4079TIP3    H133872   3.751   5.098   1.411  0.1629 -1.1038  0.6260
 4079TIP3    H233873   3.637   5.155   1.493 -0.4511 -1.5393  0.0850
 4080TIP3   OH233874   5.206   3.807   7.428 -0.3278  0.3356 -0.5124
 4080TIP3    H133875   5.301   3.805   7.441 -0.1426 -0.1880 -1.7516
 4080TIP3    H233876   5.180   3.715   7.430 -0.7560  0.4602 -0.4600
 4081TIP3   OH233877   4.554   0.014   6.961  0.9058  0.4725 -0.1379
 4081TIP3    H133878   4.604   0.083   7.005 -1.4147  0.9187  2.0367
 4081TIP3    H233879   4.530   0.051   6.876  1.2805  1.6247  0.2448
 4082TIP3   OH233880   3.807   6.638   6.005 -0.0112 -0.4689  0.3518
 4082TIP3    H133881   3.890   6.683   6.024  0.5240 -1.3633  0.1984
 4082TIP3    H233882   3.739   6.701   6.031  0.7101 -0.1475  1.5345
 4083TIP3   OH233883   4.083   1.724   7.795 -1.0905  0.6844  0.1935
 4083TIP3    H133884   4.045   1.672   7.866  0.2317  0.9747  1.1564
 4083TIP3    H233885   4.078   1.667   7.718  1.3914 -1.4692  1.4340
 4084TIP3   OH233886   3.028   2.783   0.688 -0.0209  0.3313 -0.1679
 4084TIP3    H133887   3.110   2.783   0.638 -0.7592  0.3528 -1.3996
 4084TIP3    H233888   3.046   2.723   0.761  0.8528 -0.2468 -0.8276
 4085TIP3   OH233889   5.896   1.435   8.152  1.1043  0.0648  0.4250
 4085TIP3    H133890   5.983   1.400   8.169  1.4073  0.4749 -0.2516
 4085TIP3    H233891   5.871   1.398   8.067  1.5905  1.7445 -0.4849
 4086TIP3   OH233892   6.495   3.321   1.499  0.2849 -0.1775 -0.6206
 4086TIP3    H133893   6.425   3.378   1.529 -1.1949 -1.8324 -0.8041
 4086TIP3    H233894   6.491   3.244   1.557  0.4716 -1.2912 -2.0257
 4087TIP3   OH233895   6.395   6.200   0.355 -0.1525 -0.1276 -0.1830
 4087TIP3    H133896   6.457   6.240   0.415 -1.9432 -1.4822  2.7969
 4087TIP3    H233897   6.428   6.110   0.343  0.6366  0.3508 -2.0351
 4088TIP3   OH233898   5.396   5.556   1.976 -0.4312 -0.1646 -0.3470
 4088TIP3    H133899   5.359   5.482   1.926 -0.2525 -0.2100 -0.4113
 4088TIP3    H233900   5.412   5.623   1.910  2.8131 -1.3426 -0.9197
 4089TIP3   OH233901   6.457   4.930   1.165  0.7524  0.1082  0.2855
 4089TIP3    H133902   6.407   4.937   1.247  0.7959 -0.1600  0.3371
 4089TIP3    H233903   6.404   4.976   1.100 -1.7320 -3.6736 -0.6691
 4090TIP3   OH233904   6.138   5.956   0.820  0.0179 -0.2685 -1.0872
 4090TIP3    H133905   6.059   6.007   0.839 -0.7152 -2.6938  4.1279
 4090TIP3    H233906   6.208   6.020   0.819 -1.4032  1.4041  0.1053
 4091TIP3   OH233907   2.401   0.921   0.032  0.2198  0.2260  0.2517
 4091TIP3    H133908   2.310   0.897   0.013  0.8049  0.1045 -2.9039
 4091TIP3    H233909   2.453   0.852  -0.009  1.7809  0.5387  1.6126
 4092TIP3   OH233910   6.548   6.714   6.060  0.2837  0.1763  0.4728
 4092TIP3    H133911   6.597   6.639   6.026  0.3312  0.6058 -0.4108
 4092TIP3    H233912   6.492   6.741   5.988  2.0389  2.5447 -0.0963
 4093TIP3   OH233913   1.283   4.905   0.780  0.5268  0.3400  0.1584
 4093TIP3    H133914   1.232   4.954   0.844 -0.4948  1.0275 -1.1183
 4093TIP3    H233915   1.349   4.967   0.749  1.8916 -0.4126  1.4908
 4094TIP3   OH233916   0.914   1.600   7.706  0.5568  0.2432 -0.1172
 4094TIP3    H133917   0.864   1.660   7.650  0.5319 -0.5874 -1.0063
 4094TIP3    H233918   0.966   1.548   7.645  0.7703 -0.4679  0.6511
 4095TIP3   OH233919   4.102   5.117   1.760 -0.2528 -0.3336 -0.0568
 4095TIP3    H133920   4.012   5.086   1.761 -0.7896  1.1715 -0.1752
 4095TIP3    H233921   4.115   5.156   1.846  1.1354 -2.7799  0.9372
 4096TIP3   OH233922   6.439   2.191   0.987 -0.4402 -0.3133 -0.3943
 4096TIP3    H133923   6.487   2.178   0.905  1.0654  0.2319  0.3561
 4096TIP3    H233924   6.389   2.272   0.972  2.1333  1.5025  0.1627
 4097TIP3   OH233925   0.918   3.855   1.869 -0.2198 -0.3684 -0.2108
 4097TIP3    H133926   0.981   3.895   1.810  1.7005 -1.9625  0.6297
 4097TIP3    H233927   0.955   3.768   1.888 -0.6242  0.0878  3.3745
 4098TIP3   OH233928   3.194   4.367   0.097  0.0954  0.5776 -0.5772
 4098TIP3    H133929   3.168   4.280   0.068 -0.6248  0.2049  1.0465
 4098TIP3    H233930   3.178   4.424   0.022 -1.9038 -0.2717 -0.8524
 4099TIP3   OH233931   4.586   6.057   1.136 -0.2464  0.0675 -0.7139
 4099TIP3    H133932   4.537   6.098   1.065  0.1392 -1.3804 -1.8579
 4099TIP3    H233933   4.643   5.994   1.093  0.7545 -0.1120  0.8115
 4100TIP3   OH233934   1.802   6.149   6.350 -0.5961 -0.3787  0.4881
 4100TIP3    H133935   1.762   6.235   6.332 -0.4290 -0.6453 -1.4304
 4100TIP3    H233936   1.896   6.166   6.348 -0.5341 -0.7261 -0.8760
 4101TIP3   OH233937   6.176   4.765   1.541 -0.4889 -0.0660  0.4280
 4101TIP3    H133938   6.197   4.674   1.523 -1.4553 -0.4497  1.1531
 4101TIP3    H233939   6.179   4.772   1.636  1.5902  1.1822  0.3188
 4102TIP3   OH233940   0.127   2.601   0.991 -0.2356  0.4765 -0.1513
 4102TIP3    H133941   0.128   2.514   1.030 -0.9923 -0.1611 -1.4533
 4102TIP3    H233942   0.040   2.636   1.012  0.0681  0.9295  0.3725
 4103TIP3   OH233943   3.356   0.961   6.722  0.0864  0.5405  0.0851
 4103TIP3    H133944   3.273   0.935   6.763 -1.4114  2.2337 -1.6494
 4103TIP3    H233945   3.378   0.888   6.663  0.3845 -0.3497  1.2747
 4104TIP3   OH233946   4.105   0.585   0.200  0.4112  0.3781  0.0881
 4104TIP3    H133947   4.152   0.551   0.276  1.3797  0.5047 -0.4326
 4104TIP3    H233948   4.130   0.526   0.129 -1.3783 -0.4290  0.0763
 4105TIP3   OH233949   0.763   3.588   8.141 -0.1997 -0.1564 -0.3854
 4105TIP3    H133950   0.812   3.605   8.222  0.0097 -1.4078 -0.2177
 4105TIP3    H233951   0.684   3.642   8.148 -0.4882 -0.7113  0.9697
 4106TIP3   OH233952   2.105   5.547   1.211 -0.8902  0.2464  0.1857
 4106TIP3    H133953   2.037   5.543   1.279 -1.6618  2.0987 -0.4329
 4106TIP3    H233954   2.085   5.473   1.154 -0.0707 -1.5215  2.0467
 4107TIP3   OH233955   3.078   1.703   0.462 -0.1638  0.3334  0.2964
 4107TIP3    H133956   3.162   1.681   0.501  0.1857  0.7922 -0.1898
 4107TIP3    H233957   3.079   1.799   0.453 -0.8837  0.3851  0.6160
 4108TIP3   OH233958   1.159   0.678   1.559  0.1977  0.4583 -0.4192
 4108TIP3    H133959   1.177   0.737   1.633  0.8883 -0.0051 -0.2052
 4108TIP3    H233960   1.066   0.661   1.565  0.0397  1.2902 -0.3027
 4109TIP3   OH233961   0.025   4.546   6.296 -0.3652  0.1672 -0.8913
 4109TIP3    H133962   0.015   4.546   6.200  1.1421 -1.3693 -1.0976
 4109TIP3    H233963   0.099   4.487   6.312 -1.6448 -0.9422  1.3444
 4110TIP3   OH233964   0.666   4.409   0.935  0.3324  0.1865  0.1731
 4110TIP3    H133965   0.584   4.428   0.979  0.7701  0.1209  1.0438
 4110TIP3    H233966   0.710   4.493   0.928  0.6783  0.0588  0.7357
 4111TIP3   OH233967   4.664   2.390   6.560 -0.3875  0.0427 -0.7006
 4111TIP3    H133968   4.617   2.327   6.506 -0.4982  0.3714 -0.9892
 4111TIP3    H233969   4.717   2.441   6.498 -0.8919  0.7552 -0.5576
 4112TIP3   OH233970   2.123   6.146   6.677  0.5526  0.6159 -0.0725
 4112TIP3    H133971   2.081   6.153   6.591  2.4345  0.7969 -1.0399
 4112TIP3    H233972   2.069   6.198   6.735  0.3610  2.2303 -1.6181
 4113TIP3   OH233973   1.231   3.753   6.853 -0.1307 -0.1533  0.1153
 4113TIP3    H133974   1.159   3.811   6.829 -0.2943 -0.3824  0.0542
 4113TIP3    H233975   1.259   3.713   6.771 -0.6310 -0.8649  0.2867
 4114TIP3   OH233976   6.325   4.804   6.652  0.3261  0.0837  0.1151
 4114TIP3    H133977   6.276   4.822   6.732 -1.8232  0.0348 -1.1277
 4114TIP3    H233978   6.286   4.725   6.616 -1.5945  2.1970 -2.9950
 4115TIP3   OH233979   5.235   3.652   6.439  0.8506  0.4662  0.7409
 4115TIP3    H133980   5.199   3.740   6.453  1.8129  0.7153  1.7672
 4115TIP3    H233981   5.171   3.609   6.383 -0.9965  0.9479  2.3532
 4116TIP3   OH233982   5.803   2.637   8.046 -0.1883  0.0888 -0.4164
 4116TIP3    H133983   5.731   2.694   8.073 -0.4465 -0.5217  0.1984
 4116TIP3    H233984   5.781   2.612   7.956 -1.3322 -0.9781  0.1241
 4117TIP3   OH233985   0.210   3.005   7.710  0.6156  0.1222  0.1373
 4117TIP3    H133986   0.250   3.089   7.684  1.7786 -0.6601 -0.7002
 4117TIP3    H233987   0.276   2.964   7.766 -0.5215  0.3424  1.6915
 4118TIP3   OH233988   4.204   0.394   7.326  0.1288 -0.5712 -0.3233
 4118TIP3    H133989   4.169   0.471   7.281  0.8762  0.7240  1.2189
 4118TIP3    H233990   4.297   0.391   7.301  0.0471 -1.1745 -0.5997
 4119TIP3   OH233991   6.883   0.190   1.668 -0.0825  0.0034  0.1715
 4119TIP3    H133992   6.846   0.181   1.581 -0.3725  0.1244  0.2815
 4119TIP3    H233993   6.976   0.210   1.653 -0.1348  0.0331 -0.1072
 4120TIP3   OH233994   4.982   1.725   1.459 -0.5205 -0.4873  0.6754
 4120TIP3    H133995   4.983   1.646   1.512  0.7902  0.2016  1.7108
 4120TIP3    H233996   4.901   1.770   1.485 -0.1635 -0.4204  1.6934
 4121TIP3   OH233997   1.711   4.662   6.005 -0.3507 -0.1880 -0.0939
 4121TIP3    H133998   1.800   4.633   5.988  0.1509  0.2847  1.5421
 4121TIP3    H233999   1.676   4.598   6.067 -1.7357 -1.2685 -1.8911
 4122TIP3   OH234000   0.145   4.588   8.234 -0.1482 -0.1224 -0.4242
 4122TIP3    H134001   0.191   4.624   8.310 -0.1037 -0.1981 -0.4149
 4122TIP3    H234002   0.149   4.493   8.247 -0.6822 -0.1174 -0.1989
 4123TIP3   OH234003   4.299   5.342   6.402 -0.5543 -0.3304  0.2673
 4123TIP3    H134004   4.235   5.296   6.348 -0.8421 -1.0521  1.1977
 4123TIP3    H234005   4.298   5.432   6.369 -1.0650 -0.6437 -0.6063
 4124TIP3   OH234006   3.902   1.419   7.371 -0.7907  0.3289 -0.3173
 4124TIP3    H134007   3.939   1.493   7.420 -1.0870  0.3426 -0.1088
 4124TIP3    H234008   3.932   1.341   7.417  2.0252  0.1485 -2.2357
 4125TIP3   OH234009   4.332   4.232   6.727  0.1404  0.2507  0.1278
 4125TIP3    H134010   4.246   4.198   6.753 -0.0831  0.4448 -0.3605
 4125TIP3    H234011   4.314   4.291   6.654  0.7748 -0.3517 -0.5331
 4126TIP3   OH234012   1.868   0.167   8.189  0.0130 -0.3744 -0.4037
 4126TIP3    H134013   1.942   0.122   8.150 -0.3670 -0.6341 -0.8442
 4126TIP3    H234014   1.791   0.118   8.159 -0.4791  1.0105 -1.5425
 4127TIP3   OH234015   5.276   2.461   7.572 -0.4171  0.0289 -0.5093
 4127TIP3    H134016   5.340   2.453   7.642  0.2423 -1.2648 -1.2129
 4127TIP3    H234017   5.198   2.496   7.614  0.4942  0.8919  0.5184
 4128TIP3   OH234018   2.611   4.404   0.337 -0.6742 -0.3578  0.2735
 4128TIP3    H134019   2.596   4.356   0.419  0.6048  0.8118  1.2204
 4128TIP3    H234020   2.523   4.415   0.300 -1.0051 -4.3038 -0.5794
 4129TIP3   OH234021   0.173   4.064   7.639  0.5364  0.4371 -0.1739
 4129TIP3    H134022   0.164   4.006   7.714  1.6613  0.6325  0.1305
 4129TIP3    H234023   0.132   4.146   7.667  0.3651  0.2939 -0.0097
 4130TIP3   OH234024   4.718   4.304   6.900 -0.1881  0.2364 -0.2088
 4130TIP3    H134025   4.679   4.233   6.951  0.2981  1.4145  1.9474
 4130TIP3    H234026   4.678   4.383   6.934  1.4878  1.2159 -0.3770
 4131TIP3   OH234027   2.911   4.329   1.055  0.0693  0.1949  0.3577
 4131TIP3    H134028   2.913   4.422   1.079  0.0676  0.2477  0.1552
 4131TIP3    H234029   2.821   4.313   1.028 -0.8973 -0.7009  3.6074
 4132TIP3   OH234030   0.331   2.005   7.619  0.2652  0.2588  0.1112
 4132TIP3    H134031   0.277   2.070   7.666  1.0030  0.7581  0.2963
 4132TIP3    H234032   0.382   2.057   7.557  2.1848  0.1166  1.4901
 4133TIP3   OH234033   5.968   0.601   7.417  0.0780  0.1132 -0.1233
 4133TIP3    H134034   5.984   0.552   7.498 -0.7844 -1.4872 -0.8758
 4133TIP3    H234035   5.904   0.548   7.369 -0.2577  1.5813 -1.3718
 4134TIP3   OH234036   3.849   4.279   7.676  0.3608 -0.2430  0.2420
 4134TIP3    H134037   3.832   4.267   7.582 -1.4177  1.1802  0.3335
 4134TIP3    H234038   3.916   4.213   7.696  1.0160 -0.3866 -2.0723
 4135TIP3   OH234039   4.709   2.572   0.324  0.0550 -0.6227 -0.0938
 4135TIP3    H134040   4.650   2.585   0.397  1.8529  1.4234  1.1287
 4135TIP3    H234041   4.731   2.661   0.294  1.0366 -1.3526 -1.7027
 4136TIP3   OH234042   5.032   4.400   7.991  0.1704 -0.1042  0.1321
 4136TIP3    H134043   5.057   4.405   8.083  1.2807 -2.8524  0.0747
 4136TIP3    H234044   5.098   4.454   7.946  0.0045  0.7247  0.8472
 4137TIP3   OH234045   3.609   2.911   7.562 -0.3191 -0.8261 -0.5340
 4137TIP3    H134046   3.551   2.902   7.637  1.0259  1.2522  0.8769
 4137TIP3    H234047   3.665   2.833   7.566 -0.5313 -0.9453  0.3899
 4138TIP3   OH234048   4.139   3.022   0.960 -0.2754 -0.1225  0.0742
 4138TIP3    H134049   4.169   2.949   1.014  1.0392  1.1376  1.1547
 4138TIP3    H234050   4.216   3.079   0.952 -0.9572  0.6350 -1.6260
 4139TIP3   OH234051   4.090   6.424   1.545  0.1827 -0.3438  0.0086
 4139TIP3    H134052   4.065   6.355   1.607  0.7968  0.1135  0.7921
 4139TIP3    H234053   4.112   6.498   1.601 -0.8919  0.6443 -0.8359
 4140TIP3   OH234054   2.161   4.143   0.093 -0.5172  0.2373  0.3883
 4140TIP3    H134055   2.191   4.065   0.141  0.8558  0.5626  0.1118
 4140TIP3    H234056   2.224   4.211   0.117 -0.1618  0.5719 -1.3638
 4141TIP3   OH234057   7.014   2.059   0.132  0.1633 -0.2408 -0.3197
 4141TIP3    H134058   6.919   2.055   0.120  0.0995  0.8107 -0.2328
 4141TIP3    H234059   7.038   2.147   0.102  0.8327  0.1977  1.4008
 4142TIP3   OH234060   0.434   6.771   1.776  0.4990  0.7488 -0.0061
 4142TIP3    H134061   0.412   6.800   1.865  1.6592  0.9927  0.2268
 4142TIP3    H234062   0.350   6.761   1.732 -0.0551  1.5905  0.8215
 4143TIP3   OH234063   5.942   6.668   5.986  0.1651 -0.4648  0.7713
 4143TIP3    H134064   5.856   6.673   6.027  0.4656  2.3696  1.2606
 4143TIP3    H234065   5.932   6.716   5.904  1.3773  0.3095  1.0552
 4144TIP3   OH234066   6.544   2.584   7.707  0.0741 -0.1007  0.1488
 4144TIP3    H134067   6.533   2.673   7.674 -0.3073 -0.2018 -0.0089
 4144TIP3    H234068   6.503   2.585   7.793  0.7112  0.0601  0.4500
 4145TIP3   OH234069   0.979   4.532   1.660 -0.0283  0.1769  0.4899
 4145TIP3    H134070   0.941   4.447   1.679 -2.0388  0.5846 -1.3842
 4145TIP3    H234071   0.927   4.594   1.712  0.3458  0.4264  0.5730
 4146TIP3   OH234072   5.822   0.454   1.842 -0.2476 -0.1548  0.1583
 4146TIP3    H134073   5.748   0.461   1.902 -1.1512  0.6429 -0.9955
 4146TIP3    H234074   5.887   0.401   1.889 -2.7578 -3.6337  0.0526
 4147TIP3   OH234075   4.335   5.521   7.764  0.3800 -0.2388 -0.1613
 4147TIP3    H134076   4.344   5.576   7.842 -1.4451  0.9615 -0.7465
 4147TIP3    H234077   4.311   5.582   7.695 -0.6511 -1.6338 -1.0724
 4148TIP3   OH234078   1.914   4.138   6.398 -0.2319  0.2185  0.1779
 4148TIP3    H134079   1.949   4.211   6.347 -0.9459  0.4662  0.0240
 4148TIP3    H234080   1.959   4.143   6.482 -1.2036  1.6588  0.6528
 4149TIP3   OH234081   0.325   0.530   6.557 -0.4017  0.2763 -0.1040
 4149TIP3    H134082   0.271   0.520   6.635 -0.5903 -2.1201 -0.4814
 4149TIP3    H234083   0.262   0.542   6.486 -0.2793  0.8445 -0.1257
 4150TIP3   OH234084   1.224   5.430   7.828 -0.0951 -0.2389  0.2846
 4150TIP3    H134085   1.173   5.349   7.825  0.5212 -0.6416  0.4631
 4150TIP3    H234086   1.305   5.406   7.874 -0.3100  0.6966  1.1897
 4151TIP3   OH234087   5.054   6.905   0.828  0.3450 -0.8568 -0.8558
 4151TIP3    H134088   5.136   6.865   0.799  0.0294 -1.4598 -0.9243
 4151TIP3    H234089   5.002   6.832   0.862  0.2582 -0.3352  0.1905
 4152TIP3   OH234090   6.918   6.604   7.158  0.0369 -0.4155  0.3640
 4152TIP3    H134091   6.967   6.534   7.203  1.1549  0.3498  0.3585
 4152TIP3    H234092   6.883   6.562   7.079  0.4676 -1.0399  0.4991
 4153TIP3   OH234093   3.603   4.406   1.336 -0.2077  0.2054  0.2443
 4153TIP3    H134094   3.508   4.396   1.347 -0.3723 -0.4511 -1.5456
 4153TIP3    H234095   3.641   4.335   1.388 -0.7529 -0.4309 -0.2203
 4154TIP3   OH234096   0.871   5.658   0.897 -0.2883 -0.4703  0.1611
 4154TIP3    H134097   0.845   5.618   0.814  0.1984  1.0507 -0.7802
 4154TIP3    H234098   0.808   5.730   0.908  0.7307  0.4602  0.1468
 4155TIP3   OH234099   2.449   2.877   8.016 -0.0020  0.0652  0.1828
 4155TIP3    H134100   2.369   2.916   7.981  0.5657  0.3234 -0.8509
 4155TIP3    H234101   2.486   2.946   8.072 -1.8633 -0.9760  2.9384
 4156TIP3   OH234102   3.924   2.303   0.130  0.2958 -0.3809  0.5400
 4156TIP3    H134103   3.945   2.210   0.145  3.1412  0.0001 -0.5065
 4156TIP3    H234104   4.007   2.342   0.104 -0.9607  2.3856  0.4027
 4157TIP3   OH234105   5.030   4.406   1.784 -0.3109 -0.7409 -0.7034
 4157TIP3    H134106   4.941   4.378   1.804 -0.2358 -0.8350 -0.4981
 4157TIP3    H234107   5.082   4.379   1.860 -0.4032  0.8218 -0.0246
 4158TIP3   OH234108   3.590   6.087   6.774  0.2012  0.1052  0.2857
 4158TIP3    H134109   3.647   6.095   6.850  1.3933 -0.6437 -0.4895
 4158TIP3    H234110   3.650   6.078   6.700 -0.9292 -0.2910 -0.6121
 4159TIP3   OH234111   4.128   3.604   0.224  0.1513  0.4588  0.9232
 4159TIP3    H134112   4.219   3.615   0.249 -0.3232  0.1295  2.8950
 4159TIP3    H234113   4.124   3.517   0.184  0.6540  0.3765  1.0512
 4160TIP3   OH234114   3.489   3.305   6.752 -0.0331 -0.3368 -0.3908
 4160TIP3    H134115   3.562   3.243   6.750 -1.0042 -1.5477  0.3445
 4160TIP3    H234116   3.494   3.346   6.838  2.0735  2.5441 -1.6989
 4161TIP3   OH234117   2.063   5.070   6.913  0.2093 -0.3028  0.1635
 4161TIP3    H134118   1.979   5.108   6.937 -0.4398  0.2730 -2.6509
 4161TIP3    H234119   2.114   5.072   6.994 -1.7287  1.3669  1.4490
 4162TIP3   OH234120   1.288   0.535   1.340  0.0780 -0.2481  0.2181
 4162TIP3    H134121   1.376   0.497   1.331 -0.2763 -1.0657  0.1025
 4162TIP3    H234122   1.289   0.580   1.424 -0.0536 -2.1063  1.2649
 4163TIP3   OH234123   4.536   2.110   0.934 -0.0405  0.2920 -0.3459
 4163TIP3    H134124   4.511   2.076   0.848  0.5122 -0.3363 -0.2679
 4163TIP3    H234125   4.628   2.084   0.943  0.5849  2.2435 -0.5104
 4164TIP3   OH234126   2.055   5.113   6.637  0.0932 -0.2873 -0.4467
 4164TIP3    H134127   2.034   5.203   6.660  1.4339 -0.1461  0.3056
 4164TIP3    H234128   2.095   5.076   6.715  1.2176 -0.9903 -1.3224
 4165TIP3   OH234129   0.813   3.896   7.996 -0.7619 -0.1312 -0.1557
 4165TIP3    H134130   0.872   3.823   7.977  3.9726  3.1873  0.0800
 4165TIP3    H234131   0.779   3.922   7.910 -0.4850 -1.0458 -0.5567
 4166TIP3   OH234132   2.542   0.102   7.316  0.3968  0.1604 -0.2410
 4166TIP3    H134133   2.555   0.197   7.308  2.6230 -0.0949 -0.2876
 4166TIP3    H234134   2.622   0.071   7.358 -0.9833 -1.5261  1.2583
 4167TIP3   OH234135   6.098   6.278   7.011  0.1162 -0.7696  0.3844
 4167TIP3    H134136   6.060   6.357   6.972 -0.8575 -1.3103  0.1821
 4167TIP3    H234137   6.112   6.301   7.103 -0.9193 -0.6052  0.5142
 4168TIP3   OH234138   5.363   3.057   1.214 -0.1558  0.5040 -0.2879
 4168TIP3    H134139   5.378   3.150   1.229 -0.5324  0.3235  1.3854
 4168TIP3    H234140   5.302   3.031   1.283  1.4363 -1.4099  0.4810
 4169TIP3   OH234141   0.839   3.095   7.616 -0.2262  0.2038  0.2676
 4169TIP3    H134142   0.844   3.174   7.563 -1.5624  0.8022  0.9813
 4169TIP3    H234143   0.901   3.035   7.575 -2.6220 -0.1541 -3.2870
 4170TIP3   OH234144   4.571   1.440   7.985 -0.1790 -0.1932 -0.2552
 4170TIP3    H134145   4.580   1.353   7.946 -2.3729 -0.1771 -0.9587
 4170TIP3    H234146   4.547   1.496   7.911 -0.3104  0.6991  0.4587
 4171TIP3   OH234147   5.010   2.439   8.044  0.2804 -0.0696 -0.0502
 4171TIP3    H134148   5.034   2.513   8.100 -1.1368 -0.2583  0.8293
 4171TIP3    H234149   4.973   2.479   7.965 -0.5938  0.1682  0.4752
 4172TIP3   OH234150   2.402   0.597   0.461  0.4564 -0.1854  1.1254
 4172TIP3    H134151   2.430   0.545   0.385 -0.2433  0.5304  0.3486
 4172TIP3    H234152   2.401   0.536   0.534 -0.6186 -1.3503  0.1787
 4173TIP3   OH234153   6.150   6.648   0.196 -0.6994 -0.0765  0.2592
 4173TIP3    H134154   6.095   6.664   0.273 -0.2693 -0.3787  0.6383
 4173TIP3    H234155   6.125   6.560   0.167  0.1341 -0.5423  0.9128
 4174TIP3   OH234156   2.056   1.117   1.064  0.5166  0.2559 -0.0438
 4174TIP3    H134157   2.117   1.119   1.137  0.6535 -0.8609 -0.1045
 4174TIP3    H234158   2.109   1.089   0.989  0.0335 -0.2727 -0.1941
 4175TIP3   OH234159   6.857   4.324   6.364 -0.4770 -0.9602 -0.0091
 4175TIP3    H134160   6.806   4.246   6.388  1.6094 -2.6094 -0.5804
 4175TIP3    H234161   6.928   4.289   6.310  1.5454  1.1301  1.1529
 4176TIP3   OH234162   2.984   2.836   6.524 -0.5469  0.2880  0.1965
 4176TIP3    H134163   2.967   2.825   6.618  0.4861 -0.2689  0.3248
 4176TIP3    H234164   3.028   2.755   6.497 -2.4390 -0.3451 -1.1817
 4177TIP3   OH234165   1.859   6.042   7.774  0.2414 -0.4365 -0.0233
 4177TIP3    H134166   1.946   6.070   7.806 -0.9026 -1.0042  4.2385
 4177TIP3    H234167   1.870   5.949   7.754  0.6986 -0.4446  0.2346
 4178TIP3   OH234168   3.287   2.203   8.036 -0.2987  0.1238 -1.1371
 4178TIP3    H134169   3.275   2.253   7.955  0.1493  0.3810 -1.0444
 4178TIP3    H234170   3.200   2.203   8.076 -1.2815 -2.3901 -2.9549
 4179TIP3   OH234171   5.762   2.061   8.008  0.1744  0.6714  0.3647
 4179TIP3    H134172   5.775   2.126   8.078 -0.9998  0.5150  0.7538
 4179TIP3    H234173   5.667   2.049   8.004  0.3092 -0.2384 -0.4306
 4180TIP3   OH234174   1.002   6.726   1.042  0.3425 -0.0214 -0.0700
 4180TIP3    H134175   1.088   6.707   1.004  2.1380 -1.3925  4.0899
 4180TIP3    H234176   0.955   6.642   1.037  0.7086 -0.2991  0.8534
 4181TIP3   OH234177   4.162   6.462   0.112  0.0690  0.5322 -0.1654
 4181TIP3    H134178   4.203   6.398   0.055  0.2980 -0.2996  0.8929
 4181TIP3    H234179   4.235   6.519   0.139  0.6561 -1.0023  1.7895
 4182TIP3   OH234180   1.375   1.716   7.461  0.4478 -0.2700  0.3215
 4182TIP3    H134181   1.292   1.764   7.460  2.5570  3.9004  2.3999
 4182TIP3    H234182   1.385   1.687   7.552  0.5731 -2.2586 -0.2866
 4183TIP3   OH234183   6.608   3.997   1.518 -0.6201  0.0076 -0.1264
 4183TIP3    H134184   6.552   3.939   1.466  1.6962 -1.3443 -1.2582
 4183TIP3    H234185   6.610   4.079   1.468 -0.9917 -0.1835 -0.4598
 4184TIP3   OH234186   3.542   4.913   0.988 -0.9094 -0.1204  0.4102
 4184TIP3    H134187   3.614   4.970   1.013 -1.2075  0.5697 -0.2676
 4184TIP3    H234188   3.466   4.949   1.034 -0.7552 -1.1691  1.5649
 4185TIP3   OH234189   4.715   5.498   7.914  0.5097 -0.7161 -0.2562
 4185TIP3    H134190   4.781   5.478   7.980 -1.2806 -3.2945  0.8963
 4185TIP3    H234191   4.726   5.430   7.847  0.3612  0.0927 -1.1336
 4186TIP3   OH234192   0.904   5.208   0.710 -0.0739 -0.4004 -0.2697
 4186TIP3    H134193   0.856   5.139   0.755 -0.8774  0.0260 -0.4551
 4186TIP3    H234194   0.955   5.251   0.778  0.3681 -1.1241 -0.1423
 4187TIP3   OH234195   6.725   1.474   0.046 -0.4722 -0.6418  0.1586
 4187TIP3    H134196   6.747   1.540   0.112 -0.4643 -0.1114 -0.3654
 4187TIP3    H234197   6.790   1.405   0.059  0.4145  0.1029 -0.2086
 4188TIP3   OH234198   2.052   6.358   7.782 -0.5697  0.3552  0.1890
 4188TIP3    H134199   2.101   6.288   7.738 -3.5803 -1.4403 -0.6143
 4188TIP3    H234200   1.980   6.378   7.722 -3.1205 -0.0479  2.8622
 4189TIP3   OH234201   6.466   0.677   1.501 -0.1520 -0.2124  0.6185
 4189TIP3    H134202   6.538   0.697   1.441  1.3786 -0.1236  2.3655
 4189TIP3    H234203   6.387   0.705   1.455  0.9804  0.1532 -1.1815
 4190TIP3   OH234204   3.858   4.182   6.734  0.3207 -0.0305  0.2900
 4190TIP3    H134205   3.940   4.145   6.700 -0.2870 -0.5205 -0.7104
 4190TIP3    H234206   3.805   4.105   6.756 -0.7644  0.2075 -1.3213
 4191TIP3   OH234207   6.846   4.178   1.722  0.3622 -0.0375 -0.3885
 4191TIP3    H134208   6.834   4.177   1.627 -0.1549  2.5197 -0.4381
 4191TIP3    H234209   6.887   4.263   1.740  1.2698 -0.8389  1.6103
 4192TIP3   OH234210   6.484   5.330   0.403 -0.1982 -0.8540  0.2552
 4192TIP3    H134211   6.563   5.280   0.379  0.2447 -0.9462  1.8053
 4192TIP3    H234212   6.428   5.266   0.446  0.2669 -0.1070  2.0435
 4193TIP3   OH234213   6.862   6.198   1.838 -0.2542 -0.0362  0.6103
 4193TIP3    H134214   6.899   6.268   1.892 -1.9990  1.1630  0.3238
 4193TIP3    H234215   6.910   6.202   1.756 -1.1394  1.6889  0.1316
 4194TIP3   OH234216   3.470   6.995   1.180  0.1182  0.5830 -0.4856
 4194TIP3    H134217   3.534   7.048   1.132 -0.2917  0.6003 -1.0262
 4194TIP3    H234218   3.387   7.041   1.169 -0.3543 -0.4467 -1.4306
 4195TIP3   OH234219   1.022   6.510   0.439  0.2550 -0.4798  0.2548
 4195TIP3    H134220   1.109   6.541   0.413 -0.6394  1.7387 -0.4044
 4195TIP3    H234221   1.026   6.504   0.534  1.3427 -1.1671  0.1828
 4196TIP3   OH234222   2.605   5.914   0.225 -0.0242 -0.1399  0.0714
 4196TIP3    H134223   2.585   5.883   0.137  0.4906  0.5790 -0.3090
 4196TIP3    H234224   2.542   5.868   0.281 -0.4435 -0.5070 -0.6761
 4197TIP3   OH234225   2.397   5.193   1.175  0.0685 -0.1082 -0.4660
 4197TIP3    H134226   2.370   5.284   1.192  1.3756  0.1858  0.1671
 4197TIP3    H234227   2.324   5.140   1.208 -0.0768  0.6716  0.5261
 4198TIP3   OH234228   0.393   2.615   1.600  0.1924 -0.4103 -0.7153
 4198TIP3    H134229   0.313   2.582   1.559  0.2243 -1.0133 -0.2961
 4198TIP3    H234230   0.430   2.540   1.645  0.5090  0.0890 -0.1213
 4199TIP3   OH234231   3.612   4.912   7.212  0.1882  0.4557 -0.0974
 4199TIP3    H134232   3.702   4.879   7.211  0.1082  0.2154 -1.0070
 4199TIP3    H234233   3.564   4.850   7.266  0.4795  0.3145  0.0003
 4200TIP3   OH234234   6.280   1.715   7.091 -0.1408 -0.0790 -0.0917
 4200TIP3    H134235   6.358   1.675   7.131 -0.9463 -0.2750  1.3467
 4200TIP3    H234236   6.245   1.773   7.158 -0.3938  1.1906 -1.2803
 4201TIP3   OH234237   5.439   5.576   8.236 -0.6887 -0.8205  0.2686
 4201TIP3    H134238   5.470   5.500   8.284  0.7984  0.1449  0.9233
 4201TIP3    H234239   5.447   5.551   8.144  1.6562 -0.8312  0.4166
 4202TIP3   OH234240   6.236   5.884   7.217  0.5529 -0.3068 -0.6676
 4202TIP3    H134241   6.195   5.970   7.208  0.6087 -0.3462 -1.3337
 4202TIP3    H234242   6.279   5.869   7.133  0.4551 -1.0383 -0.5907
 4203TIP3   OH234243   6.502   1.354   0.421 -0.0944  0.0708 -0.5783
 4203TIP3    H134244   6.416   1.349   0.464 -0.6090 -0.4988 -1.6466
 4203TIP3    H234245   6.563   1.369   0.493 -0.8604 -1.4610  0.4658
 4204TIP3   OH234246   2.670   5.336   0.438  0.3708 -0.2358 -0.1952
 4204TIP3    H134247   2.653   5.428   0.419  1.7971 -0.2730 -1.9331
 4204TIP3    H234248   2.613   5.316   0.512 -1.4889  1.4957 -1.0552
 4205TIP3   OH234249   1.813   1.422   0.108 -0.1200  0.3246  0.2693
 4205TIP3    H134250   1.727   1.449   0.075 -0.0389 -1.4120 -1.5881
 4205TIP3    H234251   1.798   1.336   0.147  0.7442  0.0480  0.0244
 4206TIP3   OH234252   2.931   1.368   7.226 -0.5552  0.1718  0.2312
 4206TIP3    H134253   2.863   1.406   7.282 -1.6196 -0.1858 -0.7957
 4206TIP3    H234254   2.981   1.311   7.285 -1.4676  0.0290  0.8916
 4207TIP3   OH234255   5.784   1.354   0.328  0.0711  0.1588 -0.9125
 4207TIP3    H134256   5.811   1.446   0.322 -0.2099  0.2287 -1.1359
 4207TIP3    H234257   5.731   1.340   0.249  1.0060 -0.4972 -1.4438
 4208TIP3   OH234258   1.210   3.788   0.576  0.3947 -0.3379 -0.3561
 4208TIP3    H134259   1.296   3.747   0.585  0.7264  0.0415 -1.6403
 4208TIP3    H234260   1.224   3.864   0.520 -1.0107 -1.1263 -1.8710
 4209TIP3   OH234261   5.096   0.330   7.077  0.6289 -0.4330  0.0585
 4209TIP3    H134262   5.123   0.408   7.126  1.3031 -0.7103  0.1471
 4209TIP3    H234263   5.129   0.256   7.129  0.2552 -0.7706 -0.1741
 4210TIP3   OH234264   4.481   0.852   1.472  0.3588 -0.0386 -0.6078
 4210TIP3    H134265   4.393   0.834   1.506  0.2355  1.8260  0.1516
 4210TIP3    H234266   4.535   0.781   1.507 -0.4613 -0.0970  0.5910
 4211TIP3   OH234267   4.993   2.095   2.292  0.5116 -0.4908  0.1680
 4211TIP3    H134268   5.065   2.137   2.339  1.5042  0.5525 -2.1216
 4211TIP3    H234269   5.002   2.002   2.313  3.3609 -0.5798 -0.9683
 4212TIP3   OH234270   4.496   1.194   6.169 -0.8832 -0.2953  0.3957
 4212TIP3    H134271   4.450   1.210   6.251 -2.5908 -0.6237 -0.4400
 4212TIP3    H234272   4.523   1.280   6.138 -1.3576 -0.0486  0.6701
 4213TIP3   OH234273   5.578   2.949   6.328 -0.5297  0.0531  0.0912
 4213TIP3    H134274   5.552   2.904   6.248  0.6895  0.9111 -0.8306
 4213TIP3    H234275   5.502   3.003   6.351 -0.9256 -0.2796 -0.4095
 4214TIP3   OH234276   4.138   2.659   6.948  0.2284  0.0596 -0.3903
 4214TIP3    H134277   4.228   2.631   6.932 -0.0216 -0.0678 -1.6424
 4214TIP3    H234278   4.109   2.604   7.021  0.4000 -1.5886 -1.5066
 4215TIP3   OH234279   3.911   3.847   6.871 -0.4430  0.2849  0.3707
 4215TIP3    H134280   3.927   3.858   6.965  0.0039  1.1547  0.1955
 4215TIP3    H234281   3.927   3.754   6.856 -0.7359  0.0876  1.1923
 4216TIP3   OH234282   6.465   0.736   7.782 -0.0359  0.0278 -0.2051
 4216TIP3    H134283   6.455   0.657   7.835  1.4016  0.0968  0.1850
 4216TIP3    H234284   6.556   0.736   7.753 -0.1621  1.2438 -0.6915
 4217TIP3   OH234285   0.251   6.966   0.839  0.1631 -0.3752 -0.4768
 4217TIP3    H134286   0.233   6.981   0.932  1.2191 -1.3447 -0.0970
 4217TIP3    H234287   0.288   7.048   0.808 -0.1436 -0.0656 -0.0328
 4218TIP3   OH234288   1.440   6.497   5.881  0.5978  0.3056  0.3689
 4218TIP3    H134289   1.437   6.578   5.830 -0.2566 -0.0433 -0.1672
 4218TIP3    H234290   1.510   6.446   5.842  0.7725  0.5582  0.3502
 4219TIP3   OH234291   6.485   5.058   0.700 -0.0007 -0.9501  0.1603
 4219TIP3    H134292   6.440   4.982   0.736  0.0934 -1.4286 -0.7190
 4219TIP3    H234293   6.445   5.133   0.744  0.2207 -1.5190  1.3780
 4220TIP3   OH234294   1.605   6.116   0.848 -0.5662  0.1589  0.2373
 4220TIP3    H134295   1.687   6.161   0.829  0.2174 -0.4403  1.9680
 4220TIP3    H234296   1.548   6.186   0.881 -0.6867  0.5361 -0.7460
 4221TIP3   OH234297   5.125   6.522   1.207  0.0563 -0.2270  0.3145
 4221TIP3    H134298   5.080   6.440   1.228 -0.2850 -0.6248 -1.7408
 4221TIP3    H234299   5.054   6.587   1.201 -0.1843 -0.5981 -1.6903
 4222TIP3   OH234300   4.925   1.221   0.539  0.5956 -0.0344  0.2343
 4222TIP3    H134301   4.932   1.271   0.457  0.8749  0.8407  0.7705
 4222TIP3    H234302   5.013   1.185   0.552  0.4229 -0.5741 -0.0975
 4223TIP3   OH234303   3.336   1.303   1.806 -0.4214 -0.1840  0.4489
 4223TIP3    H134304   3.399   1.234   1.788 -0.0625  0.2157  0.1546
 4223TIP3    H234305   3.377   1.357   1.874 -0.7710 -0.3551  0.7967
 4224TIP3   OH234306   0.695   4.901   1.260  0.4008  0.4875  0.0834
 4224TIP3    H134307   0.635   4.908   1.186  1.2283  1.3422 -0.5315
 4224TIP3    H234308   0.638   4.880   1.335 -0.3401 -1.4683 -0.9381
 4225TIP3   OH234309   1.632   6.743   6.951  0.0333 -0.1285 -0.0226
 4225TIP3    H134310   1.578   6.819   6.932 -2.1181 -1.3080  1.0281
 4225TIP3    H234311   1.592   6.672   6.901  1.2131 -0.8605  0.0361
 4226TIP3   OH234312   0.448   5.835   6.288 -0.0331  0.1587  0.3058
 4226TIP3    H134313   0.458   5.893   6.364  0.4704  1.8557 -0.9860
 4226TIP3    H234314   0.535   5.798   6.274 -0.2332 -0.5278  0.8099
 4227TIP3   OH234315   3.818   6.999   0.222  0.0710 -0.3012 -0.1286
 4227TIP3    H134316   3.898   6.947   0.230 -0.5118 -1.1349  0.4333
 4227TIP3    H234317   3.779   6.972   0.139  0.8551  0.8149 -0.8776
 4228TIP3   OH234318   6.151   5.130   0.719 -0.6938  0.3318 -0.1287
 4228TIP3    H134319   6.216   5.137   0.648 -0.5400  0.7281  0.0462
 4228TIP3    H234320   6.194   5.172   0.794 -1.5502  1.5549 -0.2939
 4229TIP3   OH234321   1.672   0.310   0.253 -0.2282 -0.4302  0.1994
 4229TIP3    H134322   1.625   0.347   0.178 -1.0801  0.5176  1.1865
 4229TIP3    H234323   1.603   0.281   0.313  0.4137  0.8032  1.5827
 4230TIP3   OH234324   6.771   5.487   1.169  0.3492 -0.0086  0.2655
 4230TIP3    H134325   6.786   5.562   1.227  1.5833 -0.6500  0.8007
 4230TIP3    H234326   6.684   5.455   1.194  0.1563  0.7385  0.5907
 4231TIP3   OH234327   0.090   5.057   0.862 -0.0974  0.2778 -0.8002
 4231TIP3    H134328   0.134   5.030   0.781 -1.1604 -2.1667 -0.6717
 4231TIP3    H234329   0.080   4.975   0.911 -3.2854  0.9604 -0.1232
 4232TIP3   OH234330   2.780   4.630   0.326 -0.0991 -0.0270  0.6917
 4232TIP3    H134331   2.713   4.563   0.315 -0.0376 -0.3350  2.0091
 4232TIP3    H234332   2.836   4.621   0.249 -2.1045  0.9081 -0.9632
 4233TIP3   OH234333   0.680   3.964   7.225 -0.2718  0.0695 -0.1214
 4233TIP3    H134334   0.605   4.022   7.239 -0.9565 -0.7039 -0.4866
 4233TIP3    H234335   0.742   3.988   7.294 -0.3162  1.5507 -0.5418
 4234TIP3   OH234336   0.851   1.719   6.310  0.3335 -0.6450  0.3007
 4234TIP3    H134337   0.945   1.701   6.309  0.2429 -1.1919 -1.1451
 4234TIP3    H234338   0.811   1.641   6.347  0.3268 -1.1998 -0.8528
 4235TIP3   OH234339   0.049   0.885   1.778 -1.0229 -0.4944  0.1440
 4235TIP3    H134340  -0.031   0.900   1.728 -0.3625  1.3900 -0.4326
 4235TIP3    H234341   0.106   0.837   1.719 -0.5230  1.0761 -0.7014
 4236TIP3   OH234342   5.735   1.544   7.654 -0.4679 -0.0422 -0.0146
 4236TIP3    H134343   5.694   1.620   7.696  0.4855  0.3999  0.1529
 4236TIP3    H234344   5.699   1.468   7.699 -1.3265  0.3187 -0.0827
 4237TIP3   OH234345   0.132   3.415   2.368 -0.1762 -0.0459 -0.2343
 4237TIP3    H134346   0.170   3.479   2.306  2.1916 -0.4905  0.6388
 4237TIP3    H234347   0.125   3.463   2.450 -0.2169 -0.3749 -0.0463
 4238TIP3   OH234348   1.424   6.069   1.200  0.4088 -0.0496 -1.0560
 4238TIP3    H134349   1.513   6.093   1.176  0.5413  0.8729  0.2473
 4238TIP3    H234350   1.429   6.047   1.294 -0.5998 -0.6767 -1.1318
 4239TIP3   OH234351   5.360   2.980   6.859  0.4951 -0.6091  0.3289
 4239TIP3    H134352   5.448   2.971   6.822 -0.2261 -0.3901 -1.5268
 4239TIP3    H234353   5.305   3.005   6.785 -0.7382  1.6805  1.8755
 4240TIP3   OH234354   5.057   6.645   8.085  0.0406  0.1157  0.4078
 4240TIP3    H134355   5.007   6.702   8.026  0.5228  2.0130  1.7546
 4240TIP3    H234356   4.994   6.621   8.153  0.4654  1.1048  1.1748
 4241TIP3   OH234357   0.693   3.628   7.803  0.3689  0.7929  0.1162
 4241TIP3    H134358   0.700   3.715   7.843 -1.3197  1.1417 -0.2628
 4241TIP3    H234359   0.727   3.639   7.714 -0.4238  1.2504 -0.1442
 4242TIP3   OH234360   6.489   4.435   1.226  0.5094 -0.3447 -0.2227
 4242TIP3    H134361   6.544   4.362   1.253 -0.1467 -0.3614  1.1293
 4242TIP3    H234362   6.545   4.487   1.169  2.0254 -0.2242  1.3066
 4243TIP3   OH234363   3.190   0.212   8.075  0.3324  0.2760  0.5562
 4243TIP3    H134364   3.206   0.307   8.070 -1.7535  0.6085 -2.0246
 4243TIP3    H234365   3.244   0.175   8.006 -1.3079  0.0832 -0.7000
 4244TIP3   OH234366   1.492   2.411   5.772 -0.1233  0.3314 -0.3525
 4244TIP3    H134367   1.504   2.335   5.830 -0.3584  1.4212  1.1932
 4244TIP3    H234368   1.421   2.461   5.813 -0.2126  1.2117 -1.5341
 4245TIP3   OH234369   3.394   2.810   0.781 -0.4369 -0.6159 -0.1543
 4245TIP3    H134370   3.326   2.743   0.778  0.0795 -1.1287 -0.4438
 4245TIP3    H234371   3.353   2.883   0.828 -0.7393 -1.4180  0.8555
 4246TIP3   OH234372   6.761   5.710   0.417 -0.1068 -0.1996  0.1137
 4246TIP3    H134373   6.711   5.739   0.493  2.0334  1.0805  1.1357
 4246TIP3    H234374   6.703   5.649   0.372 -1.7548 -0.3886  2.3163
 4247TIP3   OH234375   5.216   2.027   7.214  0.1406  0.1993 -0.8809
 4247TIP3    H134376   5.248   2.117   7.210 -0.9861  0.6194 -0.7601
 4247TIP3    H234377   5.154   2.020   7.141 -2.2301  0.5265  0.9965
 4248TIP3   OH234378   3.479   5.339   1.533 -0.1070  0.0925  0.7968
 4248TIP3    H134379   3.439   5.414   1.488  4.0436  1.9084 -0.3164
 4248TIP3    H234380   3.497   5.371   1.621  0.4318 -0.0901  0.7551
 4249TIP3   OH234381   2.299   2.406   1.769  0.0248  0.4602  0.0391
 4249TIP3    H134382   2.228   2.370   1.823 -0.0008 -0.1365 -0.3775
 4249TIP3    H234383   2.254   2.450   1.698  0.0559  1.3869  0.5786
 4250TIP3   OH234384   4.824   0.997   0.811 -0.2059  0.4472  0.4653
 4250TIP3    H134385   4.777   0.914   0.818 -0.6585  0.2835 -2.9409
 4250TIP3    H234386   4.783   1.042   0.738  2.6819  1.8382 -0.4452
 4251TIP3   OH234387   6.628   6.335   0.505 -0.3513  0.0649 -0.4668
 4251TIP3    H134388   6.616   6.399   0.574  0.4460  0.4450 -0.6681
 4251TIP3    H234389   6.719   6.347   0.477 -0.6885 -0.0317 -1.6336
 4252TIP3   OH234390   4.004   2.002   1.466 -0.3122  0.2098  0.4327
 4252TIP3    H134391   4.052   1.936   1.416  1.1921  1.7459 -0.2724
 4252TIP3    H234392   4.056   2.015   1.545 -1.0773 -0.0681  0.9894
 4253TIP3   OH234393   1.712   4.509   6.927 -0.5034  0.4606 -0.0664
 4253TIP3    H134394   1.642   4.554   6.881 -1.9407 -1.4185  0.1777
 4253TIP3    H234395   1.696   4.416   6.910  1.4480 -0.0646  0.6972
 4254TIP3   OH234396   4.554   4.586   7.788  0.4838 -0.3186 -0.0178
 4254TIP3    H134397   4.518   4.570   7.875  0.5769 -2.2200 -0.2880
 4254TIP3    H234398   4.642   4.547   7.790  0.3840 -0.6420 -1.0378
 4255TIP3   OH234399   5.106   4.980   0.522 -0.6580  0.1316  0.2220
 4255TIP3    H134400   5.053   4.910   0.561  0.5986 -0.7012  0.4815
 4255TIP3    H234401   5.196   4.950   0.530 -0.2428  0.6694 -1.9006
 4256TIP3   OH234402   2.521   6.529   7.090  0.5516  0.2162 -0.0423
 4256TIP3    H134403   2.530   6.623   7.106  1.7718  0.3142 -1.1440
 4256TIP3    H234404   2.443   6.504   7.139  0.4845  1.7060  0.6686
 4257TIP3   OH234405   3.220   5.173   1.522  0.7248  1.0095  0.0848
 4257TIP3    H134406   3.305   5.209   1.547  1.1622 -0.4079  0.6984
 4257TIP3    H234407   3.200   5.215   1.439  2.6294  0.4210 -0.7143
 4258TIP3   OH234408   4.925   4.094   0.976  0.1545  0.0205  0.1966
 4258TIP3    H134409   4.991   4.028   0.954  1.9731  1.9677 -0.5473
 4258TIP3    H234410   4.929   4.101   1.071  1.4901  0.4905  0.1360
 4259TIP3   OH234411   5.685   3.060   7.080  0.5782 -0.2831 -0.5700
 4259TIP3    H134412   5.738   2.989   7.115  0.7197 -0.5437 -1.2970
 4259TIP3    H234413   5.742   3.103   7.015  0.5054  0.5107 -0.1251
 4260TIP3   OH234414   0.301   5.505   7.401 -0.0124 -0.2436  0.0636
 4260TIP3    H134415   0.333   5.595   7.411 -0.8322  0.1217 -0.4666
 4260TIP3    H234416   0.367   5.462   7.346  0.1270  0.1776 -0.1008
 4261TIP3   OH234417   0.755   5.063   6.742  0.0593  0.6230  0.6651
 4261TIP3    H134418   0.705   4.988   6.709  1.6146 -0.2184  0.0734
 4261TIP3    H234419   0.694   5.111   6.798 -1.6445  0.1490 -0.7001
 4262TIP3   OH234420   4.969   0.700   0.163 -0.0463  0.0191 -0.3535
 4262TIP3    H134421   5.006   0.787   0.154  0.2269 -0.1792 -1.2227
 4262TIP3    H234422   5.011   0.648   0.094  1.9315 -1.5380  1.8213
 4263TIP3   OH234423   6.157   4.730   7.931  0.5255 -0.2668 -0.2460
 4263TIP3    H134424   6.154   4.713   7.837 -0.9629  0.5800 -0.3858
 4263TIP3    H234425   6.177   4.824   7.937 -0.4159 -0.0801  0.2273
 4264TIP3   OH234426   6.921   4.187   6.776  0.0874 -0.5881 -0.5359
 4264TIP3    H134427   6.903   4.094   6.764 -0.7911 -1.0761  3.2576
 4264TIP3    H234428   6.834   4.227   6.781  0.4269  0.1422 -0.4172
 4265TIP3   OH234429   0.297   1.712   7.572 -0.2606 -0.0340  0.3705
 4265TIP3    H134430   0.364   1.779   7.587  0.8448 -1.2034  0.8205
 4265TIP3    H234431   0.219   1.747   7.614  0.1361  1.2259  0.1053
 4266TIP3   OH234432   7.074   0.121   1.006  0.2295  0.7218 -0.1195
 4266TIP3    H134433   6.980   0.138   1.018  0.0954  0.2582 -0.4481
 4266TIP3    H234434   7.085   0.118   0.911  0.4516  0.1360 -0.0778
 4267TIP3   OH234435   4.269   2.164   0.921  0.2962  0.0341  0.4261
 4267TIP3    H134436   4.349   2.191   0.965  0.3390  1.6077 -0.5538
 4267TIP3    H234437   4.295   2.150   0.830 -0.1545 -1.4317  0.4849
 4268TIP3   OH234438   6.791   4.233   1.454 -0.2020  0.1685  0.0959
 4268TIP3    H134439   6.838   4.316   1.448 -0.3187  0.2806  0.6681
 4268TIP3    H234440   6.817   4.185   1.376  0.2217  0.5633 -0.0087
 4269TIP3   OH234441   1.766   6.006   1.487  0.5502 -0.4645  0.8195
 4269TIP3    H134442   1.831   6.037   1.424  0.1494 -1.5355 -0.1459
 4269TIP3    H234443   1.785   5.912   1.498 -1.5649 -1.0974 -0.4318
 4270TIP3   OH234444   6.021   4.270   1.679 -0.3242 -0.2820  0.3929
 4270TIP3    H134445   6.026   4.292   1.773 -0.4189  0.3748  0.2505
 4270TIP3    H234446   5.983   4.348   1.639 -0.2511 -0.5516 -0.2001
 4271TIP3   OH234447   4.094   3.538   8.075 -0.0887 -0.3209  0.1955
 4271TIP3    H134448   4.156   3.505   8.140 -0.3600 -2.0804 -0.3928
 4271TIP3    H234449   4.148   3.577   8.007  0.2375  0.5847  0.9528
 4272TIP3   OH234450   5.644   2.605   1.716  0.1142 -0.9374 -0.1033
 4272TIP3    H134451   5.626   2.653   1.797  0.1189 -1.1608  0.0321
 4272TIP3    H234452   5.698   2.531   1.745  1.6978 -0.0118 -0.5532
 4273TIP3   OH234453   3.848   4.420   8.034 -0.7394 -0.1984 -0.5299
 4273TIP3    H134454   3.849   4.502   8.083  0.1959  1.2152 -2.7574
 4273TIP3    H234455   3.888   4.356   8.093 -1.8205  0.8117  1.3943
 4274TIP3   OH234456   6.910   6.951   7.426  0.1998  1.0345  0.3465
 4274TIP3    H134457   6.889   7.043   7.407  0.9025  0.7813 -1.9298
 4274TIP3    H234458   6.824   6.909   7.436 -0.5982  0.9192 -4.3144
 4275TIP3   OH234459   3.542   6.412   7.331  0.0288  0.4705 -0.0350
 4275TIP3    H134460   3.540   6.324   7.292 -0.3737  0.9106 -1.0348
 4275TIP3    H234461   3.450   6.435   7.343  0.1304 -0.1323  2.3423
 4276TIP3   OH234462   3.486   3.506   1.286  0.3428  0.3121 -0.0858
 4276TIP3    H134463   3.396   3.515   1.316  0.3327  2.3739 -0.6008
 4276TIP3    H234464   3.521   3.432   1.337 -1.6512 -0.6394 -0.0101
 4277TIP3   OH234465   4.109   5.312   7.886 -0.2869 -0.1086  0.4959
 4277TIP3    H134466   4.037   5.258   7.851  0.1982  0.0173 -0.7292
 4277TIP3    H234467   4.083   5.402   7.867  0.8812 -0.1223 -1.3694
 4278TIP3   OH234468   4.122   3.660   7.020  0.0428  0.1287  0.5119
 4278TIP3    H134469   4.081   3.643   7.105  0.6348 -0.9821  0.5890
 4278TIP3    H234470   4.061   3.622   6.956  0.2774 -0.3011  0.5393
 4279TIP3   OH234471   5.214   1.637   0.560  0.5182  0.2846 -0.3295
 4279TIP3    H134472   5.214   1.550   0.600 -0.9583  0.6134  0.4506
 4279TIP3    H234473   5.247   1.622   0.471 -0.7736 -1.2999 -0.5992
 4280TIP3   OH234474   5.574   4.449   7.994  0.2202  0.3944  0.0492
 4280TIP3    H134475   5.619   4.434   7.911  2.3088 -1.6528  1.4058
 4280TIP3    H234476   5.622   4.522   8.033  0.9798 -0.3239  0.5130
 4281TIP3   OH234477   6.575   1.627   0.291 -0.0703  0.0697 -0.8473
 4281TIP3    H134478   6.662   1.651   0.259  0.1200 -2.1682 -2.2408
 4281TIP3    H234479   6.591   1.553   0.350 -0.8874  0.9879  0.5810
 4282TIP3   OH234480   6.246   5.182   0.460 -0.0334 -0.4916 -0.1264
 4282TIP3    H134481   6.203   5.268   0.449 -1.0768 -0.9163  0.5035
 4282TIP3    H234482   6.176   5.119   0.443  0.3900 -1.2105  0.7618
 4283TIP3   OH234483   2.461   0.043   1.858 -0.5966 -0.3811 -0.4875
 4283TIP3    H134484   2.439   0.132   1.887  0.6947  0.2761 -1.4117
 4283TIP3    H234485   2.557   0.040   1.862 -0.2088 -0.1131 -4.7548
 4284TIP3   OH234486   5.095   0.569   7.521  0.4077  0.3870 -0.0504
 4284TIP3    H134487   5.143   0.646   7.493  0.8198  0.8407  1.7613
 4284TIP3    H234488   5.152   0.495   7.500  2.2135  0.9466  2.5064
 4285TIP3   OH234489   6.700   1.791   7.716  0.1666 -0.3984  0.0408
 4285TIP3    H134490   6.687   1.765   7.625  1.6555 -1.9374  0.2042
 4285TIP3    H234491   6.725   1.883   7.712  1.0102 -0.6509 -1.2042
 4286TIP3   OH234492   6.430   0.342   2.003 -0.3337  0.2635 -0.1010
 4286TIP3    H134493   6.443   0.283   2.078  0.6806  0.6892  0.0670
 4286TIP3    H234494   6.427   0.284   1.927  1.4315  0.0228 -0.0244
 4287TIP3   OH234495   0.636   4.800   1.760 -0.6742 -0.2281  0.1666
 4287TIP3    H134496   0.676   4.713   1.764  0.2835  0.2511  1.5079
 4287TIP3    H234497   0.585   4.807   1.841 -1.9829 -0.0858 -0.6284
 4288TIP3   OH234498   3.546   5.082   6.990  0.5791  0.3524  0.3214
 4288TIP3    H134499   3.533   5.028   6.911 -0.8748  0.3864  0.5088
 4288TIP3    H234500   3.563   5.018   7.059 -0.8590  0.1055  0.4870
 4289TIP3   OH234501   1.579   6.684   1.893  0.0848 -0.2993  0.4436
 4289TIP3    H134502   1.605   6.748   1.959  1.0314 -0.5014  0.2887
 4289TIP3    H234503   1.487   6.666   1.911  0.3614 -0.4540  1.7990
 4290TIP3   OH234504   5.002   5.210   6.734 -0.5562 -0.2468  0.0022
 4290TIP3    H134505   4.917   5.176   6.763 -2.0932  1.0487 -2.6029
 4290TIP3    H234506   5.008   5.296   6.775  0.2074 -0.8782  1.2808
 4291TIP3   OH234507   2.760   4.651   1.574  0.1378  0.1938 -0.1072
 4291TIP3    H134508   2.766   4.593   1.650  0.0374 -0.8766 -0.8996
 4291TIP3    H234509   2.781   4.738   1.609 -1.3589 -0.0235  1.4409
 4292TIP3   OH234510   1.823   0.769   0.358  0.1752  0.2989  0.8754
 4292TIP3    H134511   1.846   0.842   0.415  1.2294  1.1417 -0.5731
 4292TIP3    H234512   1.816   0.807   0.271  2.3493 -1.5686 -0.2111
 4293TIP3   OH234513   1.029   1.197   0.074  0.3569  0.0080  0.8356
 4293TIP3    H134514   0.956   1.141   0.050 -1.0279  2.0214  0.0250
 4293TIP3    H234515   0.988   1.271   0.119  2.0739  0.4487  1.7392
 4294TIP3   OH234516   6.813   1.814   0.416 -0.1056  0.2525 -0.8343
 4294TIP3    H134517   6.783   1.737   0.464  1.3727 -0.3544 -0.8474
 4294TIP3    H234518   6.876   1.856   0.475 -1.2962  1.7995 -0.5908
 4295TIP3   OH234519   3.078   2.604   0.286  0.5828  0.1810 -0.5490
 4295TIP3    H134520   3.025   2.681   0.266 -1.9945 -1.2333  0.2130
 4295TIP3    H234521   3.123   2.583   0.204 -1.5359  0.4510 -1.8545
 4296TIP3   OH234522   0.786   0.836   1.056  0.3147  0.1476  0.3109
 4296TIP3    H134523   0.806   0.929   1.063  2.2526  0.0678 -2.4628
 4296TIP3    H234524   0.816   0.812   0.969 -2.3345 -2.5995 -0.0009
 4297TIP3   OH234525   2.692   1.247   0.601 -0.2268 -0.1856 -0.3416
 4297TIP3    H134526   2.714   1.212   0.687  1.0518 -1.0944 -1.0115
 4297TIP3    H234527   2.724   1.182   0.539  0.2036  1.1255 -1.5590
 4298TIP3   OH234528   5.968   4.605   8.178  0.1745  0.1398 -0.1048
 4298TIP3    H134529   6.052   4.649   8.187 -0.7805  2.4917 -1.6603
 4298TIP3    H234530   5.903   4.674   8.194 -1.4315 -0.8273 -2.0580
 4299TIP3   OH234531   5.196   3.042   1.441 -0.0314  0.4980 -0.2506
 4299TIP3    H134532   5.220   3.129   1.475 -0.0254  0.6137 -0.5496
 4299TIP3    H234533   5.208   2.983   1.516  0.2733  0.7055 -0.1334
 4300TIP3   OH234534   7.033   6.710   7.940 -0.0551 -0.0621  0.2951
 4300TIP3    H134535   6.977   6.746   7.870 -0.1328 -0.8625 -0.0675
 4300TIP3    H234536   7.008   6.760   8.018  1.3722  2.1866 -0.5937
 4301TIP3   OH234537   3.651   6.112   8.058  0.0697  0.5974 -0.3275
 4301TIP3    H134538   3.583   6.053   8.090  0.3496  0.0436 -0.7417
 4301TIP3    H234539   3.723   6.054   8.034  0.0054  1.0265 -1.6070
 4302TIP3   OH234540   0.026   0.957   0.398 -0.2027  0.1085  0.3126
 4302TIP3    H134541  -0.054   0.922   0.357 -0.6755  2.1951 -0.7331
 4302TIP3    H234542  -0.006   1.008   0.472  0.3539 -0.6508  1.0880
 4303TIP3   OH234543   0.872   2.877   6.222 -1.0115 -0.2016 -0.2597
 4303TIP3    H134544   0.952   2.917   6.190 -1.4017  0.7283 -0.1077
 4303TIP3    H234545   0.900   2.822   6.295 -0.4171 -0.5199 -0.7184
 4304TIP3   OH234546   1.178   5.450   0.028 -0.4361 -0.1395 -0.2977
 4304TIP3    H134547   1.137   5.420  -0.053 -0.7933 -0.6089  0.0503
 4304TIP3    H234548   1.272   5.446   0.011 -0.4986 -0.8320 -0.4754
 4305TIP3   OH234549   3.963   4.816   2.084 -0.0221  0.2886 -0.1419
 4305TIP3    H134550   4.020   4.890   2.102 -0.6925  1.2072 -1.6194
 4305TIP3    H234551   3.905   4.811   2.160 -1.0895  2.3960 -0.7374
 4306TIP3   OH234552   6.823   0.865   8.269  0.4488  0.2710  0.2656
 4306TIP3    H134553   6.755   0.895   8.328  0.6054  0.3091  0.4289
 4306TIP3    H234554   6.800   0.902   8.184 -0.5904 -0.9839 -0.0269
 4307TIP3   OH234555   5.259   2.269   0.554  0.1937 -0.5161 -0.3989
 4307TIP3    H134556   5.294   2.251   0.467 -1.3172  0.7190 -1.3307
 4307TIP3    H234557   5.166   2.245   0.547  0.1585 -0.8450  1.0313
 4308TIP3   OH234558   0.999   4.558   0.214 -0.5997 -0.3013 -0.2633
 4308TIP3    H134559   0.905   4.562   0.232 -0.6632  0.6955 -0.7503
 4308TIP3    H234560   1.040   4.560   0.300 -1.0346 -1.8187  0.0081
 4309TIP3   OH234561   3.543   1.265   0.776 -0.1347  0.3064 -0.7354
 4309TIP3    H134562   3.563   1.299   0.689  1.3584  2.8962  0.5108
 4309TIP3    H234563   3.592   1.183   0.781 -1.7560 -0.9078 -2.9269
 4310TIP3   OH234564   2.974   6.566   7.179  0.0853 -0.0626  0.3147
 4310TIP3    H134565   3.050   6.560   7.121 -0.4724  0.7170 -0.5186
 4310TIP3    H234566   3.002   6.521   7.259  1.5301  0.4949  0.1548
 4311TIP3   OH234567   1.720   4.265   6.826  0.5418 -0.2054  0.4628
 4311TIP3    H134568   1.703   4.276   6.732 -0.6090 -0.1710  0.6567
 4311TIP3    H234569   1.794   4.204   6.830  2.2060  1.6377 -0.4992
 4312TIP3   OH234570   4.603   0.682   1.637 -0.0944  0.1545 -0.1086
 4312TIP3    H134571   4.623   0.590   1.623  4.0371  0.9765 -0.9521
 4312TIP3    H234572   4.602   0.693   1.732  0.3016 -0.6013 -0.0105
 4313TIP3   OH234573   0.391   6.809   2.039 -0.7896  0.0827  0.2660
 4313TIP3    H134574   0.445   6.885   2.061  1.8464 -1.4136 -0.6113
 4313TIP3    H234575   0.418   6.742   2.102 -0.3749 -1.2061 -1.2208
 4314TIP3   OH234576   3.808   2.889   7.289  0.1825 -0.7538  0.1257
 4314TIP3    H134577   3.788   2.796   7.297 -0.3713 -0.5765  1.0730
 4314TIP3    H234578   3.753   2.930   7.356  1.5914  0.0794  0.8131
 4315TIP3   OH234579   4.465   1.631   7.266  0.1408  0.1868 -0.8094
 4315TIP3    H134580   4.533   1.564   7.261 -0.5776 -0.4809 -2.0288
 4315TIP3    H234581   4.496   1.701   7.209 -0.1278 -0.0659 -1.2705
 4316TIP3   OH234582   5.701   5.144   6.208  0.0697 -0.5349  0.1783
 4316TIP3    H134583   5.618   5.166   6.167 -0.9500 -1.4163  1.6851
 4316TIP3    H234584   5.761   5.213   6.180 -1.3882  0.6170 -0.2126
 4317TIP3   OH234585   4.814   6.680   7.243 -0.5474  0.0805  0.8768
 4317TIP3    H134586   4.767   6.741   7.186 -0.4251 -0.0525  0.6308
 4317TIP3    H234587   4.844   6.611   7.184  2.0181  1.3393  0.5863
 4318TIP3   OH234588   4.585   6.653   7.881  0.1199 -0.3790 -0.4813
 4318TIP3    H134589   4.594   6.653   7.977 -1.7301 -1.6447 -0.2526
 4318TIP3    H234590   4.669   6.620   7.849  0.1371 -1.6783  0.8155
 4319TIP3   OH234591   7.055   4.173   8.145  0.8004 -0.2361 -0.0325
 4319TIP3    H134592   7.058   4.108   8.214  1.9082  0.8354  0.9926
 4319TIP3    H234593   7.056   4.123   8.064 -3.2345 -1.6521  0.5864
 4320TIP3   OH234594   3.531   6.465   0.544  0.3170  0.0530  0.0834
 4320TIP3    H134595   3.512   6.399   0.477  1.6054 -0.9325  0.6440
 4320TIP3    H234596   3.461   6.530   0.535 -0.0693 -0.5532 -1.5709
 4321TIP3   OH234597   4.765   2.428   6.305 -0.5925 -0.9603  0.1695
 4321TIP3    H134598   4.709   2.437   6.227  0.5869  1.5920 -0.5091
 4321TIP3    H234599   4.799   2.339   6.300 -0.2427 -0.7796 -2.5337
 4322TIP3   OH234600   0.512   2.353   5.896 -0.1474  0.2266  0.4206
 4322TIP3    H134601   0.534   2.446   5.891  0.1788  0.0768 -3.4997
 4322TIP3    H234602   0.596   2.310   5.911  0.0343  0.4466  0.0504
 4323TIP3   OH234603   3.772   3.063   7.041  0.5333  0.3157  0.1653
 4323TIP3    H134604   3.774   3.029   7.130 -0.5994  1.5509  0.6962
 4323TIP3    H234605   3.686   3.106   7.034  0.2691 -0.4394 -1.7777
 4324TIP3   OH234606   1.100   4.240   6.298 -0.2556 -0.2638  0.3145
 4324TIP3    H134607   1.021   4.196   6.330  0.0513 -0.6086  0.6146
 4324TIP3    H234608   1.084   4.254   6.205  0.4730 -2.9325 -0.2911
 4325TIP3   OH234609   2.148   3.308   7.109 -0.2573 -0.1339  0.6391
 4325TIP3    H134610   2.217   3.346   7.163  0.0903 -0.3528  0.3524
 4325TIP3    H234611   2.082   3.279   7.171  0.8633 -1.8576  1.0820
 4326TIP3   OH234612   1.757   2.858   6.612  0.1803 -0.4117 -0.5191
 4326TIP3    H134613   1.667   2.834   6.633 -0.6283  1.1779 -1.8926
 4326TIP3    H234614   1.775   2.936   6.665  0.4919 -0.2994 -0.7848
 4327TIP3   OH234615   1.469   0.255   7.975 -0.0528 -0.5503  0.0023
 4327TIP3    H134616   1.451   0.198   7.901 -0.8749  0.1751 -0.3771
 4327TIP3    H234617   1.462   0.198   8.052 -1.9680 -0.7738 -0.2837
 4328TIP3   OH234618   4.967   1.490   6.828  0.5425 -0.1982 -0.4382
 4328TIP3    H134619   4.952   1.402   6.862  1.2243 -0.0236  0.3677
 4328TIP3    H234620   5.058   1.489   6.798  1.0433  0.6127  0.9225
 4329TIP3   OH234621   3.959   1.327   1.216 -0.2667  0.3861  0.0134
 4329TIP3    H134622   3.913   1.272   1.153  1.5958  0.6760 -1.6885
 4329TIP3    H234623   4.035   1.274   1.242  1.0781  1.7690 -0.9791
 4330TIP3   OH234624   6.398   1.737   2.021 -0.6152 -0.4385 -0.2549
 4330TIP3    H134625   6.408   1.783   2.104 -1.4380 -0.4972 -0.1172
 4330TIP3    H234626   6.333   1.669   2.039 -1.3125 -0.0210 -1.1179
 4331TIP3   OH234627   3.960   0.756   0.560 -0.2422 -0.3104 -0.1226
 4331TIP3    H134628   4.050   0.727   0.572 -0.1464  0.4513  1.2911
 4331TIP3    H234629   3.965   0.821   0.490  0.4387  0.2577  0.4410
 4332TIP3   OH234630   3.638   2.895   0.811 -0.8735  0.3643  0.4427
 4332TIP3    H134631   3.689   2.827   0.767  0.4472  1.8533 -0.4421
 4332TIP3    H234632   3.549   2.861   0.812 -0.0616 -1.9350  1.2306
 4333TIP3   OH234633   2.272   0.518   0.114  0.2851 -0.1286 -0.1213
 4333TIP3    H134634   2.230   0.552   0.035  0.5119  0.4879  0.0190
 4333TIP3    H234635   2.249   0.580   0.183  0.8366 -0.1693  0.1061
 4334TIP3   OH234636   2.505   1.304   6.807  0.5181 -0.1242  0.3234
 4334TIP3    H134637   2.455   1.256   6.873  0.3253 -1.0389 -0.4799
 4334TIP3    H234638   2.594   1.306   6.841  0.5060 -0.9582  0.4162
 4335TIP3   OH234639   3.567   0.312   7.253  0.5608 -0.0957 -0.6786
 4335TIP3    H134640   3.608   0.387   7.296  0.9262 -0.6405 -0.0462
 4335TIP3    H234641   3.526   0.348   7.175 -1.6993  1.2623  1.0180
 4336TIP3   OH234642   5.664   0.062   7.745  0.1715  0.3426 -0.7525
 4336TIP3    H134643   5.577   0.023   7.755  0.5575 -0.1345  1.1379
 4336TIP3    H234644   5.722   0.002   7.790  0.8609  2.7872  1.9384
 4337TIP3   OH234645   5.868   3.652   0.484 -0.5524  0.6610  0.3504
 4337TIP3    H134646   5.963   3.645   0.490 -0.4127  2.0927  0.2202
 4337TIP3    H234647   5.835   3.589   0.549  0.3365 -2.6914 -2.1607
 4338TIP3   OH234648   3.664   0.745   6.510 -0.1836  0.1907 -0.4158
 4338TIP3    H134649   3.685   0.704   6.426  0.8707 -0.6086  0.2107
 4338TIP3    H234650   3.587   0.697   6.540 -0.3480  0.2339 -0.7561
 4339TIP3   OH234651   6.002   4.470   7.545 -0.3561 -0.1485 -0.8544
 4339TIP3    H134652   6.053   4.491   7.624 -1.4232 -2.5352  0.5933
 4339TIP3    H234653   6.048   4.396   7.505 -2.4181 -2.2503  0.4011
 4340TIP3   OH234654   1.675   6.187   6.958 -0.3853  0.0196  0.4591
 4340TIP3    H134655   1.681   6.245   6.882 -1.4798  0.2208  0.5126
 4340TIP3    H234656   1.631   6.239   7.025  1.2979  0.1229  1.5295
 4341TIP3   OH234657   3.513   3.019   6.860 -0.1902 -0.0419 -0.1377
 4341TIP3    H134658   3.471   2.997   6.777 -1.4266  2.4244 -0.2650
 4341TIP3    H234659   3.607   3.012   6.842 -0.3083 -4.3343 -0.2411
 4342TIP3   OH234660   5.556   5.988   1.044 -0.0500 -0.5509  0.6391
 4342TIP3    H134661   5.596   5.906   1.016  0.3503 -0.9083  2.1959
 4342TIP3    H234662   5.532   6.032   0.962  2.5387 -0.7904 -0.3178
 4343TIP3   OH234663   0.542   1.175   6.810  0.2479 -0.4799  0.4576
 4343TIP3    H134664   0.505   1.185   6.722 -0.9756 -1.5628  0.7974
 4343TIP3    H234665   0.465   1.177   6.868  1.0635  0.5567  1.5494
 4344TIP3   OH234666   4.892   3.339   7.906 -0.5508 -0.0635  0.2784
 4344TIP3    H134667   4.877   3.391   7.827  2.3853  1.5904  0.6576
 4344TIP3    H234668   4.980   3.302   7.893 -1.7140 -3.3916  0.9292
 4345TIP3   OH234669   5.686   3.166   0.603 -0.0411  0.1658 -0.1465
 4345TIP3    H134670   5.693   3.087   0.550 -0.6054  0.5464 -0.7950
 4345TIP3    H234671   5.694   3.135   0.693  0.4186 -0.5454 -0.4220
 4346TIP3   OH234672   5.525   5.339   7.706 -0.3722  0.4562 -0.6430
 4346TIP3    H134673   5.478   5.418   7.679 -0.3650  0.9810  0.7870
 4346TIP3    H234674   5.590   5.326   7.638 -1.0791  1.0513 -1.4616
 4347TIP3   OH234675   2.657   4.332   7.295 -0.2965  0.2693  0.0104
 4347TIP3    H134676   2.751   4.347   7.292 -0.4471  1.6098 -4.1438
 4347TIP3    H234677   2.619   4.417   7.272 -2.4757 -0.5519  0.3695
 4348TIP3   OH234678   4.369   2.677   1.705 -0.1843 -0.2777  0.1354
 4348TIP3    H134679   4.355   2.728   1.625  0.3014 -1.9109 -1.0401
 4348TIP3    H234680   4.445   2.623   1.686 -0.3613 -1.0777  1.5377
 4349TIP3   OH234681   3.229   0.677   2.125  0.1595  0.3996 -0.5469
 4349TIP3    H134682   3.241   0.664   2.219  1.2095  1.6047 -0.4827
 4349TIP3    H234683   3.134   0.686   2.114 -0.0388 -0.5205  0.2708
 4350TIP3   OH234684   2.831   4.869   6.550  0.0702 -0.2954 -0.9737
 4350TIP3    H134685   2.882   4.948   6.530 -1.4223  0.9581 -0.0370
 4350TIP3    H234686   2.751   4.879   6.500 -0.2017 -1.1412 -0.7166
 4351TIP3   OH234687   1.998   1.136   1.597  0.6491 -0.6641  0.4048
 4351TIP3    H134688   1.931   1.112   1.532  0.2358 -0.4154  0.7290
 4351TIP3    H234689   2.079   1.098   1.563  0.6926  0.5068 -0.9116
 4352TIP3   OH234690   6.294   4.200   1.848 -0.3564 -0.1518 -0.1319
 4352TIP3    H134691   6.231   4.254   1.896 -1.4327  1.0280 -2.6593
 4352TIP3    H234692   6.267   4.110   1.866 -1.2155  0.2672  0.7816
 4353TIP3   OH234693   2.698   3.988   6.167 -0.1692  0.0871 -0.1323
 4353TIP3    H134694   2.654   4.002   6.084  2.2456  0.7451 -1.4061
 4353TIP3    H234695   2.675   3.898   6.192 -2.7078  0.6248 -0.2931
 4354TIP3   OH234696   5.302   2.190   0.824  0.0295 -0.1049 -0.2472
 4354TIP3    H134697   5.210   2.188   0.849  0.0205  3.2556  0.5216
 4354TIP3    H234698   5.301   2.204   0.729 -0.1732 -1.6133 -0.4880
 4355TIP3   OH234699   3.153   1.514   7.403 -0.7746  0.2080 -0.0753
 4355TIP3    H134700   3.225   1.528   7.465  2.3119 -1.3601 -2.9500
 4355TIP3    H234701   3.128   1.423   7.415 -1.9152  0.5695  0.4616
 4356TIP3   OH234702   1.265   1.154   0.778 -0.2479 -0.7998  0.4456
 4356TIP3    H134703   1.309   1.123   0.857  0.5318 -1.2109 -0.1359
 4356TIP3    H234704   1.253   1.075   0.725 -0.8277 -0.5377  0.1788
 4357TIP3   OH234705   5.189   3.314   6.395  0.9580 -0.4006 -0.2983
 4357TIP3    H134706   5.130   3.384   6.367  0.9560 -0.6677 -0.9721
 4357TIP3    H234707   5.158   3.291   6.482 -1.5099 -2.1988 -1.5499
 4358TIP3   OH234708   7.070   5.250   6.855  0.1444 -0.2719 -0.4792
 4358TIP3    H134709   7.016   5.251   6.934  2.1248  1.1066  0.9396
 4358TIP3    H234710   7.146   5.197   6.878  1.3846  1.2270 -0.9762
 4359TIP3   OH234711   6.953   1.403   6.487 -0.5885 -0.0092  0.2478
 4359TIP3    H134712   6.940   1.328   6.546  1.0961 -0.2993  0.3204
 4359TIP3    H234713   6.986   1.472   6.543 -0.2755  0.1529 -0.1316
 4360TIP3   OH234714   3.124   0.527   6.891  0.0239 -0.5103 -0.4870
 4360TIP3    H134715   3.152   0.527   6.983 -0.8800 -1.0855 -0.1921
 4360TIP3    H234716   3.160   0.608   6.855 -0.6168  0.3333  0.6907
 4361TIP3   OH234717   4.200   3.094   6.521 -0.2487  0.1724 -0.0604
 4361TIP3    H134718   4.191   3.132   6.434 -1.2706  0.5133  0.1840
 4361TIP3    H234719   4.117   3.114   6.565  0.0215 -0.5072  0.7880
 4362TIP3   OH234720   3.201   2.386   6.849  0.1502  0.4590  0.3482
 4362TIP3    H134721   3.216   2.316   6.913 -0.3635  1.0317  1.1069
 4362TIP3    H234722   3.288   2.407   6.815  0.2750 -0.8022 -0.1738
 4363TIP3   OH234723   3.805   4.332   6.510  0.5139 -0.2927 -0.2598
 4363TIP3    H134724   3.834   4.295   6.594 -1.1629  1.3018  1.1242
 4363TIP3    H234725   3.714   4.303   6.502 -0.0502  1.4369 -0.3646
 4364TIP3   OH234726   1.848   4.998   1.356 -0.0073 -0.0684  0.0092
 4364TIP3    H134727   1.888   5.083   1.377  1.1861 -1.1002  2.2993
 4364TIP3    H234728   1.865   4.944   1.434 -0.3558 -2.5504 -1.5419
 4365TIP3   OH234729   4.222   0.304   6.212  0.1966  0.3646 -0.3260
 4365TIP3    H134730   4.238   0.218   6.173 -0.8000 -1.2394  2.4833
 4365TIP3    H234731   4.304   0.352   6.199  1.1634 -1.3881 -1.0665
 4366TIP3   OH234732   3.691   2.777   6.970  0.5072 -0.8071 -0.5066
 4366TIP3    H134733   3.673   2.812   6.882  0.6110  0.3900 -0.0763
 4366TIP3    H234734   3.753   2.839   7.008 -1.1663 -0.0720  1.2041
 4367TIP3   OH234735   3.993   5.305   1.061  0.7247  0.8137  0.0683
 4367TIP3    H134736   3.906   5.265   1.065  0.8186  0.5851 -0.1209
 4367TIP3    H234737   4.010   5.315   0.967  1.1295  0.3523  0.0866
 4368TIP3   OH234738   2.896   2.008   1.708 -0.1666 -0.7293  0.1828
 4368TIP3    H134739   2.987   2.011   1.738  0.4394 -0.3002 -1.5717
 4368TIP3    H234740   2.854   2.083   1.749  1.1180  0.9606 -1.4025
 4369TIP3   OH234741   5.053   3.323   0.999 -0.3177 -0.0466 -0.0387
 4369TIP3    H134742   5.022   3.244   1.045 -0.1552  0.4323  0.9314
 4369TIP3    H234743   5.100   3.290   0.923 -1.7397 -0.8460 -0.6155
 4370TIP3   OH234744   2.446   1.039   6.928 -0.0862 -0.1758 -0.1772
 4370TIP3    H134745   2.490   1.034   7.013  2.2468 -1.9336 -1.3680
 4370TIP3    H234746   2.516   1.026   6.864 -2.1559 -1.9910 -2.2775
 4371TIP3   OH234747   5.558   0.831   0.516  0.2910  0.0072  0.1531
 4371TIP3    H134748   5.548   0.851   0.423 -0.2855  0.3781  0.2871
 4371TIP3    H234749   5.652   0.822   0.529  0.2838 -2.2868 -0.9208
 4372TIP3   OH234750   3.435   4.987   6.333  0.1111  0.1849 -0.0717
 4372TIP3    H134751   3.484   5.068   6.347  1.2976 -0.6379  0.7061
 4372TIP3    H234752   3.500   4.925   6.300 -0.8922 -0.3208 -1.1728
 4373TIP3   OH234753   3.235   6.372   6.398  0.1896  0.2223 -0.4850
 4373TIP3    H134754   3.179   6.373   6.476  2.1806 -2.4449  1.1276
 4373TIP3    H234755   3.174   6.366   6.324 -1.7575 -2.6143  1.1734
 4374TIP3   OH234756   6.559   7.047   1.858 -0.1443 -0.4495  0.4005
 4374TIP3    H134757   6.494   7.013   1.920  0.2919 -0.8620  0.6458
 4374TIP3    H234758   6.634   7.071   1.912 -0.2974  0.5692  0.1839
 4375TIP3   OH234759   6.813   0.451   7.141 -0.3923  0.0087 -0.1296
 4375TIP3    H134760   6.777   0.446   7.230 -0.4453 -0.6225 -0.1811
 4375TIP3    H234761   6.782   0.371   7.099 -2.5593  1.4922 -1.5463
 4376TIP3   OH234762   4.662   6.127   1.967  0.2349 -0.3073  0.7561
 4376TIP3    H134763   4.756   6.125   1.985  0.6138 -0.5955 -1.0355
 4376TIP3    H234764   4.634   6.036   1.979  0.2850 -0.3158  0.8122
 4377TIP3   OH234765   1.719   5.045   0.321 -0.5839 -0.2318 -0.7592
 4377TIP3    H134766   1.697   4.999   0.240 -0.8686 -0.3341 -0.6261
 4377TIP3    H234767   1.795   5.099   0.299 -1.2516  0.4789 -1.3593
 4378TIP3   OH234768   5.408   5.118   0.494  0.1476  0.5956 -0.0056
 4378TIP3    H134769   5.413   5.174   0.572  0.0406  0.7431 -0.1063
 4378TIP3    H234770   5.398   5.029   0.530  2.6564  0.3299  0.2357
 4379TIP3   OH234771   5.492   3.395   7.975 -0.5472 -0.1981 -0.3566
 4379TIP3    H134772   5.561   3.349   7.927 -0.3908  1.6668 -2.0428
 4379TIP3    H234773   5.495   3.484   7.941 -2.5734  0.3977  0.8872
 4380TIP3   OH234774   6.243   2.976   6.596 -0.1845 -0.2732  0.1328
 4380TIP3    H134775   6.264   3.004   6.685 -0.2329  1.9920 -0.5032
 4380TIP3    H234776   6.322   2.994   6.546 -0.9088  0.6806 -0.7082
 4381TIP3   OH234777   6.916   6.684   1.613 -0.2545  0.5444  0.1513
 4381TIP3    H134778   6.934   6.770   1.650 -0.9134  1.2832 -1.1786
 4381TIP3    H234779   6.975   6.677   1.538 -0.4649 -0.0182  0.0335
 4382TIP3   OH234780   1.337   6.633   7.784 -0.2043  0.0773  0.1145
 4382TIP3    H134781   1.272   6.688   7.829 -0.4104  0.3377 -0.4821
 4382TIP3    H234782   1.384   6.589   7.854  0.3116  1.4082  0.6341
 4383TIP3   OH234783   2.669   6.123   0.386 -0.1322  0.1239 -0.4322
 4383TIP3    H134784   2.637   6.046   0.338  0.4401  0.0420 -0.6974
 4383TIP3    H234785   2.744   6.090   0.435  2.3328  1.1746 -3.1907
 4384TIP3   OH234786   0.998   4.486   7.268  0.1690  0.2188 -0.0187
 4384TIP3    H134787   1.031   4.534   7.192  0.2314  1.1995  0.6133
 4384TIP3    H234788   1.060   4.415   7.280  0.7583  0.6850 -0.2501
 4385TIP3   OH234789   3.890   4.979   7.515  1.0807  0.1380 -0.1399
 4385TIP3    H134790   3.936   4.973   7.432 -0.7719 -3.9842 -1.0843
 4385TIP3    H234791   3.812   5.031   7.496  1.5839  0.7899 -0.4485
 4386TIP3   OH234792   2.286   6.215   1.423 -0.0292 -0.5446 -0.0599
 4386TIP3    H134793   2.361   6.249   1.472  0.5300 -1.1445 -0.4900
 4386TIP3    H234794   2.210   6.242   1.475  0.3853  1.2719 -0.3225
 4387TIP3   OH234795   0.801   5.299   5.889 -0.8374 -0.1199 -0.6522
 4387TIP3    H134796   0.712   5.299   5.855 -1.0701 -0.6971 -0.0807
 4387TIP3    H234797   0.816   5.209   5.917 -0.3626  0.1479 -0.0103
 4388TIP3   OH234798   1.662   0.664   6.533  0.0208  0.5738 -0.5154
 4388TIP3    H134799   1.750   0.637   6.508  0.3782  0.1788  1.0686
 4388TIP3    H234800   1.614   0.582   6.546 -0.6469  0.7878 -1.5651
 4389TIP3   OH234801   4.304   4.965   6.827 -0.2157  0.1483  0.0400
 4389TIP3    H134802   4.362   5.040   6.824 -1.7141  1.3490 -2.3410
 4389TIP3    H234803   4.247   4.981   6.902  0.8854  0.2154  0.8849
 4390TIP3   OH234804   6.305   5.638   7.826 -0.7380 -0.6309  0.4844
 4390TIP3    H134805   6.252   5.694   7.882  0.8418  0.8047  0.6258
 4390TIP3    H234806   6.248   5.564   7.805 -2.3658  0.2598  1.5556
 4391TIP3   OH234807   0.190   5.654   8.089 -0.1821  0.4182  0.3408
 4391TIP3    H134808   0.225   5.726   8.037 -1.0629  1.8540  1.6888
 4391TIP3    H234809   0.256   5.639   8.157  0.2830 -0.4856 -0.2858
 4392TIP3   OH234810   3.181   1.332   6.158 -0.2677 -0.4320  0.3470
 4392TIP3    H134811   3.146   1.369   6.077  1.1605  1.0086  0.3315
 4392TIP3    H234812   3.213   1.408   6.206  0.6120 -1.4563  1.4151
 4393TIP3   OH234813   5.460   5.849   7.892  0.3213 -0.9012  0.6685
 4393TIP3    H134814   5.512   5.901   7.952  0.8335 -0.0807 -0.4592
 4393TIP3    H234815   5.391   5.811   7.946  1.8863 -1.7821  2.1471
 4394TIP3   OH234816   3.543   6.806   7.800 -0.3233 -0.1607 -0.9117
 4394TIP3    H134817   3.563   6.713   7.800 -1.3223 -0.3985  0.0107
 4394TIP3    H234818   3.624   6.848   7.773  0.5710 -1.2195  0.0350
 4395TIP3   OH234819   3.805   5.262   6.686 -0.0972 -0.5289 -0.4084
 4395TIP3    H134820   3.841   5.323   6.622  1.8107 -1.0143  0.1396
 4395TIP3    H234821   3.871   5.258   6.756 -2.2698  0.3281  1.8598
 4396TIP3   OH234822   4.432   5.351   6.626 -0.0607 -0.1756  0.2174
 4396TIP3    H134823   4.395   5.307   6.548 -1.6317 -0.1679  0.9089
 4396TIP3    H234824   4.503   5.404   6.592 -2.3697  1.9311 -1.7069
 4397TIP3   OH234825   1.797   2.532   0.689 -0.0213  0.7157  0.2890
 4397TIP3    H134826   1.874   2.588   0.676  0.9422 -0.6113  0.0518
 4397TIP3    H234827   1.803   2.504   0.780  0.5342 -0.4257 -0.0776
 4398TIP3   OH234828   0.251   4.720   1.584  0.6318  0.2943 -0.0699
 4398TIP3    H134829   0.249   4.702   1.678  0.2068 -0.0695 -0.1481
 4398TIP3    H234830   0.342   4.746   1.567  0.7694  0.1280  0.3945
 4399TIP3   OH234831   1.703   0.934   1.579 -0.1636 -0.6450  0.3601
 4399TIP3    H134832   1.745   0.995   1.519 -2.2333  0.0995 -0.4164
 4399TIP3    H234833   1.675   0.988   1.653  0.2970 -1.1464  0.9161
 4400TIP3   OH234834   1.876   1.296   6.435  0.5013 -0.0037 -0.2640
 4400TIP3    H134835   1.969   1.310   6.423  0.4213 -0.3505 -1.3842
 4400TIP3    H234836   1.836   1.381   6.418  0.5282 -0.1126 -0.9013
 4401TIP3   OH234837   6.754   4.619   0.192 -0.0686 -0.3963 -0.0624
 4401TIP3    H134838   6.755   4.588   0.102 -0.2014 -1.7829  0.3878
 4401TIP3    H234839   6.662   4.625   0.215 -0.1060 -3.1954  0.9531
 4402TIP3   OH234840   6.973   1.211   1.702  0.6253 -0.5646 -0.1846
 4402TIP3    H134841   6.903   1.174   1.648  0.1557  0.2513 -0.1418
 4402TIP3    H234842   6.950   1.187   1.792  1.2264 -1.6230 -0.2907
 4403TIP3   OH234843   0.443   4.296   6.269 -1.0485  0.1305 -0.4295
 4403TIP3    H134844   0.459   4.202   6.274  0.2406  0.3034 -0.9191
 4403TIP3    H234845   0.414   4.312   6.179  0.1195  0.3787 -0.7750
 4404TIP3   OH234846   2.786   6.938   6.263 -0.2497 -0.0715  0.0100
 4404TIP3    H134847   2.858   6.987   6.304  0.8097  1.5776 -3.4029
 4404TIP3    H234848   2.807   6.846   6.280  2.4698  0.3730 -0.4387
 4405TIP3   OH234849   3.435   2.395   1.630 -0.0786 -0.3048  0.5302
 4405TIP3    H134850   3.455   2.318   1.576  2.3084  0.3593  0.3271
 4405TIP3    H234851   3.442   2.469   1.568  1.1254  0.3318  1.3873
 4406TIP3   OH234852   0.333   2.649   1.194  0.0558  0.0998  0.1198
 4406TIP3    H134853   0.244   2.614   1.195  0.6735 -1.5996 -0.6184
 4406TIP3    H234854   0.379   2.596   1.130  1.5882  1.0241  0.3960
 4407TIP3   OH234855   6.121   6.406   7.238 -0.0374  0.3271 -0.8541
 4407TIP3    H134856   6.070   6.487   7.233 -0.3620  0.1612 -0.3313
 4407TIP3    H234857   6.208   6.435   7.265 -0.3919  0.4277  0.2508
 4408TIP3   OH234858   3.816   6.266   6.781 -0.6529 -0.2078  0.1671
 4408TIP3    H134859   3.806   6.223   6.696  0.5410 -2.6928  1.1566
 4408TIP3    H234860   3.819   6.359   6.762 -0.9632 -0.6706 -2.4365
 4409TIP3   OH234861   4.425   6.606   1.065  0.1795  0.3555  0.1305
 4409TIP3    H134862   4.359   6.616   1.134 -0.5875 -3.1588  0.0917
 4409TIP3    H234863   4.375   6.610   0.983  0.8751  2.9823 -0.2512
 4410TIP3   OH234864   5.309   4.936   6.407  0.6269  0.4677  0.1691
 4410TIP3    H134865   5.309   4.845   6.379  4.6202 -1.0021  3.7324
 4410TIP3    H234866   5.238   4.941   6.471 -2.0862  1.1278 -2.6817
 4411TIP3   OH234867   5.995   3.313   7.913 -0.2250 -0.6841 -0.4414
 4411TIP3    H134868   5.957   3.247   7.855 -1.9612 -0.2124  0.1239
 4411TIP3    H234869   5.927   3.378   7.924  0.7854  0.2401  0.5574
 4412TIP3   OH234870   4.575   1.620   7.779 -0.3045 -0.1818 -0.6361
 4412TIP3    H134871   4.622   1.699   7.805 -0.0507 -0.6894  0.5148
 4412TIP3    H234872   4.568   1.626   7.683  1.1243  0.4340 -0.7206
 4413TIP3   OH234873   0.996   3.828   6.758 -0.3866  0.4619 -0.1389
 4413TIP3    H134874   0.954   3.747   6.728  0.7482 -0.2171  0.0480
 4413TIP3    H234875   1.020   3.873   6.677 -0.0284  0.0700 -0.2582
 4414TIP3   OH234876   2.143   5.984   6.376 -0.2252 -0.4061  0.4518
 4414TIP3    H134877   2.231   5.979   6.412 -0.1975  2.1109  0.9050
 4414TIP3    H234878   2.151   6.040   6.299 -1.7187  1.8438  1.8057
 4415TIP3   OH234879   1.283   7.073   6.565 -0.3196  0.6714  0.1839
 4415TIP3    H134880   1.364   7.022   6.572  0.2429  1.7395  3.7184
 4415TIP3    H234881   1.261   7.072   6.472  2.9016 -0.9355 -0.6927
 4416TIP3   OH234882   3.425   4.350   8.000  0.2422  0.1272 -0.1873
 4416TIP3    H134883   3.502   4.354   7.943  0.1839 -1.1868 -0.4065
 4416TIP3    H234884   3.457   4.312   8.082 -0.1295 -0.2339 -0.2049
 4417TIP3   OH234885   0.886   3.948   6.224  0.6253 -0.1162 -0.3272
 4417TIP3    H134886   0.890   4.008   6.299 -0.1741 -0.6207  0.1386
 4417TIP3    H234887   0.801   3.968   6.183  1.0126  0.0831 -1.0376
 4418TIP3   OH234888   4.525   2.322   6.166 -0.0454  0.1709 -0.0079
 4418TIP3    H134889   4.531   2.346   6.073 -0.8014  0.0367 -0.0928
 4418TIP3    H234890   4.537   2.227   6.167  0.1022  0.1896  0.0499
 4419TIP3   OH234891   2.941   4.376   7.321 -0.1805  0.3220 -0.2309
 4419TIP3    H134892   3.021   4.429   7.322  1.1305 -1.5799  0.4209
 4419TIP3    H234893   2.967   4.292   7.357 -2.1577 -0.8537 -1.3634
 4420TIP3   OH234894   4.108   3.381   1.250 -0.1555 -0.1138 -0.2260
 4420TIP3    H134895   4.013   3.374   1.241 -0.2158  0.6939 -0.2767
 4420TIP3    H234896   4.125   3.362   1.342 -0.6417  2.1794  0.4068
 4421TIP3   OH234897   4.012   0.528   0.754  0.2948  0.1811  0.6434
 4421TIP3    H134898   4.100   0.546   0.784  0.4944  1.9155 -0.8414
 4421TIP3    H234899   3.970   0.614   0.745 -1.3714 -0.5607  0.7937
 4422TIP3   OH234900   4.232   3.764   7.380 -0.3773  0.6643 -0.0911
 4422TIP3    H134901   4.303   3.741   7.320 -0.7195  1.7832 -0.9559
 4422TIP3    H234902   4.251   3.854   7.406 -1.5305  1.0233 -0.4316
 4423TIP3   OH234903   1.840   2.465   1.490  0.4113  0.1083 -0.1913
 4423TIP3    H134904   1.862   2.558   1.487 -3.2950  1.1827  0.5871
 4423TIP3    H234905   1.878   2.434   1.572 -0.8134  1.8221  1.1247
 4424TIP3   OH234906   3.758   6.387   5.976  0.1228  0.0147  0.2573
 4424TIP3    H134907   3.778   6.479   5.995 -1.6682  0.3433  0.6920
 4424TIP3    H234908   3.818   6.364   5.906  2.0619  0.8821  1.5257
 4425TIP3   OH234909   3.291   4.952   0.132  0.2023 -0.0055  0.1071
 4425TIP3    H134910   3.353   4.908   0.191 -0.6057 -1.7375 -0.2776
 4425TIP3    H234911   3.278   4.890   0.061  0.6399  1.7645 -1.6101
 4426TIP3   OH234912   6.732   6.870   0.204  0.4164 -0.1855 -0.4315
 4426TIP3    H134913   6.782   6.926   0.263 -0.1326 -0.0117 -0.1234
 4426TIP3    H234914   6.730   6.785   0.247 -0.5012  0.0947  0.1149
 4427TIP3   OH234915   2.208   5.702   0.970 -0.1794 -0.2443  0.6564
 4427TIP3    H134916   2.184   5.623   1.018 -1.1249  0.0520  0.6875
 4427TIP3    H234917   2.125   5.743   0.949  0.2731  0.2446 -0.2062
 4428TIP3   OH234918   0.769   0.065   7.377 -0.0607  0.5105 -0.0735
 4428TIP3    H134919   0.791   0.115   7.298 -1.0132  0.7300 -0.2155
 4428TIP3    H234920   0.690   0.106   7.410  0.3531  0.4499  1.0427
 4429TIP3   OH234921   4.161   3.633   1.990 -0.0924  0.4157 -0.4065
 4429TIP3    H134922   4.185   3.679   1.910 -0.0655  1.0147 -0.0593
 4429TIP3    H234923   4.188   3.691   2.061  3.5226 -1.6923  0.2433
 4430TIP3   OH234924   0.160   1.595   6.965  0.0685 -0.6274 -0.4350
 4430TIP3    H134925   0.077   1.635   6.940 -0.4054 -1.7127 -0.6525
 4430TIP3    H234926   0.150   1.502   6.944  0.9087 -0.9905  0.6318
 4431TIP3   OH234927   0.933   0.858   6.590 -0.0576 -0.6009  0.6142
 4431TIP3    H134928   0.967   0.947   6.587  3.4814 -1.8032 -1.6764
 4431TIP3    H234929   0.871   0.854   6.517  1.5493 -0.5177 -0.8228
 4432TIP3   OH234930   6.111   1.449   1.062  0.4931 -0.5054  0.3111
 4432TIP3    H134931   6.193   1.431   1.016  0.0298 -2.6879  0.2126
 4432TIP3    H234932   6.127   1.531   1.109  2.2931 -0.2368 -0.6717
 4433TIP3   OH234933   2.798   5.329   6.300 -0.0249  0.0533 -0.5896
 4433TIP3    H134934   2.765   5.418   6.294 -0.8288  0.0299  2.2103
 4433TIP3    H234935   2.888   5.334   6.269  0.7336  2.3878  1.6751
 4434TIP3   OH234936   5.019   1.931   0.014 -0.0727  0.3878 -0.0560
 4434TIP3    H134937   5.067   1.981   0.080 -0.1494  1.6690 -0.9263
 4434TIP3    H234938   5.085   1.905  -0.050 -0.0765 -0.4406  0.2603
 4435TIP3   OH234939   4.294   6.703   0.171  0.2051  0.1541 -0.5194
 4435TIP3    H134940   4.386   6.678   0.169  0.0553 -0.5786  0.6023
 4435TIP3    H234941   4.276   6.737   0.083  1.3244 -0.4926 -1.0221
 4436TIP3   OH234942   2.331   6.003   8.132  0.1752 -0.1329  0.0932
 4436TIP3    H134943   2.296   5.980   8.218  0.7044  0.3083  0.4285
 4436TIP3    H234944   2.365   6.092   8.142  0.4037 -0.1442 -0.5217
 4437TIP3   OH234945   2.901   6.063   1.716 -0.5048  0.4651  0.0889
 4437TIP3    H134946   2.904   5.970   1.691 -0.0781  0.6558 -0.6052
 4437TIP3    H234947   2.992   6.091   1.714 -0.5706  0.7447  0.9253
 4438TIP3   OH234948   4.285   4.761   2.114 -0.1542 -0.2788  0.7508
 4438TIP3    H134949   4.349   4.728   2.176  0.1241 -0.6183  0.2872
 4438TIP3    H234950   4.247   4.838   2.157 -0.1245 -0.6401  1.4256
 4439TIP3   OH234951   0.651   4.580   1.418 -0.6834 -0.1493 -0.8171
 4439TIP3    H134952   0.703   4.577   1.338 -0.3761 -2.7882 -0.5867
 4439TIP3    H234953   0.620   4.671   1.422  2.0777  0.9714 -2.0878
 4440TIP3   OH234954   1.277   2.909   6.147  0.5277 -0.2925 -0.0975
 4440TIP3    H134955   1.210   2.934   6.083  1.3739  0.6129 -0.6626
 4440TIP3    H234956   1.267   2.814   6.156  0.8721 -0.5905 -2.1989
 4441TIP3   OH234957   4.802   0.504   1.157  0.0822  0.4387  0.0882
 4441TIP3    H134958   4.822   0.539   1.071 -0.2627 -0.3216 -0.3062
 4441TIP3    H234959   4.708   0.489   1.156  0.2542 -0.7489  0.1404
 4442TIP3   OH234960   4.574   1.440   6.738  0.5993  0.3398 -0.3899
 4442TIP3    H134961   4.588   1.418   6.830  2.1749 -0.1137 -0.7150
 4442TIP3    H234962   4.479   1.453   6.731  0.3930 -0.0819  1.1827
 4443TIP3   OH234963   1.810   3.104   0.014 -0.0236  0.1043  0.3698
 4443TIP3    H134964   1.891   3.154   0.011 -0.5674  0.9855 -1.2174
 4443TIP3    H234965   1.741   3.169  -0.003 -0.9081 -0.8795  0.0807
 4444TIP3   OH234966   5.507   1.347   0.800 -0.1602 -0.0522 -0.5576
 4444TIP3    H134967   5.546   1.375   0.717 -0.8937 -0.5426 -1.0815
 4444TIP3    H234968   5.460   1.266   0.778 -2.1728  0.9350 -0.1638
 4445TIP3   OH234969   3.032   5.297   7.902 -0.0732  0.2142  0.1741
 4445TIP3    H134970   3.028   5.254   7.987 -2.1540 -0.1395 -0.0629
 4445TIP3    H234971   3.100   5.250   7.854 -0.0661 -0.6932  1.0439
 4446TIP3   OH234972   5.082   2.633   7.276  0.2592  0.6193  0.2319
 4446TIP3    H134973   5.046   2.698   7.216  0.1435  0.3073 -0.0411
 4446TIP3    H234974   5.164   2.604   7.235  0.6498  1.0720  0.6780
 4447TIP3   OH234975   4.458   5.322   1.504 -0.1818  0.7050 -0.1447
 4447TIP3    H134976   4.422   5.407   1.528 -0.4275  0.4118  0.5548
 4447TIP3    H234977   4.539   5.342   1.457 -0.5053  1.3322 -0.4483
 4448TIP3   OH234978   5.683   0.839   7.957 -0.4310  0.4728  0.6652
 4448TIP3    H134979   5.671   0.904   8.027 -1.2599 -0.6455  1.6130
 4448TIP3    H234980   5.656   0.757   7.997 -1.9526 -0.0441 -1.2893
 4449TIP3   OH234981   1.344   0.035   1.909  0.0652 -0.3538 -0.0986
 4449TIP3    H134982   1.253   0.064   1.900 -0.2700 -1.1329  0.6648
 4449TIP3    H234983   1.358  -0.024   1.834  0.6887  1.5158 -1.5427
 4450TIP3   OH234984   3.186   3.840   7.176 -0.3110  0.4365  0.3122
 4450TIP3    H134985   3.194   3.842   7.081  1.2932  2.1114  0.4300
 4450TIP3    H234986   3.145   3.924   7.198  0.5205  0.6326  1.1717
 4451TIP3   OH234987   6.146   4.959   0.966  0.3146 -0.0572  0.1259
 4451TIP3    H134988   6.132   4.981   0.874 -3.2544 -0.3173  0.4543
 4451TIP3    H234989   6.143   5.044   1.011  1.8074  0.0458  0.0785
 4452TIP3   OH234990   6.175   5.387   1.742 -0.3431 -0.3971  0.4741
 4452TIP3    H134991   6.139   5.474   1.763  0.0662 -0.7253  2.8059
 4452TIP3    H234992   6.256   5.406   1.695 -1.0030  0.4455 -0.3638
 4453TIP3   OH234993   2.936   4.731   0.047 -0.0184 -0.2257  0.0218
 4453TIP3    H134994   3.005   4.693  -0.008 -0.2064  0.1506 -0.4771
 4453TIP3    H234995   2.855   4.690   0.016 -0.0313 -0.6388  0.5812
 4454TIP3   OH234996   2.203   5.402   0.858  0.1919  0.2503 -0.3911
 4454TIP3    H134997   2.227   5.338   0.791  1.4249  0.4812 -0.1936
 4454TIP3    H234998   2.285   5.448   0.878 -0.4307  1.0879  0.3169
 4455TIP3   OH234999   5.431   6.569   1.160 -0.6643  0.4224  0.1834
 4455TIP3    H135000   5.413   6.629   1.088  0.1057  0.1482 -0.2367
 4455TIP3    H235001   5.344   6.537   1.186 -1.0531  1.4258  0.1769
 4456TIP3   OH235002   2.297   3.295   7.576  0.1709  0.1171  0.6563
 4456TIP3    H135003   2.314   3.243   7.497 -0.6689  0.2424  0.3774
 4456TIP3    H235004   2.318   3.385   7.551  2.7658 -0.1756  1.4930
 4457TIP3   OH235005   6.898   3.681   0.635  0.0271  0.3515  0.3448
 4457TIP3    H135006   6.910   3.643   0.548  2.3019  0.5813  0.4786
 4457TIP3    H235007   6.889   3.775   0.619 -0.7285  0.2732  0.2969
 4458TIP3   OH235008   0.751   1.170   0.971 -0.5853 -0.3050  0.1154
 4458TIP3    H135009   0.818   1.122   0.922 -0.4109 -0.4987  0.5342
 4458TIP3    H235010   0.788   1.257   0.984 -0.5623 -0.3039  0.0376
 4459TIP3   OH235011   2.963   4.801   7.947  0.5114 -0.4422 -0.1772
 4459TIP3    H135012   2.925   4.717   7.923  1.3080 -1.0298  0.5574
 4459TIP3    H235013   3.055   4.794   7.923  0.1983  0.9974 -2.0177
 4460TIP3   OH235014   1.926   4.565   0.402 -0.0834  0.2016  0.3088
 4460TIP3    H135015   1.894   4.507   0.472  0.8723 -0.3441  0.3122
 4460TIP3    H235016   1.956   4.643   0.448 -2.5353  1.2977  0.2085
 4461TIP3   OH235017   5.042   3.641   8.203  0.1916 -0.3740  0.6303
 4461TIP3    H135018   5.067   3.605   8.118  1.4757  1.2338  0.2679
 4461TIP3    H235019   4.998   3.569   8.248  1.4559 -1.9476 -0.5382
 4462TIP3   OH235020   2.891   4.807   1.779 -0.6752  0.4772  0.5544
 4462TIP3    H135021   2.843   4.877   1.823  0.7426  0.1744  2.7703
 4462TIP3    H235022   2.880   4.731   1.837 -0.4327 -0.5511 -0.7063
 4463TIP3   OH235023   0.413   1.563   6.848  0.2160  0.3312  0.0717
 4463TIP3    H135024   0.325   1.544   6.882  0.6854  2.6755  2.9654
 4463TIP3    H235025   0.397   1.614   6.768 -1.1163  1.1815  0.8415
 4464TIP3   OH235026   0.420   0.181   1.749  0.0073 -0.3345 -0.0092
 4464TIP3    H135027   0.420   0.189   1.844  0.8614 -0.5248  0.0179
 4464TIP3    H235028   0.411   0.271   1.717  1.4783 -0.0633  0.2661
 4465TIP3   OH235029   6.991   1.250   1.323  0.1696  0.3999  0.0850
 4465TIP3    H135030   6.918   1.309   1.345 -0.2865 -0.3754  0.7162
 4465TIP3    H235031   7.069   1.298   1.350 -0.2496  0.3790  1.4180
 4466TIP3   OH235032   4.381   6.261   6.937  0.0744  0.5526  0.1823
 4466TIP3    H135033   4.396   6.278   7.030  1.6433 -0.2068  0.0921
 4466TIP3    H235034   4.386   6.347   6.896  1.2875  0.6831  0.5727
 4467TIP3   OH235035   6.799   3.750   7.278  0.0346 -0.3718 -0.4915
 4467TIP3    H135036   6.755   3.791   7.204 -0.8972 -1.6553 -0.6891
 4467TIP3    H235037   6.892   3.754   7.256 -0.1265  0.5663 -1.0392
 4468TIP3   OH235038   6.650   5.961   2.088  0.3644  0.2507 -0.3824
 4468TIP3    H135039   6.669   5.880   2.041 -0.0681 -0.3921  0.5300
 4468TIP3    H235040   6.588   6.008   2.032  0.2439 -0.2724 -0.6906
 4469TIP3   OH235041   5.599   2.789   8.082 -0.0494 -0.9841 -0.6160
 4469TIP3    H135042   5.578   2.864   8.136  0.8501  0.0528 -1.6609
 4469TIP3    H235043   5.528   2.786   8.017 -0.1110 -1.0630 -0.5443
 4470TIP3   OH235044   5.494   4.954   1.213  0.0903  0.1461 -0.1712
 4470TIP3    H135045   5.477   4.987   1.125  2.4252 -0.8781 -1.0905
 4470TIP3    H235046   5.503   4.859   1.202 -1.0472 -0.1992  1.4546
 4471TIP3   OH235047   5.428   5.091   0.078 -0.1306 -0.1745  0.7574
 4471TIP3    H135048   5.349   5.080   0.130 -0.2866  0.2866  0.6214
 4471TIP3    H235049   5.427   5.018   0.016 -1.5247  0.9296 -0.6214
 4472TIP3   OH235050   4.383   2.735   0.212 -0.1538  0.5078 -0.3236
 4472TIP3    H135051   4.407   2.654   0.167 -1.4265  0.9454 -1.8801
 4472TIP3    H235052   4.453   2.796   0.190  0.5310  0.0081  0.4104
 4473TIP3   OH235053   6.318   6.751   0.620  0.0465 -0.3092 -1.0097
 4473TIP3    H135054   6.401   6.797   0.635 -0.8654  1.2927 -0.7318
 4473TIP3    H235055   6.250   6.816   0.636 -1.2609 -1.1763 -2.6574
 4474TIP3   OH235056   3.306   6.377   6.945  0.2866  0.0133  0.3616
 4474TIP3    H135057   3.398   6.359   6.965  0.0406  0.2690  1.7955
 4474TIP3    H235058   3.284   6.314   6.876  1.6117  0.1568 -0.2127
 4475TIP3   OH235059   3.512   4.397   0.744 -0.3489  0.0954  0.0547
 4475TIP3    H135060   3.566   4.389   0.823  2.8982 -1.4262 -2.0866
 4475TIP3    H235061   3.540   4.479   0.704 -0.9884  0.2065 -0.1708
 4476TIP3   OH235062   5.600   6.995   0.684 -0.0729  0.2793  0.0973
 4476TIP3    H135063   5.545   7.046   0.625 -0.9581  0.8752  1.3889
 4476TIP3    H235064   5.677   7.050   0.697  0.3303 -0.0483 -0.8133
 4477TIP3   OH235065   4.135   0.082   6.668 -0.3514  0.4202 -0.5937
 4477TIP3    H135066   4.069   0.132   6.715 -0.6971  0.6764 -1.3374
 4477TIP3    H235067   4.103  -0.009   6.671  0.8172  0.0169  1.6908
 4478TIP3   OH235068   6.571   4.406   7.517 -0.8104 -0.0197 -0.7209
 4478TIP3    H135069   6.533   4.367   7.596 -2.1762  3.3041  0.4385
 4478TIP3    H235070   6.524   4.363   7.445  1.5403 -4.2573 -0.0519
 4479TIP3   OH235071   4.612   4.765   7.583  0.3261 -0.3770 -0.2554
 4479TIP3    H135072   4.595   4.700   7.650 -2.8498 -0.4827 -0.9969
 4479TIP3    H235073   4.600   4.718   7.500  2.3921  0.1612 -0.9186
 4480TIP3   OH235074   3.147   1.416   8.056  0.0352 -1.0194  0.7388
 4480TIP3    H135075   3.222   1.358   8.068  1.4719  0.7516  0.7417
 4480TIP3    H235076   3.185   1.502   8.040 -1.9787 -0.3674 -1.1209
 4481TIP3   OH235077   1.536   6.078   7.804 -0.2336  0.4586  1.1014
 4481TIP3    H135078   1.630   6.063   7.807  0.2440  1.9292 -2.1303
 4481TIP3    H235079   1.517   6.128   7.883  2.0006  1.3792  1.1300
 4482TIP3   OH235080   3.649   3.010   1.853  0.6342 -0.7147 -0.0257
 4482TIP3    H135081   3.732   3.047   1.823  0.9089  0.1818  1.7099
 4482TIP3    H235082   3.672   2.923   1.884  1.1716 -0.0951  1.4076
 4483TIP3   OH235083   5.494   2.250   0.986  0.9361  0.3083  0.5691
 4483TIP3    H135084   5.443   2.240   0.906 -0.1846 -0.2905  1.3209
 4483TIP3    H235085   5.429   2.251   1.056  1.7264  2.7821  1.3780
 4484TIP3   OH235086   3.189   6.393   0.732  0.6722 -0.4348 -0.0422
 4484TIP3    H135087   3.101   6.365   0.708  0.2405  0.7201  0.1355
 4484TIP3    H235088   3.246   6.325   0.696 -0.2899 -1.2675 -0.0480
 4485TIP3   OH235089   1.060   1.271   7.288  0.4249  0.0135 -0.3361
 4485TIP3    H135090   1.126   1.255   7.222 -1.2829 -2.4302 -1.6037
 4485TIP3    H235091   0.986   1.309   7.240 -0.0472  0.2815  0.5638
 4486TIP3   OH235092   4.225   3.991   1.050  0.1413 -0.0471 -0.4042
 4486TIP3    H135093   4.134   3.969   1.071  0.2068 -1.0333 -1.1015
 4486TIP3    H235094   4.261   4.023   1.132  0.2184 -3.1946  0.9122
 4487TIP3   OH235095   0.705   6.191   7.312  0.0673 -0.2129  0.0040
 4487TIP3    H135096   0.649   6.157   7.242 -0.6817  2.7571 -1.0192
 4487TIP3    H235097   0.768   6.248   7.267  1.4397 -0.4711  1.5209
 4488TIP3   OH235098   6.336   0.134   7.263  0.4792  0.1009 -0.3311
 4488TIP3    H135099   6.367   0.217   7.300 -0.2912  1.0702 -1.7871
 4488TIP3    H235100   6.402   0.070   7.290  0.2789  0.8381  2.1777
 4489TIP3   OH235101   3.850   0.424   7.415 -0.1592 -0.2057  0.3810
 4489TIP3    H135102   3.880   0.504   7.370 -0.1843 -1.4040 -1.9408
 4489TIP3    H235103   3.756   0.437   7.426 -0.5563 -0.6433 -1.8459
 4490TIP3   OH235104   4.903   3.453   7.644 -0.1394  0.5473 -0.6197
 4490TIP3    H135105   4.931   3.433   7.555 -0.8419  0.4442 -0.8298
 4490TIP3    H235106   4.815   3.491   7.633  0.2786  1.7029 -0.0560
 4491TIP3   OH235107   0.764   3.693   0.572 -0.3098  0.0667 -0.5531
 4491TIP3    H135108   0.695   3.734   0.520 -1.1008 -2.2840 -1.5096
 4491TIP3    H235109   0.820   3.650   0.508  1.6657  1.2831  0.2703
 4492TIP3   OH235110   6.545   4.627   1.063 -0.5149 -0.0165  0.6055
 4492TIP3    H135111   6.502   4.698   1.113  0.5757  1.6687 -0.7430
 4492TIP3    H235112   6.477   4.597   1.002 -0.3245  1.5514 -0.4405
 4493TIP3   OH235113   5.803   5.423   1.691 -0.2088 -0.2245  0.0240
 4493TIP3    H135114   5.715   5.451   1.667 -0.2413 -0.0292  0.3624
 4493TIP3    H235115   5.798   5.404   1.784  0.8164  2.8640  0.8534
 4494TIP3   OH235116   5.915   7.052   0.895 -0.2106  0.3948 -0.3161
 4494TIP3    H135117   5.941   6.992   0.965 -0.6203 -0.3994 -0.8179
 4494TIP3    H235118   5.871   7.124   0.940 -0.6928 -0.2277  0.2256
 4495TIP3   OH235119   0.303   3.109   8.142 -0.5398 -0.3794 -0.2566
 4495TIP3    H135120   0.368   3.135   8.077  0.3363 -0.4829  0.5504
 4495TIP3    H235121   0.312   3.014   8.149 -0.1128 -0.2937  0.5226
 4496TIP3   OH235122   3.209   4.751   6.034  0.7499  0.2954  0.5538
 4496TIP3    H135123   3.163   4.834   6.023  1.3553  0.4193 -1.3514
 4496TIP3    H235124   3.145   4.693   6.074  0.0623  1.4303  1.1480
 4497TIP3   OH235125   1.232   3.068   6.868 -0.5191  0.2794  0.2955
 4497TIP3    H135126   1.316   3.114   6.868 -0.1506 -0.3560  1.3103
 4497TIP3    H235127   1.181   3.111   6.800  0.2763  1.3228  0.3324
 4498TIP3   OH235128   0.659   6.240   5.892 -0.0262  0.3577  0.0243
 4498TIP3    H135129   0.570   6.231   5.859  0.1776  1.5208 -0.9151
 4498TIP3    H235130   0.658   6.194   5.976 -1.4377  0.1283 -0.0874
 4499TIP3   OH235131   3.821   3.738   0.940 -0.0887 -0.0674 -0.6183
 4499TIP3    H135132   3.853   3.705   0.856 -0.1480  0.5436 -0.8861
 4499TIP3    H235133   3.740   3.689   0.955 -0.3421  0.1762 -1.1639
 4500TIP3   OH235134   5.287   3.090   7.420 -0.2488 -0.4462  0.7297
 4500TIP3    H135135   5.225   3.148   7.374 -0.1605 -1.1033 -0.2465
 4500TIP3    H235136   5.294   3.013   7.363  0.3989 -0.9863  1.5254
 4501TIP3   OH235137   6.521   7.018   0.923 -0.2906  0.1503 -0.0513
 4501TIP3    H135138   6.611   6.996   0.946  0.5953  2.7695 -0.7139
 4501TIP3    H235139   6.520   7.015   0.827 -0.4850  1.6030 -0.1039
 4502TIP3   OH235140   5.285   6.968   7.240  0.4256  0.3181  0.0071
 4502TIP3    H135141   5.347   6.906   7.279  1.1196  2.9789  3.5498
 4502TIP3    H235142   5.199   6.934   7.265  0.8074  0.8103  2.2040
 4503TIP3   OH235143   5.308   6.129   0.842  0.3845 -0.2078 -0.6504
 4503TIP3    H135144   5.300   6.201   0.904 -0.3347 -0.5028 -0.3958
 4503TIP3    H235145   5.221   6.121   0.803 -0.2409 -2.4647  1.0258
 4504TIP3   OH235146   0.829   4.745   5.775  0.3109 -0.3721 -0.6955
 4504TIP3    H135147   0.736   4.751   5.757  0.6841 -1.2627 -3.3198
 4504TIP3    H235148   0.845   4.653   5.795  0.4830 -0.0181  0.9217
 4505TIP3   OH235149   4.284   3.491   8.275  0.6677  0.9859 -0.3692
 4505TIP3    H135150   4.320   3.578   8.257  0.6358  1.2634  0.7785
 4505TIP3    H235151   4.350   3.450   8.331  0.0376  0.8206  0.2646
 4506TIP3   OH235152   5.667   0.522   6.922 -0.7003 -0.4266  0.1513
 4506TIP3    H135153   5.681   0.464   6.847  0.2127 -0.2269  0.1574
 4506TIP3    H235154   5.606   0.588   6.891  0.6035  0.3567 -0.7990
 4507TIP3   OH235155   0.496   5.706   7.486 -0.2314 -0.5234 -0.1520
 4507TIP3    H135156   0.587   5.695   7.458 -0.3078  0.4843 -0.8325
 4507TIP3    H235157   0.491   5.657   7.568  0.6602 -1.4219 -0.5995
 4508TIP3   OH235158   1.805   2.151   7.812 -0.3799 -0.6975 -0.4188
 4508TIP3    H135159   1.871   2.093   7.773 -2.1999 -2.5920 -0.8574
 4508TIP3    H235160   1.848   2.237   7.815  2.5885 -2.0847  0.6403
 4509TIP3   OH235161   0.925   5.497   6.032 -0.2638 -0.3809 -0.1264
 4509TIP3    H135162   0.951   5.567   5.971 -0.2635 -1.4847 -1.4248
 4509TIP3    H235163   0.890   5.428   5.976  1.7527 -2.3629  0.9045
 4510TIP3   OH235164   1.415   0.707   6.277 -0.1727 -0.2970  0.6081
 4510TIP3    H135165   1.340   0.711   6.335 -0.5160 -1.4993  0.2700
 4510TIP3    H235166   1.476   0.772   6.312 -2.3908  2.6801 -0.6240
 4511TIP3   OH235167   3.424   3.280   0.935  0.8894 -0.4106 -0.2917
 4511TIP3    H135168   3.500   3.232   0.903  0.5631  0.4827 -2.5994
 4511TIP3    H235169   3.353   3.216   0.937  1.5273 -1.1329  1.4303
 4512TIP3   OH235170   5.718   2.696   1.978  0.0573  0.1660  0.3734
 4512TIP3    H135171   5.695   2.753   2.052 -2.4048  1.1356 -0.9978
 4512TIP3    H235172   5.813   2.700   1.972  0.1091  2.3193  1.7609
 4513TIP3   OH235173   0.657   3.356   1.372 -0.0369 -0.2620 -0.3950
 4513TIP3    H135174   0.662   3.344   1.467  0.0774  0.5346 -0.2926
 4513TIP3    H235175   0.648   3.450   1.360 -0.2339 -0.3709 -1.1742
 4514TIP3   OH235176   1.582   0.495   1.229  0.0988 -0.1671  0.2953
 4514TIP3    H135177   1.629   0.542   1.160 -2.3759  2.9714  0.5157
 4514TIP3    H235178   1.650   0.452   1.280  2.1402 -1.3584 -3.1131
 4515TIP3   OH235179   5.864   5.275   1.238  0.2038 -0.3011 -0.0406
 4515TIP3    H135180   5.841   5.367   1.245 -0.0147 -0.0887 -2.5001
 4515TIP3    H235181   5.885   5.248   1.327 -1.5613  1.6143  1.0298
 4516TIP3   OH235182   0.945   6.053   7.632 -0.5050  0.2928  0.2651
 4516TIP3    H135183   0.899   6.137   7.636  0.5838  0.8663  3.0026
 4516TIP3    H235184   1.038   6.076   7.633 -0.1281 -0.9564 -1.0382
 4517TIP3   OH235185   0.838   6.358   2.134  0.7545  0.0394 -0.2158
 4517TIP3    H135186   0.756   6.310   2.122  1.2288 -0.7728 -0.2854
 4517TIP3    H235187   0.874   6.366   2.045 -0.0751  1.9120 -0.4091
 4518TIP3   OH235188   2.021   1.748   7.490  0.1669 -0.3777 -0.6441
 4518TIP3    H135189   2.098   1.792   7.451 -0.8633  2.0391 -0.1623
 4518TIP3    H235190   1.947   1.783   7.441 -0.8517 -0.3637  0.8465
 4519TIP3   OH235191   2.199   7.055   1.942  0.4452 -0.0268  0.2826
 4519TIP3    H135192   2.289   7.053   1.911  1.1701 -0.6828  2.3190
 4519TIP3    H235193   2.179   7.148   1.952  1.3701  0.0932  1.1191
 4520TIP3   OH235194   6.401   5.099   7.332  0.5538  0.8552  0.1423
 4520TIP3    H135195   6.356   5.021   7.364 -0.2797  1.7122  1.1340
 4520TIP3    H235196   6.371   5.110   7.242 -0.2410  0.6990  0.3861
 4521TIP3   OH235197   5.451   0.015   0.464  0.4698  0.1433 -0.3608
 4521TIP3    H135198   5.445  -0.080   0.449 -0.9322 -0.2857  2.3121
 4521TIP3    H235199   5.404   0.054   0.390 -1.2513 -1.4287 -0.1746
 4522TIP3   OH235200   2.528   0.287   1.113  0.2425 -0.2168 -0.0399
 4522TIP3    H135201   2.433   0.272   1.119  0.4210 -1.3594  0.2419
 4522TIP3    H235202   2.539   0.381   1.126 -0.9422  0.0903 -1.1432
 4523TIP3   OH235203   3.640   5.087   6.561 -0.1225  0.2379 -0.0072
 4523TIP3    H135204   3.682   5.084   6.475 -0.8243  0.1933 -0.3525
 4523TIP3    H235205   3.685   5.159   6.606  1.2278 -0.6407  0.1196
 4524TIP3   OH235206   6.822   3.383   7.505 -0.4194  0.5057  0.5471
 4524TIP3    H135207   6.795   3.364   7.415 -0.8033  0.6994  0.6210
 4524TIP3    H235208   6.770   3.324   7.559 -0.6458  0.8263  0.6849
 4525TIP3   OH235209   0.200   2.838   8.031  0.3669  0.1931 -0.4501
 4525TIP3    H135210   0.170   2.926   8.007  0.6023  0.4143  0.0499
 4525TIP3    H235211   0.244   2.805   7.952  2.4454  1.4907  0.0856
 4526TIP3   OH235212   2.326   1.278   0.277  0.3129  0.0114  0.2935
 4526TIP3    H135213   2.384   1.346   0.243 -1.2942  0.9281 -0.7407
 4526TIP3    H235214   2.238   1.317   0.272 -0.3973 -1.2892  1.8965
 4527TIP3   OH235215   0.504   5.562   1.407  0.1453  0.0891 -0.9414
 4527TIP3    H135216   0.547   5.560   1.321 -0.9778 -2.2516 -1.5303
 4527TIP3    H235217   0.411   5.575   1.387 -0.0546  0.1193 -0.0404
 4528TIP3   OH235218   6.661   5.213   1.150  0.4818  0.4371  0.1822
 4528TIP3    H135219   6.568   5.193   1.136  0.6909 -0.1933 -0.3664
 4528TIP3    H235220   6.681   5.280   1.084  0.1360  1.4403  1.0738
 4529TIP3   OH235221   2.127   0.464   1.278 -0.3169 -0.2356 -0.5715
 4529TIP3    H135222   2.202   0.507   1.319  0.3491 -0.6010 -1.3741
 4529TIP3    H235223   2.163   0.382   1.243 -0.6806  0.4046 -2.5468
 4530TIP3   OH235224   6.744   0.237   6.992 -0.3366 -0.1154 -0.4300
 4530TIP3    H135225   6.718   0.147   7.011 -1.0094 -0.2871 -1.9621
 4530TIP3    H235226   6.713   0.252   6.902 -0.5253  1.7495 -0.0977
 4531TIP3   OH235227   4.643   4.886   6.976 -0.0290  0.1938  0.5217
 4531TIP3    H135228   4.558   4.842   6.981 -1.6272  3.0433  0.7769
 4531TIP3    H235229   4.638   4.955   7.042  2.7097  0.1755  0.8538
 4532TIP3   OH235230   0.242   1.702   5.800 -0.3573  0.1623 -0.3536
 4532TIP3    H135231   0.208   1.778   5.848  0.5144  0.3785 -0.0592
 4532TIP3    H235232   0.284   1.649   5.867  0.2679  0.1213 -0.7752
 4533TIP3   OH235233   6.498   5.777   7.296  0.2304 -0.0618  0.0966
 4533TIP3    H135234   6.406   5.803   7.285  0.9129  2.3549 -0.4751
 4533TIP3    H235235   6.536   5.783   7.208  1.1021 -0.4280  0.4355
 4534TIP3   OH235236   1.555   6.075   6.663 -0.5069  0.0960  1.0163
 4534TIP3    H135237   1.640   6.035   6.680 -0.9409 -1.0671  0.5176
 4534TIP3    H235238   1.523   6.030   6.585 -1.1022  1.2846  0.5495
 4535TIP3   OH235239   6.334   4.196   1.567  0.5504  0.2404  0.2609
 4535TIP3    H135240   6.318   4.103   1.549 -1.7323  0.7043 -0.4098
 4535TIP3    H235241   6.333   4.202   1.662 -2.5292 -0.0116  0.3265
 4536TIP3   OH235242   5.408   1.988   0.511 -0.2366 -0.2516  0.8111
 4536TIP3    H135243   5.424   2.055   0.444 -0.5494 -1.0098 -0.0342
 4536TIP3    H235244   5.367   1.916   0.464  0.7605 -1.3472  1.5784
 4537TIP3   OH235245   0.100   3.324   1.587 -0.2206 -0.6825  0.0168
 4537TIP3    H135246   0.009   3.298   1.584 -0.7936  1.2383 -1.1706
 4537TIP3    H235247   0.148   3.253   1.545 -1.0608 -1.9869  1.1971
 4538TIP3   OH235248   3.652   0.679   1.590  0.1936 -0.5856  0.2096
 4538TIP3    H135249   3.687   0.676   1.679 -0.8534  1.9048  0.7862
 4538TIP3    H235250   3.557   0.668   1.601 -0.0252  0.4572 -0.5015
 4539TIP3   OH235251   0.546   5.061   7.428  0.0453  0.0320  0.2157
 4539TIP3    H135252   0.622   5.003   7.436 -0.3618 -0.4122  0.9733
 4539TIP3    H235253   0.556   5.124   7.500  0.7425  1.2425 -0.8887
 4540TIP3   OH235254   6.289   2.480   7.910 -0.5588  0.2917  0.1538
 4540TIP3    H135255   6.271   2.465   7.817 -0.9705 -0.6496  0.3812
 4540TIP3    H235256   6.229   2.550   7.935 -1.0139 -0.0093 -0.0921
 4541TIP3   OH235257   0.442   6.284   6.566  0.0217  0.4021  0.9211
 4541TIP3    H135258   0.527   6.320   6.538  0.1296  0.8652  1.8092
 4541TIP3    H235259   0.396   6.266   6.484  0.3095  1.7574  0.4418
 4542TIP3   OH235260   0.774   0.772   1.522 -0.4454  0.0998  0.3303
 4542TIP3    H135261   0.805   0.749   1.434  1.4491  1.5214  0.5536
 4542TIP3    H235262   0.836   0.728   1.581 -0.5782  0.6529  0.8929
 4543TIP3   OH235263   6.992   0.758   1.045  0.3409  0.3969 -0.2369
 4543TIP3    H135264   6.998   0.826   1.112 -0.7616  1.1549 -0.8788
 4543TIP3    H235265   6.905   0.719   1.057  0.6758 -0.4076 -0.3419
 4544TIP3   OH235266   1.482   0.446   6.199 -0.1213 -0.0131 -0.3140
 4544TIP3    H135267   1.472   0.541   6.203 -2.1385 -0.0428 -2.3093
 4544TIP3    H235268   1.572   0.432   6.170  0.6262  1.1957  1.3062
 4545TIP3   OH235269   0.050   3.982   1.700  0.1016 -0.2535 -0.2146
 4545TIP3    H135270  -0.036   3.964   1.663 -0.3987 -2.6579  1.8590
 4545TIP3    H235271   0.109   3.919   1.658  0.5339  0.3023 -0.4583
 4546TIP3   OH235272   0.682   0.881   0.287 -0.2818 -0.1813  0.1598
 4546TIP3    H135273   0.621   0.839   0.226  0.5243 -1.6057  0.2711
 4546TIP3    H235274   0.633   0.953   0.325 -1.6442 -0.8248 -0.3051
 4547TIP3   OH235275   4.130   5.232   7.452 -0.0078 -0.6063 -0.1029
 4547TIP3    H135276   4.202   5.204   7.508  1.0009  0.5689 -0.7346
 4547TIP3    H235277   4.058   5.172   7.472  0.2942 -0.2373  2.4272
 4548TIP3   OH235278   6.217   1.916   7.287 -0.1683 -0.1447  0.0372
 4548TIP3    H135279   6.307   1.927   7.318 -0.1973  1.3996 -0.3069
 4548TIP3    H235280   6.168   1.885   7.363  0.0875  1.9617  1.1543
 4549TIP3   OH235281   6.667   5.344   0.895  0.0223 -0.0304 -0.0056
 4549TIP3    H135282   6.615   5.367   0.818 -0.5145 -0.1618  0.3196
 4549TIP3    H235283   6.755   5.328   0.860 -0.0535  0.5977 -0.4936
 4550TIP3   OH235284   1.411   1.364   0.627 -0.1262  0.2042  0.4846
 4550TIP3    H135285   1.350   1.384   0.556  1.4788 -0.3151 -1.1266
 4550TIP3    H235286   1.383   1.279   0.659  1.3546 -1.4610 -2.2324
 4551TIP3   OH235287   2.412   2.332   7.424 -0.5253  0.2708  0.3785
 4551TIP3    H135288   2.490   2.284   7.394 -0.1622  1.3637 -0.4692
 4551TIP3    H235289   2.416   2.416   7.378 -0.7891  1.4005  2.3306
 4552TIP3   OH235290   2.394   3.507   5.993 -0.2448 -0.1293  0.9196
 4552TIP3    H135291   2.479   3.531   5.957 -0.7502 -1.2245 -1.1268
 4552TIP3    H235292   2.330   3.551   5.937 -1.0657 -1.5745  0.6720
 4553TIP3   OH235293   2.350   4.161   0.692  0.6510 -0.6210  0.1041
 4553TIP3    H135294   2.364   4.073   0.729  1.3395  0.0809  1.5720
 4553TIP3    H235295   2.438   4.193   0.673  0.4443 -0.0081  0.1708
 4554TIP3   OH235296   4.496   0.617   6.790 -0.2724  0.5114 -0.2273
 4554TIP3    H135297   4.465   0.529   6.814 -1.1310  1.0297  0.5966
 4554TIP3    H235298   4.546   0.603   6.710  1.6886 -1.1076  1.1812
 4555TIP3   OH235299   2.567   6.435   6.813  0.2215 -0.4692  0.4650
 4555TIP3    H135300   2.659   6.432   6.838  0.2906 -0.1217  0.2580
 4555TIP3    H235301   2.531   6.510   6.860  0.1023 -0.4530  0.3501
 4556TIP3   OH235302   1.929   1.257   8.099 -0.9634 -0.1329 -0.1894
 4556TIP3    H135303   1.993   1.193   8.131 -2.5956 -2.4440 -1.2970
 4556TIP3    H235304   1.872   1.274   8.174 -1.3399 -1.0821 -0.2492
 4557TIP3   OH235305   4.846   5.287   0.306  0.1052  0.3559 -0.1315
 4557TIP3    H135306   4.890   5.237   0.376 -2.7822 -4.0343 -1.0522
 4557TIP3    H235307   4.763   5.313   0.344 -0.5682 -0.1572 -1.1924
 4558TIP3   OH235308   4.045   1.111   7.393  0.1609  0.3808 -0.1138
 4558TIP3    H135309   4.079   1.106   7.304  1.4053 -0.7986  0.3827
 4558TIP3    H235310   4.088   1.039   7.439  1.3075  2.3054  2.0290
 4559TIP3   OH235311   7.011   4.711   0.221 -0.2463  0.4784  0.1330
 4559TIP3    H135312   6.928   4.665   0.224 -0.1388  0.2939  0.2701
 4559TIP3    H235313   7.077   4.642   0.226 -0.0856  0.6426  0.2823
 4560TIP3   OH235314   2.198   0.416   0.456  0.2702 -0.2106 -0.4707
 4560TIP3    H135315   2.135   0.414   0.384 -0.3286  0.0506  0.0406
 4560TIP3    H235316   2.189   0.502   0.495 -0.2828 -0.7723  0.6781
 4561TIP3   OH235317   6.993   3.082   6.688 -0.3109  0.0223 -0.2230
 4561TIP3    H135318   6.947   3.004   6.656 -1.0142  0.9446 -1.5440
 4561TIP3    H235319   7.063   3.097   6.624 -0.7135  0.9537 -0.4608
 4562TIP3   OH235320   6.757   3.093   7.308  0.0292 -0.1389  0.2355
 4562TIP3    H135321   6.722   3.010   7.276 -2.1787  0.5229  0.7263
 4562TIP3    H235322   6.799   3.133   7.231  0.8673 -1.5558 -0.0676
 4563TIP3   OH235323   6.056   4.763   7.192 -0.4484 -0.3017 -0.6354
 4563TIP3    H135324   6.013   4.785   7.109 -2.0230 -1.7409 -0.2702
 4563TIP3    H235325   6.003   4.691   7.227  0.8748 -0.4961  1.0635
 4564TIP3   OH235326   2.595   3.642   1.812 -0.1965 -0.0722  0.0905
 4564TIP3    H135327   2.517   3.624   1.760 -0.1638 -0.9151  0.3187
 4564TIP3    H235328   2.651   3.695   1.755 -0.2397 -0.8304 -0.6735
 4565TIP3   OH235329   4.014   1.778   7.189  0.2525 -0.4365  0.1422
 4565TIP3    H135330   4.050   1.865   7.207 -0.0899 -0.5443  1.3882
 4565TIP3    H235331   4.083   1.718   7.216 -0.1785 -0.5953  0.9056
 4566TIP3   OH235332   5.950   3.827   0.063 -0.2903  0.4616 -0.2933
 4566TIP3    H135333   5.972   3.735   0.077  0.7327  0.8124  0.4944
 4566TIP3    H235334   5.982   3.872   0.141 -2.2250  1.2836  0.1058
 4567TIP3   OH235335   4.934   5.193   0.538  0.1687 -0.5501 -0.1252
 4567TIP3    H135336   4.989   5.117   0.516  1.7963  0.3921  0.5060
 4567TIP3    H235337   4.868   5.158   0.598  1.7108 -1.2618  1.2440
 4568TIP3   OH235338   4.706   6.036   8.261 -0.2167 -0.1606 -0.2657
 4568TIP3    H135339   4.632   6.008   8.207  0.0512  0.4443 -0.9626
 4568TIP3    H235340   4.731   5.958   8.310 -1.1575 -0.4323 -0.2087
 4569TIP3   OH235341   5.433   2.817   7.861  0.5760 -0.2733  0.0110
 4569TIP3    H135342   5.463   2.803   7.771  0.3977 -0.8830  0.0400
 4569TIP3    H235343   5.397   2.732   7.888 -1.4160  0.4767 -0.1051
 4570TIP3   OH235344   3.258   5.433   1.096  0.1575  0.0683 -0.3930
 4570TIP3    H135345   3.228   5.421   1.007 -2.1184 -0.2497  0.3673
 4570TIP3    H235346   3.343   5.388   1.099 -0.9743 -2.3167 -1.6964
 4571TIP3   OH235347   2.785   7.058   8.029 -0.4746  0.1117  0.1146
 4571TIP3    H135348   2.782   7.042   8.123 -3.4707 -0.9496 -0.0230
 4571TIP3    H235349   2.829   6.982   7.993 -0.5070 -0.1313  0.5825
 4572TIP3   OH235350   7.066   5.498   6.905  0.0973 -0.0769 -0.7241
 4572TIP3    H135351   7.001   5.560   6.871 -0.6844 -0.9240 -0.8030
 4572TIP3    H235352   7.057   5.421   6.850 -1.3196 -1.5661  1.4393
 4573TIP3   OH235353   6.099   3.448   1.215  0.4597  0.0819 -0.2626
 4573TIP3    H135354   6.045   3.382   1.259  2.5960 -0.5847  1.5304
 4573TIP3    H235355   6.075   3.531   1.257  0.0001 -0.0120 -0.3318
 4574TIP3   OH235356   6.533   6.541   7.703 -0.2024 -0.2020 -0.0186
 4574TIP3    H135357   6.574   6.550   7.789 -0.2770  1.7353 -0.1385
 4574TIP3    H235358   6.545   6.627   7.661 -0.9893 -0.8032 -1.5739
 4575TIP3   OH235359   2.897   3.740   8.275  0.4292  0.1901 -0.1939
 4575TIP3    H135360   2.866   3.665   8.224 -1.3246  0.5032  0.3473
 4575TIP3    H235361   2.822   3.799   8.279  0.7156  0.4983  2.1404
 4576TIP3   OH235362   1.306   2.378   1.618  0.2306 -0.3384 -0.7123
 4576TIP3    H135363   1.261   2.405   1.698  0.9467 -2.6647  0.5795
 4576TIP3    H235364   1.398   2.400   1.634  0.4582 -1.2934 -0.6241
 4577TIP3   OH235365   7.047   5.769   1.050  0.2791  0.2874  0.4874
 4577TIP3    H135366   6.952   5.771   1.044  0.2606  2.2273  0.8447
 4577TIP3    H235367   7.068   5.677   1.070 -1.5430 -0.0503  1.0189
 4578TIP3   OH235368   6.041   0.438   7.698  0.7780 -0.4661  0.1891
 4578TIP3    H135369   6.009   0.366   7.751  0.6068 -1.0134 -0.6352
 4578TIP3    H235370   6.133   0.418   7.683  0.8376 -0.2905  0.3176
 4579TIP3   OH235371   5.110   5.228   0.869 -0.1825 -0.4309  0.3364
 4579TIP3    H135372   5.019   5.256   0.861 -0.3478 -1.1061 -0.2770
 4579TIP3    H235373   5.153   5.261   0.790  0.0387 -0.3654  0.4816
 4580TIP3   OH235374   0.124   4.822   0.963 -0.5774  0.1989  0.0682
 4580TIP3    H135375   0.120   4.763   1.038  1.3009 -0.1499 -0.0632
 4580TIP3    H235376   0.140   4.764   0.888 -1.3939  0.6447 -0.4716
 4581TIP3   OH235377   1.103   5.625   6.838  0.6167  0.0665  0.5053
 4581TIP3    H135378   1.040   5.643   6.768 -1.7695  0.4991  2.6304
 4581TIP3    H235379   1.180   5.676   6.815  0.5127 -0.9327 -2.5110
 4582TIP3   OH235380   3.396   5.837   7.492  0.0117  0.1025  0.6185
 4582TIP3    H135381   3.416   5.893   7.567 -3.0392  0.7086  1.1285
 4582TIP3    H235382   3.397   5.748   7.526 -1.0125  0.3522  1.3524
 4583TIP3   OH235383   5.374   1.476   5.895  0.6173 -0.1007 -0.4703
 4583TIP3    H135384   5.312   1.548   5.889 -0.1662 -0.8279 -1.3510
 4583TIP3    H235385   5.409   1.482   5.984 -1.9144 -0.6437  0.6491
 4584TIP3   OH235386   5.639   0.346   7.788 -0.7772 -0.0609  0.4707
 4584TIP3    H135387   5.611   0.279   7.725  0.5143 -0.2255  0.0270
 4584TIP3    H235388   5.671   0.296   7.863 -2.7289  0.1438  1.4772
 4585TIP3   OH235389   4.578   1.191   0.853 -0.0087 -0.1169 -0.2440
 4585TIP3    H135390   4.663   1.228   0.876 -0.0081  2.0067 -3.1817
 4585TIP3    H235391   4.515   1.259   0.875 -1.6484 -2.7002  4.7665
 4586TIP3   OH235392   7.049   6.048   6.594  0.6912  0.4706 -0.2366
 4586TIP3    H135393   7.023   6.128   6.549 -0.4443  0.6047  0.6165
 4586TIP3    H235394   7.143   6.059   6.611  0.3437  2.1459  0.8795
 4587TIP3   OH235395   1.735   0.255   0.713 -0.0060  0.0808 -0.4285
 4587TIP3    H135396   1.812   0.309   0.699  0.7413 -0.4882  1.1464
 4587TIP3    H235397   1.681   0.306   0.774  2.4369 -2.2238  4.2049
 4588TIP3   OH235398   3.540   2.121   1.860 -0.3158 -0.0235 -0.1743
 4588TIP3    H135399   3.560   2.043   1.912 -0.6887 -0.1993 -0.2909
 4588TIP3    H235400   3.536   2.192   1.924  1.2289  0.1315 -0.2078
 4589TIP3   OH235401   0.449   0.865   1.439  0.0697 -0.2827  0.0440
 4589TIP3    H135402   0.405   0.909   1.367 -0.1982  0.6150  0.7461
 4589TIP3    H235403   0.529   0.829   1.400 -0.7372 -1.0054 -0.9956
 4590TIP3   OH235404   0.060   1.926   5.852  0.2029 -0.2186  0.7897
 4590TIP3    H135405   0.048   1.975   5.770  0.3858 -0.6028  0.5254
 4590TIP3    H235406  -0.027   1.926   5.893 -0.5492 -2.1475 -0.6335
 4591TIP3   OH235407   3.737   3.479   7.871  0.0057 -0.2668  0.0294
 4591TIP3    H135408   3.756   3.519   7.956  0.5313 -0.3130 -0.0621
 4591TIP3    H235409   3.736   3.552   7.810  0.7881 -0.3619 -0.1091
 4592TIP3   OH235410   5.430   4.529   0.150  0.0795 -0.0886 -0.0297
 4592TIP3    H135411   5.503   4.525   0.213 -0.9305 -2.3043  1.0834
 4592TIP3    H235412   5.459   4.475   0.077  0.3861  0.7560 -0.5429
 4593TIP3   OH235413   2.558   5.291   0.695 -0.8576  0.5344  0.1859
 4593TIP3    H135414   2.466   5.266   0.695 -0.7052 -0.0266 -0.0343
 4593TIP3    H235415   2.592   5.256   0.777 -0.2266 -1.5797 -0.9020
 4594TIP3   OH235416   4.231   2.666   0.611 -0.0585  0.2040  0.3046
 4594TIP3    H135417   4.279   2.610   0.549  1.1062  0.6983  0.7257
 4594TIP3    H235418   4.189   2.604   0.671  0.5525 -0.2523  0.2786
 4595TIP3   OH235419   6.488   3.021   1.001  0.2789  0.5932  0.3956
 4595TIP3    H135420   6.425   3.052   1.066 -0.2049 -1.1984  0.8265
 4595TIP3    H235421   6.440   3.021   0.919 -0.2412 -0.5874  0.6903
 4596TIP3   OH235422   2.226   2.096   8.207 -0.1032  0.2807  0.1688
 4596TIP3    H135423   2.257   2.186   8.214  2.0342 -0.3906  0.2262
 4596TIP3    H235424   2.228   2.064   8.297  1.4184 -0.4632 -0.0905
 4597TIP3   OH235425   0.500   1.081   1.003 -0.0372 -0.1066 -0.3213
 4597TIP3    H135426   0.592   1.097   0.983  0.2308 -0.4364  0.6075
 4597TIP3    H235427   0.466   1.038   0.924  0.7282 -0.4448 -0.4760
 4598TIP3   OH235428   2.258   5.565   0.405  0.4043 -0.4198 -0.5400
 4598TIP3    H135429   2.168   5.570   0.372  0.0503  1.3462  0.5693
 4598TIP3    H235430   2.251   5.589   0.498  2.3521  3.0265 -1.1099
 4599TIP3   OH235431   6.705   6.669   0.852  0.3351  0.3270  0.3193
 4599TIP3    H135432   6.701   6.714   0.768  1.7045  1.5921  0.8920
 4599TIP3    H235433   6.746   6.732   0.911 -1.7070 -0.0460  2.2899
 4600TIP3   OH235434   5.546   6.064   7.714  0.2962  0.1236 -0.1620
 4600TIP3    H135435   5.573   6.138   7.768 -0.1519  0.2495 -0.1092
 4600TIP3    H235436   5.538   5.990   7.775  3.2072 -0.6419 -0.5557
 4601TIP3   OH235437   0.209   3.628   7.618 -0.1845 -0.5910  1.1732
 4601TIP3    H135438   0.238   3.582   7.539 -0.9284 -0.6479  0.9213
 4601TIP3    H235439   0.134   3.578   7.649 -1.2024  0.5840  0.7299
 4602TIP3   OH235440   4.527   2.845   7.002  0.4178 -0.3179  0.2286
 4602TIP3    H135441   4.583   2.838   7.080 -0.3724 -0.0342  0.8254
 4602TIP3    H235442   4.438   2.841   7.035  0.0544  0.4442 -0.6018
 4603TIP3   OH235443   1.185   5.155   1.630 -0.3086 -0.5784  0.5244
 4603TIP3    H135444   1.138   5.094   1.687  0.7899 -0.9286  1.0871
 4603TIP3    H235445   1.248   5.099   1.583  0.3563  0.0474  0.6608
 4604TIP3   OH235446   5.783   0.876   7.446  0.5443 -0.5618  0.2023
 4604TIP3    H135447   5.788   0.862   7.541  0.9397  1.2105  0.4728
 4604TIP3    H235448   5.874   0.881   7.418  0.4301 -1.3263 -0.3270
 4605TIP3   OH235449   2.752   4.965   0.099  0.1798  0.2902 -0.1126
 4605TIP3    H135450   2.825   5.017   0.132  0.4546 -1.2510  1.8790
 4605TIP3    H235451   2.793   4.886   0.064 -0.5004 -0.3810  0.5837
 4606TIP3   OH235452   0.877   6.333   7.149 -0.4049 -0.0758  0.1688
 4606TIP3    H135453   0.967   6.304   7.134  0.2752  1.8410  0.3268
 4606TIP3    H235454   0.878   6.427   7.131 -2.6891 -0.2104 -1.1316
 4607TIP3   OH235455   1.426   6.849   6.636 -0.1413 -0.2297 -0.1422
 4607TIP3    H135456   1.333   6.833   6.618 -0.1278  0.1045 -0.5300
 4607TIP3    H235457   1.462   6.762   6.654 -0.2865 -0.5285 -1.1820
 4608TIP3   OH235458   0.594   4.415   6.896  0.2499 -0.1284  0.1220
 4608TIP3    H135459   0.687   4.394   6.882  0.4703 -1.5962  2.9767
 4608TIP3    H235460   0.580   4.496   6.848  2.5076 -0.8354 -1.9329
 4609TIP3   OH235461   1.379   1.044   7.789 -0.3043  0.3902 -0.2180
 4609TIP3    H135462   1.337   1.090   7.717 -0.8923 -0.8490 -0.6928
 4609TIP3    H235463   1.470   1.036   7.763 -0.4704  0.1377 -0.7339
 4610TIP3   OH235464   4.047   0.007   8.203 -0.2640  0.3309 -0.4127
 4610TIP3    H135465   4.092   0.091   8.206 -0.0857  0.2465 -0.6757
 4610TIP3    H235466   3.959   0.028   8.172 -0.5218  0.5440  0.4550
 4611TIP3   OH235467   5.858   1.154   1.355  0.3614 -0.2544 -0.6603
 4611TIP3    H135468   5.883   1.246   1.366 -2.0488  0.7096 -2.4826
 4611TIP3    H235469   5.781   1.143   1.410 -0.5021 -0.6102 -1.9009
 4612TIP3   OH235470   3.341   1.883   6.983 -0.5118  0.0558  0.0815
 4612TIP3    H135471   3.256   1.896   7.025 -0.0677 -1.9221  1.7116
 4612TIP3    H235472   3.401   1.938   7.033 -0.1699 -1.5188  1.4677
 4613TIP3   OH235473   0.325   6.318   5.925 -0.3395 -0.7007  0.0374
 4613TIP3    H135474   0.336   6.375   5.848 -1.9540  0.1817  0.4085
 4613TIP3    H235475   0.282   6.240   5.891  0.4050 -1.0198 -0.2004
 4614TIP3   OH235476   6.452   1.310   7.206  0.2998 -0.4274 -0.2690
 4614TIP3    H135477   6.449   1.303   7.301  1.9229  0.7825 -0.0797
 4614TIP3    H235478   6.442   1.221   7.175 -0.3581 -0.8284  1.0281
 4615TIP3   OH235479   6.594   0.500   0.817  0.1254  0.4666 -0.1586
 4615TIP3    H135480   6.518   0.548   0.784  0.6949  1.0868 -0.5924
 4615TIP3    H235481   6.567   0.408   0.813 -2.1072  0.7606  3.4665
 4616TIP3   OH235482   1.889   1.157   7.274 -0.0152 -0.1464 -0.3550
 4616TIP3    H135483   1.981   1.129   7.279  0.0451  0.0552 -0.3302
 4616TIP3    H235484   1.878   1.187   7.184 -0.5575 -1.8917 -0.9199
 4617TIP3   OH235485   4.935   6.177   8.169 -0.3300 -0.0950 -0.3626
 4617TIP3    H135486   4.966   6.127   8.093 -1.0227 -2.9867  1.0958
 4617TIP3    H235487   4.861   6.126   8.203 -0.9986  1.8887  1.3982
 4618TIP3   OH235488   6.152   2.874   7.464  0.7489 -0.1259 -0.0268
 4618TIP3    H135489   6.073   2.821   7.453 -0.0405  1.2661 -1.2503
 4618TIP3    H235490   6.122   2.954   7.505  1.6653  0.1032  0.2224
 4619TIP3   OH235491   4.553   3.112   8.154 -0.2748  0.1708  0.3567
 4619TIP3    H135492   4.472   3.160   8.135  0.8243  1.7852 -0.5817
 4619TIP3    H235493   4.605   3.121   8.074  0.8216 -0.8653  0.9208
 4620TIP3   OH235494   3.424   3.509   6.963 -0.3677  0.4048  0.0512
 4620TIP3    H135495   3.388   3.589   6.925 -3.7454 -1.8058 -1.9420
 4620TIP3    H235496   3.405   3.516   7.056 -0.7744  1.8082 -0.1067
 4621TIP3   OH235497   3.521   6.566   7.648  0.1380 -0.5508  0.1619
 4621TIP3    H135498   3.430   6.551   7.623  0.4647 -0.5594 -1.1124
 4621TIP3    H235499   3.545   6.488   7.698 -0.6905 -0.3094  0.9748
 4622TIP3   OH235500   6.780   6.790   2.122 -0.3252  0.3198 -0.4405
 4622TIP3    H135501   6.806   6.828   2.206  1.4201  0.0125 -0.7887
 4622TIP3    H235502   6.733   6.710   2.145  0.4936  0.0181  0.2687
 4623TIP3   OH235503   5.893   3.436   0.104  0.4968 -0.3316 -0.4290
 4623TIP3    H135504   5.956   3.409   0.037  0.9443  0.8505 -0.4938
 4623TIP3    H235505   5.824   3.481   0.055 -0.0047 -0.9014 -0.2637
 4624TIP3   OH235506   5.584   5.421   6.974 -0.6100 -0.1867 -0.1013
 4624TIP3    H135507   5.668   5.465   6.961 -0.6997  0.2886  0.9026
 4624TIP3    H235508   5.540   5.427   6.888  0.0116  0.3192 -0.3896
 4625TIP3   OH235509   5.147   3.540   7.964 -0.4734 -0.0622 -0.3485
 4625TIP3    H135510   5.196   3.458   7.978  2.1214  1.4088 -0.0929
 4625TIP3    H235511   5.215   3.606   7.948 -2.3578  2.3487  0.9103
 4626TIP3   OH235512   3.535   5.369   6.730  0.9631 -0.0643 -0.1080
 4626TIP3    H135513   3.622   5.329   6.721  0.9082 -0.3020  0.3677
 4626TIP3    H235514   3.545   5.456   6.693  0.7337 -0.9624 -2.4593
 4627TIP3   OH235515   0.250   2.051   2.004 -0.7008  0.6732 -0.2746
 4627TIP3    H135516   0.320   1.987   2.016  0.3054  1.9565  1.2262
 4627TIP3    H235517   0.172   1.999   1.984  0.1030 -1.0100  0.7370
 4628TIP3   OH235518   0.981   3.644   0.019 -0.2323 -0.3416  0.1650
 4628TIP3    H135519   0.926   3.706   0.066 -2.7006 -2.2711  0.0506
 4628TIP3    H235520   0.985   3.567   0.076  2.5120 -0.2686  0.2052
 4629TIP3   OH235521   3.452   4.612   7.683  0.2716 -0.1355  0.1038
 4629TIP3    H135522   3.530   4.557   7.689 -0.2577 -0.7355  2.7653
 4629TIP3    H235523   3.379   4.550   7.677 -0.0998  0.4075 -1.4460
 4630TIP3   OH235524   1.368   4.448   0.278  0.4691 -0.5610 -0.6828
 4630TIP3    H135525   1.310   4.522   0.293  1.8437  0.4291 -0.0448
 4630TIP3    H235526   1.311   4.371   0.283 -0.8758  0.4071 -0.7365
 4631TIP3   OH235527   1.635   3.709   8.079  0.4471 -1.1059 -0.9385
 4631TIP3    H135528   1.698   3.641   8.058  2.3511 -0.0804  1.0543
 4631TIP3    H235529   1.687   3.780   8.116 -1.5329  1.1626 -2.1863
 4632TIP3   OH235530   1.881   5.192   0.791  0.2268 -0.3881  0.1270
 4632TIP3    H135531   1.797   5.151   0.812  0.2586 -0.0841  0.8764
 4632TIP3    H235532   1.866   5.285   0.806  0.7354 -0.3465  0.3935
 4633TIP3   OH235533   0.576   6.983   7.906 -0.2418  0.0890  0.4909
 4633TIP3    H135534   0.664   6.989   7.944 -0.4786  1.0415  0.9269
 4633TIP3    H235535   0.524   6.936   7.972 -0.6904  1.8780  1.4674
 4634TIP3   OH235536   1.659   4.989   0.575 -0.3449  0.7106  0.1637
 4634TIP3    H135537   1.700   5.009   0.491 -0.3960  0.9440  0.1937
 4634TIP3    H235538   1.723   4.935   0.621 -1.2920 -1.5645 -1.0147
 4635TIP3   OH235539   3.547   6.559   5.814  0.3029 -0.1727 -0.5074
 4635TIP3    H135540   3.484   6.499   5.774  0.5512 -1.0143  0.3327
 4635TIP3    H235541   3.626   6.507   5.828  1.2852  0.9290 -1.7386
 4636TIP3   OH235542   4.788   1.932   7.592 -0.3126  0.1271  0.3426
 4636TIP3    H135543   4.718   1.997   7.591 -1.4049 -1.0138 -0.8072
 4636TIP3    H235544   4.844   1.956   7.518 -2.7855 -2.2671 -2.5837
 4637TIP3   OH235545   4.675   3.602   7.018  0.1657  0.5288 -0.3716
 4637TIP3    H135546   4.745   3.666   7.005  0.6478  0.0258 -0.2991
 4637TIP3    H235547   4.642   3.585   6.929  1.2544 -0.4585 -0.6125
 4638TIP3   OH235548   3.380   3.169   2.162 -0.1597 -0.2293 -0.2548
 4638TIP3    H135549   3.296   3.142   2.199 -0.3480  1.7346  0.9025
 4638TIP3    H235550   3.378   3.265   2.167  3.3781 -0.1353  2.6771
 4639TIP3   OH235551   4.259   4.236   7.196 -0.2492  0.5821 -0.2658
 4639TIP3    H135552   4.199   4.299   7.156  0.5470  2.5430  1.4337
 4639TIP3    H235553   4.330   4.226   7.133 -0.4155  1.3709 -0.5882
 4640TIP3   OH235554   2.532   1.821   6.057 -0.2780  0.3180 -0.5644
 4640TIP3    H135555   2.470   1.845   6.126  0.4064 -0.4748  0.3394
 4640TIP3    H235556   2.543   1.726   6.066  1.3580  0.4881 -0.4441
 4641TIP3   OH235557   4.028   3.351   0.365 -0.5092 -0.9309 -0.1488
 4641TIP3    H135558   4.036   3.330   0.272 -0.7782 -2.1372  0.0872
 4641TIP3    H235559   4.112   3.326   0.402  0.0445  0.6627 -0.2402
 4642TIP3   OH235560   1.312   2.409   8.263  0.5383  0.0319 -0.0277
 4642TIP3    H135561   1.226   2.368   8.275  0.5606  0.3259  1.2941
 4642TIP3    H235562   1.368   2.366   8.327  0.8643  1.2300  0.5168
 4643TIP3   OH235563   6.744   2.729   7.206 -0.2496 -0.1312 -0.6028
 4643TIP3    H135564   6.754   2.662   7.137  0.3494  0.0107 -0.6614
 4643TIP3    H235565   6.772   2.685   7.286 -1.0252 -0.3212 -0.4301
 4644TIP3   OH235566   1.773   0.340   7.933  0.6418  0.2085 -0.8664
 4644TIP3    H135567   1.710   0.403   7.966  0.6454  0.6443 -1.6580
 4644TIP3    H235568   1.741   0.255   7.962  0.1633  0.5029 -0.5321
 4645TIP3   OH235569   2.557   1.735   0.185 -0.0845  0.1404 -0.1650
 4645TIP3    H135570   2.510   1.785   0.251 -0.1034 -0.6675  0.4480
 4645TIP3    H235571   2.492   1.717   0.117 -0.7184 -1.1076  0.7518
 4646TIP3   OH235572   5.740   5.796   6.367 -0.3584  0.0166  0.1000
 4646TIP3    H135573   5.674   5.727   6.358  0.5168 -0.7038 -0.9957
 4646TIP3    H235574   5.744   5.813   6.461 -0.9732 -1.0394  0.3325
 4647TIP3   OH235575   3.981   3.935   0.809 -0.4266  0.4777  0.3274
 4647TIP3    H135576   3.906   3.913   0.865  0.8786  2.0749  2.8662
 4647TIP3    H235577   3.989   3.860   0.749 -2.3602 -0.9875  1.7743
 4648TIP3   OH235578   1.129   4.640   5.582 -0.5024 -0.1728 -0.2185
 4648TIP3    H135579   1.090   4.643   5.494 -0.6159  2.2882 -0.1611
 4648TIP3    H235580   1.191   4.568   5.578 -2.4092 -1.8365 -1.4629
 4649TIP3   OH235581   5.321   6.786   1.023  0.1704  0.4888  0.4604
 4649TIP3    H135582   5.315   6.831   1.107  0.3692  2.4031 -0.4833
 4649TIP3    H235583   5.306   6.855   0.958 -0.6009 -1.0504 -1.0676
 4650TIP3   OH235584   1.499   5.523   7.552 -0.8838 -0.6738  0.6705
 4650TIP3    H135585   1.471   5.561   7.635 -3.6253 -1.2722  0.1044
 4650TIP3    H235586   1.481   5.592   7.487  1.0993 -0.2615  0.4799
 4651TIP3   OH235587   3.754   2.416   7.602 -0.2665  0.3651  0.4127
 4651TIP3    H135588   3.677   2.370   7.567  1.4731 -0.2668 -3.1029
 4651TIP3    H235589   3.779   2.366   7.679 -1.3821 -1.5844 -0.4159
 4652TIP3   OH235590   4.970   0.154   7.912  0.3225 -0.7801 -0.2992
 4652TIP3    H135591   4.936   0.069   7.884  2.0037 -1.2087 -1.1710
 4652TIP3    H235592   5.058   0.159   7.873  0.8851  0.6691  1.0399
 4653TIP3   OH235593   4.791   3.989   7.709 -0.1796 -0.6385  0.0457
 4653TIP3    H135594   4.866   3.950   7.754  0.1557  1.2608  1.2301
 4653TIP3    H235595   4.723   3.995   7.776 -0.5955 -0.2271 -0.4066
 4654TIP3   OH235596   2.630   3.135   7.161  0.8815  0.0911 -0.0674
 4654TIP3    H135597   2.538   3.107   7.160  0.7489  0.5330 -0.4013
 4654TIP3    H235598   2.676   3.065   7.208  0.4048 -0.2238 -0.0662
 4655TIP3   OH235599   5.076   1.930   6.516 -1.1216 -0.1245  0.5527
 4655TIP3    H135600   5.016   1.946   6.443  1.3555 -0.6187 -1.7298
 4655TIP3    H235601   5.133   1.859   6.487  1.1495  0.8762  2.2018
 4656TIP3   OH235602   3.175   4.909   6.945  0.4564 -0.1984 -0.0397
 4656TIP3    H135603   3.197   4.885   6.855 -1.4496 -3.4060  0.2166
 4656TIP3    H235604   3.170   4.826   6.992  0.6785  1.3109  2.9236
 4657TIP3   OH235605   2.017   4.638   0.748 -0.2811  0.1969  0.2818
 4657TIP3    H135606   2.082   4.568   0.755  0.8686  1.4052  2.7611
 4657TIP3    H235607   1.976   4.641   0.834 -1.0980  1.8165 -0.1419
 4658TIP3   OH235608   4.515   2.858   2.439 -0.0881 -0.1965  0.2036
 4658TIP3    H135609   4.550   2.947   2.439  0.7552 -0.4830 -1.4108
 4658TIP3    H235610   4.464   2.852   2.358  1.9101 -1.8975 -1.0115
 4659TIP3   OH235611   4.516   0.187   7.775 -0.3598  0.1977  0.3544
 4659TIP3    H135612   4.602   0.199   7.735  0.1074  1.1865  1.5769
 4659TIP3    H235613   4.456   0.239   7.721 -0.3010 -0.8844 -0.7845
 4660TIP3   OH235614   6.823   1.950   1.351  0.5084  0.2661  0.5503
 4660TIP3    H135615   6.854   1.889   1.285 -0.9033  0.6898 -0.5688
 4660TIP3    H235616   6.728   1.955   1.337  0.1449  0.3271  2.6637
 4661TIP3   OH235617   0.922   6.943   7.486  0.2532 -0.1031 -0.3331
 4661TIP3    H135618   0.856   7.008   7.460 -0.9089 -0.4973  1.4377
 4661TIP3    H235619   0.924   6.880   7.414 -2.1137 -0.6555  0.0066
 4662TIP3   OH235620   3.065   2.543   6.499 -0.3466  0.1139 -0.3664
 4662TIP3    H135621   3.127   2.480   6.536 -0.4166  0.8047  0.9766
 4662TIP3    H235622   2.995   2.488   6.461  1.7878 -0.7637 -3.4263
 4663TIP3   OH235623   2.799   1.826   1.527  0.2009 -0.0737 -0.7320
 4663TIP3    H135624   2.851   1.864   1.598 -0.1220  0.9522 -1.0264
 4663TIP3    H235625   2.722   1.884   1.521 -1.3755 -1.9395  0.1920
 4664TIP3   OH235626   5.957   0.298   1.588 -0.0294 -0.0831 -0.5402
 4664TIP3    H135627   5.864   0.312   1.607  0.1765  1.8947 -0.7108
 4664TIP3    H235628   6.000   0.377   1.623  1.6605 -1.1837 -0.0117
 4665TIP3   OH235629   5.329   6.151   8.136 -0.1251  0.3819 -1.1037
 4665TIP3    H135630   5.298   6.061   8.131  0.8399 -0.0827  0.4522
 4665TIP3    H235631   5.424   6.145   8.127 -0.1057  1.3194 -1.6690
 4666TIP3   OH235632   3.200   3.333   0.621 -0.0487 -0.1874  0.2517
 4666TIP3    H135633   3.131   3.372   0.675  0.2922  0.8647 -0.0412
 4666TIP3    H235634   3.156   3.308   0.540 -0.6701 -2.2282  1.1416
 4667TIP3   OH235635   3.005   1.236   2.447 -0.5704  0.4138 -0.2582
 4667TIP3    H135636   3.006   1.141   2.457  1.0403  0.3184 -0.9676
 4667TIP3    H235637   3.005   1.250   2.352  0.8319  1.0846 -0.1828
 4668TIP3   OH235638   4.650   6.477   1.181  0.2521 -0.9357  0.3587
 4668TIP3    H135639   4.565   6.517   1.160 -0.1669 -0.0616  3.2825
 4668TIP3    H235640   4.627   6.395   1.225  0.8037 -0.1185  2.2803
 4669TIP3   OH235641   0.123   4.171   6.741 -0.4040 -0.0074  0.1334
 4669TIP3    H135642   0.176   4.236   6.787 -0.2339 -0.8421  1.1660
 4669TIP3    H235643   0.035   4.183   6.776 -0.7103  0.7095 -0.8451
 4670TIP3   OH235644   6.007   6.089   7.979 -0.2355  0.0664 -0.0812
 4670TIP3    H135645   6.086   6.085   7.926  0.3924 -0.3405  0.8532
 4670TIP3    H235646   5.978   5.997   7.985  0.1964 -0.0143  0.9830
 4671TIP3   OH235647   0.609   5.705   0.250 -0.4379  0.3109 -0.0129
 4671TIP3    H135648   0.513   5.713   0.247 -0.3647  1.7009  0.6214
 4671TIP3    H235649   0.625   5.631   0.309 -1.1196  2.5187  3.1578
 4672TIP3   OH235650   0.849   4.967   1.905 -0.2905  0.5548  0.2868
 4672TIP3    H135651   0.819   5.050   1.867 -0.4576  0.3634  0.0011
 4672TIP3    H235652   0.774   4.908   1.896  0.3874 -0.1345 -1.0511
 4673TIP3   OH235653   3.737   5.500   1.742 -0.4216  0.0872 -0.1991
 4673TIP3    H135654   3.722   5.519   1.650  1.7722  1.2003 -0.3985
 4673TIP3    H235655   3.763   5.584   1.780  2.0577 -0.9688  0.6477
 4674TIP3   OH235656   2.719   2.001   0.988 -0.0587 -0.4400 -0.2007
 4674TIP3    H135657   2.790   1.958   0.939 -0.8484 -1.3477 -0.5654
 4674TIP3    H235658   2.757   2.017   1.074  1.2756  0.9643 -0.9854
 4675TIP3   OH235659   4.910   1.404   0.107 -0.0825  0.2302 -0.0287
 4675TIP3    H135660   4.883   1.459   0.181 -0.1139 -0.1585  0.2481
 4675TIP3    H235661   4.958   1.332   0.147  1.1002  0.7439 -0.5013
 4676TIP3   OH235662   0.365   3.660   0.562  0.3418 -0.1398  0.6782
 4676TIP3    H135663   0.320   3.730   0.514  2.0276 -0.7563 -1.9969
 4676TIP3    H235664   0.455   3.692   0.571  0.8545 -1.4692  0.4278
 4677TIP3   OH235665   5.148   0.270   7.569  0.5300 -0.2971  0.4118
 4677TIP3    H135666   5.229   0.270   7.519  0.7827 -0.6564  0.8132
 4677TIP3    H235667   5.081   0.246   7.505  0.9069 -1.1680  0.3305
 4678TIP3   OH235668   5.001   1.711   0.299 -0.2879  0.3478 -0.1331
 4678TIP3    H135669   5.050   1.789   0.326  1.7911 -0.7629 -0.5506
 4678TIP3    H235670   5.064   1.659   0.249 -1.6963 -1.5018 -0.0644
 4679TIP3   OH235671   4.514   5.518   6.156 -0.2166  0.4191 -0.1387
 4679TIP3    H135672   4.420   5.528   6.169 -0.2857  2.8583 -1.8407
 4679TIP3    H235673   4.552   5.602   6.182  1.2450  0.1876 -1.3322
 4680TIP3   OH235674   3.612   1.738   1.453  0.2706 -0.0267  0.6313
 4680TIP3    H135675   3.601   1.673   1.523  1.9136  0.6101  1.5161
 4680TIP3    H235676   3.669   1.805   1.490  2.0001 -0.1279 -1.5985
 4681TIP3   OH235677   1.553   1.887   7.199 -0.0529 -0.3380 -0.6463
 4681TIP3    H135678   1.469   1.852   7.169 -0.9715 -0.7530  2.1151
 4681TIP3    H235679   1.598   1.812   7.237  0.3846  0.3861  0.3053
 4682TIP3   OH235680   5.097   6.790   0.356  0.2985 -0.0956  0.3826
 4682TIP3    H135681   5.111   6.708   0.403 -1.6268 -1.2466 -0.9093
 4682TIP3    H235682   5.130   6.858   0.415 -0.1845 -1.6057  2.5072
 4683TIP3   OH235683   1.725   1.130   6.092 -0.7093 -0.3399 -0.0324
 4683TIP3    H135684   1.762   1.121   6.180  0.8749 -2.2518 -0.8245
 4683TIP3    H235685   1.700   1.041   6.067 -1.6418  0.2532 -1.3354
 4684TIP3   OH235686   6.790   5.093   1.500  0.3785 -0.1953  0.2927
 4684TIP3    H135687   6.762   5.025   1.439 -0.3671  0.6765 -0.3433
 4684TIP3    H235688   6.745   5.071   1.582  0.4889 -0.7135  0.2189
 4685TIP3   OH235689   6.033   3.140   6.584  0.1801  0.5388  0.5772
 4685TIP3    H135690   6.100   3.081   6.548 -0.8299 -0.2201 -0.1416
 4685TIP3    H235691   6.051   3.142   6.678  0.7663 -0.2578  0.4971
 4686TIP3   OH235692   6.000   2.890   0.214 -0.1450  1.1806 -0.6362
 4686TIP3    H135693   5.942   2.953   0.170 -0.7792  1.2637  0.2715
 4686TIP3    H235694   6.026   2.935   0.295  0.2896  0.6997 -0.5076
 4687TIP3   OH235695   1.593   3.133   7.830  0.0020 -0.3946 -0.1560
 4687TIP3    H135696   1.567   3.151   7.739  0.3625  0.7132 -0.0588
 4687TIP3    H235697   1.519   3.165   7.882 -0.7100 -2.0574 -0.0738
 4688TIP3   OH235698   0.530   2.454   0.590  0.4417 -0.1104  0.7151
 4688TIP3    H135699   0.583   2.533   0.595 -0.7083  0.7625 -0.3159
 4688TIP3    H235700   0.512   2.443   0.496 -1.3253 -0.2711  1.0389
 4689TIP3   OH235701   1.210   4.798   6.399  0.2865  0.7022 -0.3835
 4689TIP3    H135702   1.245   4.870   6.346 -2.1397  1.5978 -0.8971
 4689TIP3    H235703   1.221   4.828   6.489 -0.1024  1.4415 -0.5727
 4690TIP3   OH235704   6.912   6.228   1.543  0.2239  0.0196 -0.1595
 4690TIP3    H135705   6.913   6.180   1.460 -1.2654 -0.7394  0.2294
 4690TIP3    H235706   6.957   6.311   1.523  1.0657 -0.6958 -1.3595
 4691TIP3   OH235707   4.387   1.241   6.415 -0.1997 -0.2485 -0.1995
 4691TIP3    H135708   4.388   1.151   6.449 -0.4828 -0.5171 -0.8765
 4691TIP3    H235709   4.355   1.294   6.489 -2.6699 -1.0699 -0.5586
 4692TIP3   OH235710   3.465   2.567   5.730  0.3910 -0.3992  0.0728
 4692TIP3    H135711   3.553   2.596   5.756 -0.0848  1.2873 -0.0635
 4692TIP3    H235712   3.406   2.615   5.788 -0.5542  1.0699 -1.9740
 4693TIP3   OH235713   0.338   3.296   0.490  0.2361  0.4991 -0.2969
 4693TIP3    H135714   0.256   3.332   0.522  0.3727 -0.5642  1.3418
 4693TIP3    H235715   0.317   3.261   0.403 -0.3189  2.7942 -1.1329
 4694TIP3   OH235716   1.044   6.022   8.028 -0.1345  0.1225 -0.5260
 4694TIP3    H135717   1.075   5.990   7.943 -0.4503 -1.8830  0.0527
 4694TIP3    H235718   0.949   6.019   8.022 -0.1580 -0.1483 -0.0664
 4695TIP3   OH235719   3.148   3.474   6.684  0.1641  0.1164  0.0747
 4695TIP3    H135720   3.061   3.504   6.659  1.0001  0.2229 -3.1725
 4695TIP3    H235721   3.132   3.400   6.743 -2.0898  0.4343 -0.0395
 4696TIP3   OH235722   1.356   4.848   6.684 -0.0179  0.2317 -0.0514
 4696TIP3    H135723   1.410   4.925   6.704  0.4502  0.5946 -2.3972
 4696TIP3    H235724   1.275   4.862   6.734  1.1860  0.7298  1.8902
 4697TIP3   OH235725   4.853   3.389   7.384 -0.3432 -0.3987  0.2405
 4697TIP3    H135726   4.822   3.345   7.305  1.8941 -0.9349 -0.4065
 4697TIP3    H235727   4.894   3.470   7.353  0.0423 -0.3320  0.8867
 4698TIP3   OH235728   0.555   3.894   0.848  0.1546 -0.0764 -0.1481
 4698TIP3    H135729   0.529   3.979   0.884 -1.6147 -0.4146 -0.5496
 4698TIP3    H235730   0.595   3.848   0.922 -0.2797  0.5278  0.4779
 4699TIP3   OH235731   2.303   4.842   6.261  0.3242  0.0483 -0.2863
 4699TIP3    H135732   2.236   4.897   6.300  1.4162  0.8753  0.4808
 4699TIP3    H235733   2.362   4.903   6.218  0.8486 -0.6199 -0.5286
 4700TIP3   OH235734   1.451   4.222   6.956 -0.1885  0.0840  0.0570
 4700TIP3    H135735   1.519   4.219   6.889 -0.9697 -1.1077 -0.7208
 4700TIP3    H235736   1.469   4.302   7.005  2.5392 -0.8050  0.6931
 4701TIP3   OH235737   6.910   2.077   8.103  0.0312 -0.8138  0.3945
 4701TIP3    H135738   6.859   2.138   8.156  0.5342  1.0341 -1.1323
 4701TIP3    H235739   6.974   2.040   8.164 -1.1737 -0.8962  1.6532
 4702TIP3   OH235740   4.145   1.398   0.396 -0.2443 -0.2370  0.2371
 4702TIP3    H135741   4.174   1.308   0.379 -1.5393 -0.4560 -0.9934
 4702TIP3    H235742   4.209   1.452   0.350 -0.6342 -0.6347 -0.8109
 4703TIP3   OH235743   0.215   5.714   6.680 -0.2182  0.3303  0.1507
 4703TIP3    H135744   0.122   5.699   6.666  0.1294 -0.5544 -1.5745
 4703TIP3    H235745   0.221   5.749   6.769 -2.3000  1.6654 -0.1701
 4704TIP3   OH235746   0.543   1.439   8.115  0.1496  0.3764  0.2380
 4704TIP3    H135747   0.568   1.492   8.039 -2.9299  0.5912 -0.7434
 4704TIP3    H235748   0.554   1.349   8.086 -0.4873  0.4611 -0.2759
 4705TIP3   OH235749   3.909   6.587   1.093 -0.1753  0.0772 -0.1063
 4705TIP3    H135750   3.979   6.648   1.068  0.3663 -0.5234 -0.0696
 4705TIP3    H235751   3.828   6.634   1.071  0.1916  1.2428  0.8963
 4706TIP3   OH235752   6.290   1.063   7.441  0.2657 -0.1857  0.1577
 4706TIP3    H135753   6.254   1.089   7.357 -0.7482  0.4284  0.7578
 4706TIP3    H235754   6.360   1.126   7.458 -0.8133  0.9319  0.6475
 4707TIP3   OH235755   7.054   0.075   0.716  0.0092  0.2185 -0.3398
 4707TIP3    H135756   7.093  -0.001   0.671 -0.2316  1.2915 -2.5367
 4707TIP3    H235757   6.967   0.083   0.677 -1.5381 -0.5928  2.6579
 4708TIP3   OH235758   2.176   4.804   6.746 -0.2460  0.5353  0.1699
 4708TIP3    H135759   2.173   4.712   6.771 -0.9185 -0.2179 -2.3741
 4708TIP3    H235760   2.085   4.832   6.745 -0.3107  0.4003 -1.6282
 4709TIP3   OH235761   0.562   2.895   1.228  0.5880 -0.3780  0.4052
 4709TIP3    H135762   0.502   2.953   1.181  0.6433 -0.5601  0.1037
 4709TIP3    H235763   0.510   2.817   1.247  0.0429  0.3713  2.1925
 4710TIP3   OH235764   2.191   5.938   0.575 -0.4528  0.2545 -0.0526
 4710TIP3    H135765   2.233   5.853   0.587 -0.9057 -0.0106 -0.2863
 4710TIP3    H235766   2.183   5.974   0.663 -1.0477 -0.3389  0.1481
 4711TIP3   OH235767   2.638   5.211   6.479 -0.0631  0.3498 -0.1137
 4711TIP3    H135768   2.687   5.241   6.402  0.7972 -0.8421 -0.0576
 4711TIP3    H235769   2.625   5.290   6.532 -2.0495  1.5346 -2.1715
 4712TIP3   OH235770   6.929   4.984   1.172  0.3275  0.0128 -0.7374
 4712TIP3    H135771   6.950   4.896   1.204 -1.1902 -0.0073  0.3167
 4712TIP3    H235772   6.842   4.975   1.133 -0.4949  1.3055  0.6664
 4713TIP3   OH235773   4.308   0.766   1.027 -0.0246 -0.1753 -0.7498
 4713TIP3    H135774   4.214   0.773   1.007  0.0206 -1.4985 -1.4715
 4713TIP3    H235775   4.310   0.751   1.122 -0.7074 -2.5244 -1.0423
 4714TIP3   OH235776   1.455   4.089   2.073 -0.2084 -0.2847 -0.3212
 4714TIP3    H135777   1.389   4.068   2.139  0.8771 -1.4118  0.4647
 4714TIP3    H235778   1.445   4.021   2.006  1.1629 -1.4409  0.5964
 4715TIP3   OH235779   1.655   0.240   7.319  0.5134  0.2388  0.0365
 4715TIP3    H135780   1.701   0.299   7.260  2.5015 -0.0440  1.2326
 4715TIP3    H235781   1.718   0.220   7.387 -0.7337 -1.8011  0.6741
 4716TIP3   OH235782   5.807   0.876   0.187 -0.3061  0.5055 -0.1734
 4716TIP3    H135783   5.832   0.832   0.106  0.7803 -1.3166  1.0844
 4716TIP3    H235784   5.888   0.919   0.216  0.4843 -2.1661  1.9211
 4717TIP3   OH235785   1.859   0.052   0.297  0.0704  0.8823 -0.0408
 4717TIP3    H135786   1.904   0.106   0.232  1.9789  2.3650  2.3256
 4717TIP3    H235787   1.781   0.102   0.321 -0.1412  0.7804 -0.5135
 4718TIP3   OH235788   2.660   1.858   1.798 -0.4421 -0.2114  0.6091
 4718TIP3    H135789   2.749   1.880   1.770 -0.8697  0.2020 -0.4760
 4718TIP3    H235790   2.644   1.913   1.874 -0.7694  1.8826 -0.8804
 4719TIP3   OH235791   4.864   2.792   7.078  0.2492  0.7404  0.1607
 4719TIP3    H135792   4.833   2.853   7.011  1.0751  0.4530 -0.4823
 4719TIP3    H235793   4.828   2.707   7.052  1.4902  0.4131 -0.5598
 4720TIP3   OH235794   2.358   0.872   0.483  0.1066  0.0718 -0.3973
 4720TIP3    H135795   2.394   0.925   0.412  1.8440 -0.8459 -0.2474
 4720TIP3    H235796   2.382   0.782   0.462  1.2781 -0.1694  1.6377
 4721TIP3   OH235797   5.645   4.191   7.099 -0.0773 -0.2823  0.0807
 4721TIP3    H135798   5.624   4.284   7.087  0.5449 -0.2733 -0.9718
 4721TIP3    H235799   5.583   4.162   7.167  0.0838  1.0202  0.8173
 4722TIP3   OH235800   5.017   1.154   0.232  1.0659  0.3764  0.0861
 4722TIP3    H135801   5.050   1.073   0.192  0.5548  0.0013  0.4132
 4722TIP3    H235802   5.089   1.183   0.289  0.9470 -0.2847  0.5815
 4723TIP3   OH235803   2.878   5.573   6.499 -0.1214  0.5532 -0.1566
 4723TIP3    H135804   2.861   5.625   6.420 -0.6028  2.6149  1.2468
 4723TIP3    H235805   2.907   5.636   6.564 -0.3712 -0.9915  1.5385
 4724TIP3   OH235806   0.982   5.437   1.323  0.3622  0.1125 -0.2537
 4724TIP3    H135807   0.950   5.445   1.412  1.6259  1.2826  0.1153
 4724TIP3    H235808   1.013   5.524   1.299 -1.6690  0.3206 -2.5482
 4725TIP3   OH235809   0.662   6.103   7.040 -0.2593  0.3480  0.3618
 4725TIP3    H135810   0.744   6.104   6.990  0.9461 -1.2139  2.1781
 4725TIP3    H235811   0.596   6.133   6.978  1.4764  0.4011 -1.5609
 4726TIP3   OH235812   2.951   2.710   7.668  0.5201  0.3533 -0.0614
 4726TIP3    H135813   2.893   2.709   7.743  0.8725  0.9728  0.2258
 4726TIP3    H235814   2.893   2.702   7.592  0.2272 -1.2184  0.2912
 4727TIP3   OH235815   2.186   1.118   2.021 -0.1222 -0.0110  0.3730
 4727TIP3    H135816   2.096   1.151   2.026 -0.6196 -1.0487 -1.0685
 4727TIP3    H235817   2.215   1.112   2.112 -1.9694 -0.8189  0.9441
 4728TIP3   OH235818   0.705   5.395   7.026 -0.5318 -0.1543 -0.0144
 4728TIP3    H135819   0.638   5.331   7.004  0.7830 -1.6930  0.2731
 4728TIP3    H235820   0.740   5.366   7.110  0.3436  0.7309 -0.0479
 4729TIP3   OH235821   4.291   4.394   6.523 -0.4838 -0.2782 -0.0755
 4729TIP3    H135822   4.338   4.392   6.440 -2.0217 -0.9346 -0.9690
 4729TIP3    H235823   4.199   4.408   6.499 -0.8459  0.3951  1.5690
 4730TIP3   OH235824   4.145   2.506   6.644  0.1581  0.1304 -0.5653
 4730TIP3    H135825   4.233   2.541   6.639  0.7336 -1.0224  0.7819
 4730TIP3    H235826   4.089   2.578   6.614  1.5779  0.6334 -2.1427
 4731TIP3   OH235827   3.362   0.624   1.626 -0.0330  1.3250  0.1968
 4731TIP3    H135828   3.343   0.610   1.719 -0.0823 -0.5586 -0.0585
 4731TIP3    H235829   3.367   0.536   1.589 -0.4436  2.0504 -1.6842
 4732TIP3   OH235830   4.324   4.717   0.269  0.2813 -0.5059  0.1206
 4732TIP3    H135831   4.361   4.634   0.300 -0.9870 -0.8888  0.6814
 4732TIP3    H235832   4.272   4.693   0.193  0.6388 -0.0727 -0.2660
 4733TIP3   OH235833   3.677   4.099   0.764 -0.5664  0.4373 -0.1455
 4733TIP3    H135834   3.700   4.083   0.855  0.5633  0.9269 -0.3295
 4733TIP3    H235835   3.601   4.157   0.768  0.1802  1.3963  0.4873
 4734TIP3   OH235836   6.613   1.058   7.801 -0.2306 -0.2405  0.2176
 4734TIP3    H135837   6.601   1.153   7.800 -0.9131 -0.3226 -0.2961
 4734TIP3    H235838   6.646   1.037   7.714 -1.8049 -0.6565 -0.3157
 4735TIP3   OH235839   2.514   5.739   6.141 -0.3367  0.0261  0.5600
 4735TIP3    H135840   2.578   5.758   6.073 -0.1649 -1.6716  0.2075
 4735TIP3    H235841   2.429   5.751   6.098 -0.2627  0.7836  0.6027
 4736TIP3   OH235842   1.654   2.258   1.593  0.2237  0.3011  0.0388
 4736TIP3    H135843   1.699   2.276   1.675 -0.9230 -0.9535  0.9824
 4736TIP3    H235844   1.657   2.341   1.545  2.5466  0.5557  0.5014
 4737TIP3   OH235845   4.461   3.402   1.805  0.6153  0.1453 -0.3152
 4737TIP3    H135846   4.381   3.377   1.852  0.3443  0.4991 -0.5874
 4737TIP3    H235847   4.485   3.487   1.842  0.1179  0.6686 -1.1590
 4738TIP3   OH235848   6.004   6.823   1.328 -0.1137 -0.0937 -0.7769
 4738TIP3    H135849   5.978   6.840   1.238 -0.4006 -0.4908 -0.7707
 4738TIP3    H235850   6.022   6.910   1.365 -0.5848  0.1162 -1.0368
 4739TIP3   OH235851   0.879   6.757   0.398  0.5105 -0.0802  0.1875
 4739TIP3    H135852   0.811   6.725   0.339  0.6859 -1.1319  0.5275
 4739TIP3    H235853   0.924   6.678   0.428  1.1268  0.5117  0.8802
 4740TIP3   OH235854   3.688   6.885   1.874  0.2282 -0.4069 -0.5493
 4740TIP3    H135855   3.752   6.825   1.836  1.0011  0.1380 -0.1219
 4740TIP3    H235856   3.712   6.891   1.966 -1.1147 -1.0504 -0.1388
 4741TIP3   OH235857   3.522   1.666   1.183  0.5939 -0.6240  0.4800
 4741TIP3    H135858   3.504   1.730   1.252  1.9199 -2.2529  2.4718
 4741TIP3    H235859   3.457   1.596   1.198  0.0278 -0.4088 -0.8159
 4742TIP3   OH235860   0.207   0.024   0.200  0.5757  0.0291 -0.6071
 4742TIP3    H135861   0.194   0.118   0.213 -0.4187  0.0141 -1.3388
 4742TIP3    H235862   0.167  -0.017   0.278  1.3244  0.2133 -0.1161
 4743TIP3   OH235863   0.647   6.749   6.608 -0.5982 -0.6298  0.7273
 4743TIP3    H135864   0.738   6.722   6.619 -0.4012 -0.0626  0.5571
 4743TIP3    H235865   0.653   6.840   6.577 -1.1856 -1.0736 -0.7796
 4744TIP3   OH235866   4.342   0.530   7.093  0.8704 -0.3352  0.4513
 4744TIP3    H135867   4.358   0.471   7.019  0.8086  0.1623  0.0361
 4744TIP3    H235868   4.248   0.544   7.093  0.7556 -1.0310  1.1720
 4745TIP3   OH235869   5.759   0.445   7.268 -0.2113 -0.4201 -0.9149
 4745TIP3    H135870   5.710   0.513   7.314 -0.3195 -0.4045 -1.0506
 4745TIP3    H235871   5.724   0.447   7.179 -1.8416 -2.1927 -0.3845
 4746TIP3   OH235872   2.929   3.384   1.362  0.3541 -0.1093  0.9233
 4746TIP3    H135873   2.928   3.350   1.452  1.8961  2.3053  1.9573
 4746TIP3    H235874   2.878   3.465   1.367  2.5595  1.4002  0.3008
 4747TIP3   OH235875   0.363   5.921   7.399  0.8915  0.2847 -0.5295
 4747TIP3    H135876   0.429   5.859   7.430  0.6262  0.3005  0.0904
 4747TIP3    H235877   0.340   5.890   7.312  2.2697  0.7256 -1.0841
 4748TIP3   OH235878   1.572   0.332   1.752 -0.8393 -0.2118  0.0403
 4748TIP3    H135879   1.655   0.312   1.795  0.1279  1.7486 -0.7541
 4748TIP3    H235880   1.552   0.254   1.701 -0.0322 -1.1042  1.0302
 4749TIP3   OH235881   1.927   3.790   7.902 -0.0194  0.5029  0.9462
 4749TIP3    H135882   1.993   3.836   7.850 -0.5870  0.4122  0.1296
 4749TIP3    H235883   1.915   3.707   7.857  0.5910 -0.2274  2.1035
 4750TIP3   OH235884   1.682   0.626   1.001  0.0295 -0.8074  0.1164
 4750TIP3    H135885   1.738   0.679   0.944 -2.3416  0.7407 -0.9034
 4750TIP3    H235886   1.707   0.535   0.980  1.3074 -0.2030 -1.1668
 4751TIP3   OH235887   5.771   0.594   2.233 -0.5446 -0.6720 -0.9519
 4751TIP3    H135888   5.766   0.676   2.184 -0.7510 -1.3847 -2.1503
 4751TIP3    H235889   5.864   0.581   2.250 -0.5566  0.1111 -0.2026
 4752TIP3   OH235890   0.331   6.772   6.172 -0.2870 -0.0373  0.2486
 4752TIP3    H135891   0.280   6.700   6.135 -1.7465  1.0611  0.0352
 4752TIP3    H235892   0.288   6.851   6.139  0.7879  0.9426  1.1179
 4753TIP3   OH235893   3.442   4.254   1.085  1.4282  0.1448  0.6615
 4753TIP3    H135894   3.388   4.313   1.138 -0.6549 -0.8039 -0.3013
 4753TIP3    H235895   3.464   4.181   1.144 -1.5956 -1.3331  0.1291
 4754TIP3   OH235896   2.338   4.276   1.036 -0.0038  0.4320  0.5677
 4754TIP3    H135897   2.289   4.346   1.080  0.8328  1.2209  0.2622
 4754TIP3    H235898   2.273   4.207   1.021 -0.5295  0.5418  2.1639
 4755TIP3   OH235899   5.747   6.186   6.880  0.1061  0.0275 -0.0419
 4755TIP3    H135900   5.748   6.275   6.845 -1.7135  0.3612  0.6391
 4755TIP3    H235901   5.788   6.194   6.966 -0.7766  0.3987  0.3604
 4756TIP3   OH235902   4.262   6.673   6.836  0.0287 -0.2311 -0.1298
 4756TIP3    H135903   4.193   6.720   6.788  1.8700  1.7261 -1.0414
 4756TIP3    H235904   4.302   6.740   6.892  0.3595 -1.6380  1.3961
 4757TIP3   OH235905   4.235   6.928   6.471  0.3337  0.2411  0.7392
 4757TIP3    H135906   4.216   7.022   6.480  0.7089  0.4432 -0.4251
 4757TIP3    H235907   4.300   6.924   6.402  0.3831 -0.8854  0.8438
 4758TIP3   OH235908   5.109   3.972   1.283  0.2897  0.6001  0.1407
 4758TIP3    H135909   5.111   3.904   1.216  0.0183 -0.7007  1.3904
 4758TIP3    H235910   5.188   4.023   1.268  0.5063  0.0015 -0.8269
 4759TIP3   OH235911   4.521   1.622   1.123 -0.1801 -0.2168 -0.4495
 4759TIP3    H135912   4.528   1.643   1.030  2.4165 -0.3609 -0.3678
 4759TIP3    H235913   4.610   1.636   1.158 -0.9142 -0.7978  1.8730
 4760TIP3   OH235914   2.135   5.325   7.533  0.5741 -0.0192  0.3801
 4760TIP3    H135915   2.203   5.265   7.503 -0.7594 -0.9824 -0.8244
 4760TIP3    H235916   2.054   5.274   7.531 -0.4265  1.4868  0.3791
 4761TIP3   OH235917   2.102   1.011   7.161  0.1677  0.0741 -0.1606
 4761TIP3    H135918   2.126   0.995   7.070  2.1644  0.3454  0.2800
 4761TIP3    H235919   2.090   0.923   7.198  2.3633 -0.1980  0.0346
 4762TIP3   OH235920   2.045   3.852   0.691 -0.6300  0.2382 -0.1934
 4762TIP3    H135921   2.013   3.878   0.605 -0.5809 -0.4801 -0.4331
 4762TIP3    H235922   2.060   3.935   0.737 -0.6959  0.6234 -0.8552
 4763TIP3   OH235923   1.689   3.602   1.321  0.3337  0.4378  0.2508
 4763TIP3    H135924   1.603   3.582   1.283  0.2386  0.2867  0.5435
 4763TIP3    H235925   1.751   3.584   1.251  0.0362  1.7132 -0.3768
 4764TIP3   OH235926   4.774   4.985   0.297 -0.1989  0.5404  0.3778
 4764TIP3    H135927   4.859   4.952   0.328 -1.1419 -0.3372  2.1321
 4764TIP3    H235928   4.715   4.910   0.305 -1.4511  1.5076  0.4548
 4765TIP3   OH235929   4.309   3.166   1.512  0.3943 -0.1719  0.3437
 4765TIP3    H135930   4.245   3.107   1.472  1.5579 -0.3774 -1.3406
 4765TIP3    H235931   4.275   3.182   1.600 -1.4035 -1.1032 -0.1194
 4766TIP3   OH235932   1.450   4.086   0.098 -0.2181  0.3295  0.0752
 4766TIP3    H135933   1.492   4.091   0.012 -1.6838 -0.8741 -0.7550
 4766TIP3    H235934   1.462   4.173   0.135 -1.1585  1.4926 -2.1532
 4767TIP3   OH235935   6.969   2.839   6.197 -0.4837 -0.0423 -0.3094
 4767TIP3    H135936   6.876   2.837   6.174 -0.2138 -0.2030 -1.4432
 4767TIP3    H235937   7.007   2.902   6.136 -0.0200  0.7994  0.8327
 4768TIP3   OH235938   3.652   4.555   2.087  0.1367 -0.7261  0.3053
 4768TIP3    H135939   3.725   4.513   2.043  1.9683  2.6000 -0.1321
 4768TIP3    H235940   3.672   4.547   2.181  0.4089 -0.8799  0.2336
 4769TIP3   OH235941   0.267   4.474   7.510  0.5289  0.4628  0.2903
 4769TIP3    H135942   0.354   4.454   7.477  0.2418 -0.4400  0.0484
 4769TIP3    H235943   0.207   4.434   7.447 -0.0466  0.3146  0.9128
 4770TIP3   OH235944   0.230   2.244   6.736 -0.1184  0.1537 -0.4450
 4770TIP3    H135945   0.250   2.198   6.655  0.4257  1.0292 -0.8229
 4770TIP3    H235946   0.274   2.329   6.727 -0.0767  0.2748  0.7525
 4771TIP3   OH235947   1.126   4.249   0.981 -0.3505 -0.8453 -0.1562
 4771TIP3    H135948   1.211   4.280   0.949 -0.6186 -2.0831 -2.2580
 4771TIP3    H235949   1.119   4.159   0.948 -2.1669 -1.0167  0.5704
 4772TIP3   OH235950   5.742   2.200   0.833  0.1974 -0.1601  0.2035
 4772TIP3    H135951   5.676   2.248   0.884  0.3672 -0.6199  0.8687
 4772TIP3    H235952   5.702   2.189   0.746  0.5062  1.9289 -0.2538
 4773TIP3   OH235953   6.365   4.197   7.442  0.4147 -0.2812 -0.3914
 4773TIP3    H135954   6.408   4.213   7.358  0.5528 -1.9246 -0.6731
 4773TIP3    H235955   6.300   4.130   7.423 -1.9155  1.6852  0.1613
 4774TIP3   OH235956   0.649   2.780   7.281 -0.3136  0.0771  0.2729
 4774TIP3    H135957   0.714   2.850   7.281 -0.8215  0.5865  1.8230
 4774TIP3    H235958   0.615   2.779   7.191  0.2661  1.2772  0.0215
 4775TIP3   OH235959   6.477   4.425   6.131  0.5330  1.0893 -0.9815
 4775TIP3    H135960   6.538   4.463   6.194 -1.0567  2.6076 -0.2849
 4775TIP3    H235961   6.531   4.364   6.080  1.6369 -1.5090  2.7996
 4776TIP3   OH235962   6.759   4.982   0.735  0.1602  0.1544  0.2883
 4776TIP3    H135963   6.693   5.050   0.725 -0.3720  0.0059  2.3804
 4776TIP3    H235964   6.748   4.926   0.658 -2.9791 -0.5331  1.1138
 4777TIP3   OH235965   5.564   6.588   7.385  0.3661  0.1591 -0.2834
 4777TIP3    H135966   5.517   6.510   7.355 -1.0657  0.7849  0.2596
 4777TIP3    H235967   5.547   6.591   7.479  0.7973  0.8781 -0.2256
 4778TIP3   OH235968   3.591   1.717   2.236 -0.2720  0.6263  0.0280
 4778TIP3    H135969   3.645   1.645   2.202  0.3204  0.5246  1.1606
 4778TIP3    H235970   3.647   1.762   2.299 -0.3377  2.6030 -1.2380
 4779TIP3   OH235971   0.427   3.487   7.047 -0.3585  0.2467  0.3588
 4779TIP3    H135972   0.514   3.482   7.087 -0.2938 -0.4926  0.1521
 4779TIP3    H235973   0.434   3.431   6.970 -1.2514 -0.4623  0.7774
 4780TIP3   OH235974   5.590   5.083   6.465  0.2665 -0.1811 -0.2278
 4780TIP3    H135975   5.641   5.094   6.385  1.5709 -0.2775  0.5603
 4780TIP3    H235976   5.652   5.050   6.529 -0.1516  2.0506  1.4832
 4781TIP3   OH235977   3.084   3.331   6.086  0.0679  0.1944 -0.0191
 4781TIP3    H135978   3.168   3.359   6.122 -0.0014 -0.7924  0.9809
 4781TIP3    H235979   3.080   3.237   6.105 -1.7348  0.4223  0.9729
 4782TIP3   OH235980   6.674   6.750   6.834 -0.0123 -0.2172  0.3791
 4782TIP3    H135981   6.693   6.727   6.743 -2.1525 -1.9220  0.2810
 4782TIP3    H235982   6.717   6.682   6.886 -1.6705 -1.3201  0.3924
 4783TIP3   OH235983   6.916   1.535   8.043  0.2987  0.5150 -0.2571
 4783TIP3    H135984   6.910   1.629   8.027  0.9799  0.8941  1.4034
 4783TIP3    H235985   6.996   1.508   7.998  0.6168  0.9464  0.0296
 4784TIP3   OH235986   6.905   1.847   5.974  0.4258  0.2591 -0.0176
 4784TIP3    H135987   6.925   1.809   6.060 -0.9508  0.1393  0.2665
 4784TIP3    H235988   6.816   1.820   5.955  0.1733  1.5264 -0.8074
 4785TIP3   OH235989   5.760   6.962   7.450 -0.0280  0.7683 -0.1364
 4785TIP3    H135990   5.741   7.055   7.446  2.4204  1.3642  0.2036
 4785TIP3    H235991   5.704   6.928   7.519 -0.1222  2.2351  0.5315
 4786TIP3   OH235992   4.735   3.268   6.691 -0.7120 -0.0062 -0.2015
 4786TIP3    H135993   4.737   3.265   6.596 -1.2969 -0.6078 -0.2005
 4786TIP3    H235994   4.649   3.233   6.715 -1.2607  1.6897  0.4893
 4787TIP3   OH235995   5.314   1.097   0.373 -0.7152  0.1396 -0.4208
 4787TIP3    H135996   5.342   1.034   0.307 -1.5366 -2.7544  1.7516
 4787TIP3    H235997   5.395   1.126   0.415 -0.3663 -0.4905 -0.6405
 4788TIP3   OH235998   3.196   5.383   7.665  0.1766  0.3511 -0.2979
 4788TIP3    H135999   3.146   5.307   7.635 -0.3803  1.0516 -1.2152
 4788TIP3    H236000   3.160   5.456   7.615  1.8131  0.9541 -0.6562
 4789TIP3   OH236001   3.007   3.409   7.515  0.3243  0.0174  0.4203
 4789TIP3    H136002   3.040   3.496   7.491  0.6554 -0.7359 -2.1095
 4789TIP3    H236003   2.968   3.375   7.434 -0.1086 -2.0631  1.4448
 4790TIP3   OH236004   3.784   5.072   1.026  0.7461 -1.0892 -0.0975
 4790TIP3    H136005   3.851   5.014   1.061  0.4933 -0.9648  0.6065
 4790TIP3    H236006   3.785   5.056   0.931  0.6821 -2.2435  0.0816
 4791TIP3   OH236007   1.286   1.424   6.816 -0.1339  0.6643 -0.6786
 4791TIP3    H136008   1.228   1.492   6.850 -0.8027  0.3910 -1.2765
 4791TIP3    H236009   1.353   1.414   6.885 -0.8894  0.8406  0.0990
 4792TIP3   OH236010   3.339   3.801   5.867  0.1452 -0.1682 -0.1590
 4792TIP3    H136011   3.413   3.848   5.905 -0.0206  0.3917 -0.5121
 4792TIP3    H236012   3.355   3.709   5.888 -0.2630  0.1670  1.8131
 4793TIP3   OH236013   1.498   3.829   1.972 -0.2307 -0.2289 -0.4137
 4793TIP3    H136014   1.498   3.734   1.970 -1.5900 -0.2477  0.0577
 4793TIP3    H236015   1.448   3.855   1.895 -0.9222  0.0646  0.1203
 4794TIP3   OH236016   0.691   0.630   2.268 -0.0671  0.6066 -0.4649
 4794TIP3    H136017   0.633   0.706   2.265  0.6214  1.1172 -1.1767
 4794TIP3    H236018   0.672   0.582   2.188  1.3417  1.4376 -1.3320
 4795TIP3   OH236019   5.370   3.488   0.844 -0.3526 -0.2179  0.4239
 4795TIP3    H136020   5.418   3.407   0.860 -0.0381  0.0172  0.6880
 4795TIP3    H236021   5.430   3.557   0.871  0.5070  0.2883 -2.4675
 4796TIP3   OH236022   1.786   5.674   0.074  0.1025  0.0141 -0.4057
 4796TIP3    H136023   1.790   5.583   0.101  0.4309  0.2162  0.2517
 4796TIP3    H236024   1.845   5.720   0.135 -1.1482  0.8815  0.1900
 4797TIP3   OH236025   1.511   3.282   0.168 -0.1046  0.0864 -0.6829
 4797TIP3    H136026   1.482   3.195   0.195  0.0412  0.4188  0.5975
 4797TIP3    H236027   1.549   3.269   0.081 -0.7414 -0.9941 -0.8086
 4798TIP3   OH236028   0.874   6.485   1.015  0.6665 -0.0890 -0.3561
 4798TIP3    H136029   0.901   6.420   1.080  0.5852  0.6656  0.4496
 4798TIP3    H236030   0.778   6.489   1.024  0.5355 -0.7064 -1.2430
 4799TIP3   OH236031   2.459   0.691   7.621 -0.3039 -0.0145  0.3875
 4799TIP3    H136032   2.539   0.739   7.602 -1.1016  0.5573 -1.8115
 4799TIP3    H236033   2.478   0.600   7.597 -0.8238  0.4399 -1.9785
 4800TIP3   OH236034   2.774   2.258   6.196  0.1996 -0.2007 -0.8905
 4800TIP3    H136035   2.730   2.206   6.130 -0.1849 -0.1626 -0.6691
 4800TIP3    H236036   2.840   2.199   6.233 -0.8376 -0.8484 -0.0060
 4801TIP3   OH236037   6.118   0.708   7.198  0.0842  0.0864  0.7958
 4801TIP3    H136038   6.163   0.646   7.141 -0.2500 -0.3725  1.0254
 4801TIP3    H236039   6.074   0.653   7.263 -1.4898  0.4923  0.0988
 4802TIP3   OH236040   5.302   6.455   6.453 -0.0677 -0.1680 -0.5367
 4802TIP3    H136041   5.284   6.542   6.488  0.6880 -0.4266  0.5381
 4802TIP3    H236042   5.308   6.468   6.358 -0.5811  0.8303 -0.4462
 4803TIP3   OH236043   0.949   6.470   7.759  0.0444 -0.5624  0.7948
 4803TIP3    H136044   0.909   6.389   7.727  0.0340 -0.8718  1.5761
 4803TIP3    H236045   1.022   6.441   7.813  0.5733 -0.0262  0.3779
 4804TIP3   OH236046   5.258   0.846   6.845  0.1852  0.5211  0.3630
 4804TIP3    H136047   5.227   0.830   6.934 -0.9003  1.0765  0.1034
 4804TIP3    H236048   5.235   0.937   6.828  1.0407  0.6376 -0.2381
 4805TIP3   OH236049   7.027   0.515   2.567 -0.5126 -0.3641  0.0844
 4805TIP3    H136050   7.103   0.483   2.519  0.0523  0.3183  0.4914
 4805TIP3    H236051   7.039   0.610   2.570 -2.1416 -0.0941 -1.0922
 4806TIP3   OH236052   1.741   5.499   7.674  0.4396 -0.3482 -0.1351
 4806TIP3    H136053   1.665   5.495   7.615  1.6501 -1.1843 -1.7315
 4806TIP3    H236054   1.706   5.476   7.760 -0.8688 -2.3181 -1.1131
 4807TIP3   OH236055   0.955   6.521   0.712  0.6466  0.0777  0.0969
 4807TIP3    H136056   0.950   6.497   0.804  0.4190 -0.9265 -0.1613
 4807TIP3    H236057   0.993   6.609   0.711  0.2701  0.2587  1.1601
 4808TIP3   OH236058   6.096   6.916   5.826 -0.0322 -0.6534  0.2185
 4808TIP3    H136059   6.066   6.982   5.888  0.0840  0.5806 -0.9949
 4808TIP3    H236060   6.016   6.872   5.796 -0.2712  0.0407 -0.1715
 4809TIP3   OH236061   5.953   2.775   7.800  0.0753  0.1053 -0.5876
 4809TIP3    H136062   6.021   2.731   7.749  0.8845  0.3755  0.2235
 4809TIP3    H236063   5.981   2.867   7.803  0.1090  0.0808  0.3995
 4810TIP3   OH236064   3.212   4.084   6.011  0.1337  0.2927 -0.3419
 4810TIP3    H136065   3.129   4.132   6.009 -0.1440 -0.1332 -2.8943
 4810TIP3    H236066   3.214   4.037   5.927  3.4347  1.1494 -0.8696
 4811TIP3   OH236067   4.629   1.155   8.039 -0.3248 -0.3276  0.2197
 4811TIP3    H136068   4.679   1.138   7.959 -0.7969  1.0076 -0.3837
 4811TIP3    H236069   4.691   1.141   8.110  0.2071 -1.1486 -0.3844
 4812TIP3   OH236070   4.651   6.938   8.015 -0.0458  0.2127 -0.1757
 4812TIP3    H136071   4.616   6.933   8.104 -0.3647  0.7714 -0.2612
 4812TIP3    H236072   4.582   6.904   7.959  0.3041 -0.5090 -0.1869
 4813TIP3   OH236073   6.968   2.774   6.886 -0.4998  0.2150 -0.3960
 4813TIP3    H136074   7.022   2.795   6.810 -0.2115 -1.5792 -0.7444
 4813TIP3    H236075   7.030   2.764   6.958 -0.4739 -0.5881 -0.5144
 4814TIP3   OH236076   1.771   1.579   0.528 -0.0075  0.6737  0.7413
 4814TIP3    H136077   1.854   1.588   0.574  1.3388 -0.5069 -1.2909
 4814TIP3    H236078   1.787   1.617   0.442 -1.1932 -0.5814 -0.0787
 4815TIP3   OH236079   4.085   4.668   1.644  0.1445  0.0636 -0.0917
 4815TIP3    H136080   4.164   4.680   1.698 -1.1801 -0.8272  2.1604
 4815TIP3    H236081   4.114   4.612   1.572  1.6415  0.0642  0.4648
 4816TIP3   OH236082   0.147   3.896   7.407  0.0774 -0.5352 -0.6874
 4816TIP3    H136083   0.153   3.843   7.486 -2.4261 -0.8155 -0.6077
 4816TIP3    H236084   0.139   3.986   7.439  1.0911 -0.4257 -0.7154
 4817TIP3   OH236085   0.878   6.148   6.815 -0.5171 -0.0151  0.0573
 4817TIP3    H136086   0.923   6.127   6.733  1.6647 -0.7696  1.3782
 4817TIP3    H236087   0.895   6.242   6.828 -2.3409  0.5343 -1.1575
 4818TIP3   OH236088   0.783   5.532   7.934 -0.1568  0.0524 -0.3732
 4818TIP3    H136089   0.705   5.585   7.915 -0.1046  0.6029  0.8698
 4818TIP3    H236090   0.852   5.597   7.953  0.0767 -0.4426  0.5382
 4819TIP3   OH236091   6.938   2.362   7.620 -0.3689  0.6245 -0.0568
 4819TIP3    H136092   7.026   2.379   7.654 -0.4028 -1.6412  1.3774
 4819TIP3    H236093   6.884   2.430   7.659  0.4015  0.7773  0.7928
 4820TIP3   OH236094   1.747   3.150   0.469  0.7417 -0.0495 -0.5164
 4820TIP3    H136095   1.773   3.081   0.530  1.1452 -0.9203 -1.6384
 4820TIP3    H236096   1.654   3.164   0.487  0.8368 -0.3180  0.2425
 4821TIP3   OH236097   3.833   2.605   6.270 -0.0563  0.4631 -0.0065
 4821TIP3    H136098   3.851   2.517   6.236 -1.2583  0.3039 -0.2921
 4821TIP3    H236099   3.737   2.611   6.268 -0.1915  0.5898  3.0340
 4822TIP3   OH236100   4.765   3.413   1.215 -0.3230 -0.3619 -0.4659
 4822TIP3    H136101   4.845   3.365   1.234  0.2569  1.2535  1.5407
 4822TIP3    H236102   4.746   3.461   1.296 -2.6094  0.3049 -1.3185
 4823TIP3   OH236103   4.322   4.978   1.657  0.1740  0.1740  0.3940
 4823TIP3    H136104   4.236   5.013   1.680  0.2707  0.5885  0.1330
 4823TIP3    H236105   4.333   4.902   1.714 -1.2188 -1.1196 -0.9604
 4824TIP3   OH236106   6.003   2.127   0.336  0.1407  0.2831  0.0157
 4824TIP3    H136107   6.092   2.093   0.349 -0.2514 -0.3318  1.2523
 4824TIP3    H236108   6.016   2.220   0.317  1.1326 -0.1409 -1.6729
 4825TIP3   OH236109   2.522   0.708   8.126 -0.2427 -0.2612  0.7157
 4825TIP3    H136110   2.595   0.647   8.139  0.9539  0.3974 -2.1763
 4825TIP3    H236111   2.456   0.655   8.079 -0.0379  0.1047  0.0010
 4826TIP3   OH236112   6.206   6.929   1.485  0.7805  0.2898  0.4747
 4826TIP3    H136113   6.222   6.980   1.564  0.3998  1.4347 -0.1540
 4826TIP3    H236114   6.221   6.838   1.511 -1.2517  0.4053  2.4174
 4827TIP3   OH236115   7.044   3.577   1.110  0.1735  0.4193  0.5501
 4827TIP3    H136116   6.957   3.537   1.116  0.4451 -0.4645 -0.8398
 4827TIP3    H236117   7.087   3.530   1.038  2.1380  0.2471  1.7774
 4828TIP3   OH236118   4.170   6.287   8.164 -0.3880  0.4925  0.2645
 4828TIP3    H136119   4.084   6.323   8.186 -1.3160 -0.8131 -1.0027
 4828TIP3    H236120   4.162   6.193   8.183  0.5710  0.2564 -0.4080
 4829TIP3   OH236121   2.028   5.369   7.839  0.2568  0.6825 -0.3973
 4829TIP3    H136122   2.071   5.405   7.761  2.6713 -0.5205  0.2780
 4829TIP3    H236123   2.059   5.424   7.910 -0.4165  0.6085 -0.0424
 4830TIP3   OH236124   4.386   5.167   8.068  0.1502 -0.3647 -0.3845
 4830TIP3    H136125   4.417   5.186   8.157 -0.8716  0.1171 -0.1204
 4830TIP3    H236126   4.370   5.073   8.069  1.5821 -0.6307 -0.5314
 4831TIP3   OH236127   6.819   4.319   7.803  0.4288 -0.5141 -0.0537
 4831TIP3    H136128   6.753   4.388   7.802 -0.2124 -1.0802 -2.8700
 4831TIP3    H236129   6.796   4.265   7.878  0.8367  2.1115  2.1464
 4832TIP3   OH236130   4.149   2.274   6.785 -0.0174  0.5701 -0.8068
 4832TIP3    H136131   4.146   2.367   6.762 -0.3991  1.4390  2.3515
 4832TIP3    H236132   4.242   2.254   6.793  0.0607  1.6571  1.7414
 4833TIP3   OH236133   2.774   1.778   0.393  1.3129 -0.0494  0.7529
 4833TIP3    H136134   2.759   1.746   0.304  1.7018 -1.7947  1.2601
 4833TIP3    H236135   2.695   1.827   0.415  0.5863 -0.8223 -0.0571
 4834TIP3   OH236136   5.916   6.858   1.072  0.0665 -0.2681 -0.1885
 4834TIP3    H136137   5.830   6.886   1.104  0.8456  3.7446 -1.0729
 4834TIP3    H236138   5.897   6.788   1.010 -2.3511 -0.8181  1.0484
 4835TIP3   OH236139   2.925   6.636   7.494 -0.0300  0.0021  0.7637
 4835TIP3    H136140   3.013   6.653   7.529  0.8480  2.1199 -2.1133
 4835TIP3    H236141   2.930   6.546   7.462  1.6651  0.5416 -0.6788
 4836TIP3   OH236142   0.720   5.873   1.035 -0.2128  0.3073 -0.3565
 4836TIP3    H136143   0.798   5.920   1.063 -0.2718 -0.1369  0.5790
 4836TIP3    H236144   0.692   5.824   1.112 -1.5881  0.6882 -0.5765
 4837TIP3   OH236145   5.908   5.982   7.341 -0.1416  0.2192  0.1011
 4837TIP3    H136146   5.904   6.078   7.343  0.4842  0.2850 -0.7341
 4837TIP3    H236147   5.817   5.953   7.346 -0.4908  0.9340 -1.5164
 4838TIP3   OH236148   0.002   3.990   1.286  0.2786  0.0045 -0.5231
 4838TIP3    H136149   0.017   3.895   1.282 -0.0697 -0.2016  1.9563
 4838TIP3    H236150  -0.090   4.000   1.259  0.4898 -0.2756 -1.3906
 4839TIP3   OH236151   1.259   2.130   7.204  0.0721  0.0428  0.2421
 4839TIP3    H136152   1.339   2.184   7.205 -0.2667  0.5606  1.7265
 4839TIP3    H236153   1.223   2.143   7.116  1.3695  0.1658 -0.3000
 4840TIP3   OH236154   5.872   6.041   7.642 -0.5378  0.8182  0.5277
 4840TIP3    H136155   5.845   5.959   7.684 -0.5650  0.4235 -0.2517
 4840TIP3    H236156   5.825   6.042   7.559  1.0123  0.6186 -0.3880
 4841TIP3   OH236157   2.777   0.226   7.929  0.0755  0.4759  0.0037
 4841TIP3    H136158   2.778   0.135   7.958 -1.6199  0.5319  0.3464
 4841TIP3    H236159   2.685   0.250   7.930  0.4250  1.9562 -0.8815
 4842TIP3   OH236160   4.859   1.707   7.185  0.0444 -0.4219  0.0086
 4842TIP3    H136161   4.915   1.784   7.192 -0.7354  0.3000 -1.2428
 4842TIP3    H236162   4.916   1.639   7.147  0.5088 -0.2106  0.3214
 4843TIP3   OH236163   6.288   0.529   2.171 -0.4412 -0.0510  0.6108
 4843TIP3    H136164   6.301   0.605   2.113  0.6505 -0.0560  0.8155
 4843TIP3    H236165   6.321   0.455   2.120  0.7808 -0.0186  1.3125
 4844TIP3   OH236166   1.626   6.528   0.029  0.5083 -0.0205 -0.7080
 4844TIP3    H136167   1.645   6.610   0.074  0.8423 -1.3443  1.7214
 4844TIP3    H236168   1.545   6.496   0.069  1.0098 -1.4417 -0.7549
 4845TIP3   OH236169   5.169   6.416   6.947  0.4957 -0.7579  0.2295
 4845TIP3    H136170   5.259   6.401   6.919  0.6432  1.1386 -0.5118
 4845TIP3    H236171   5.177   6.463   7.030  0.2501  0.2061 -0.2686
 4846TIP3   OH236172   3.352   5.073   1.140  0.2866 -0.1919 -0.5156
 4846TIP3    H136173   3.353   4.996   1.197  2.7006 -2.0067 -2.7820
 4846TIP3    H236174   3.418   5.131   1.178  0.7220 -0.6785 -0.5050
 4847TIP3   OH236175   2.354   2.443   0.329 -0.3858 -0.2091 -0.2579
 4847TIP3    H136176   2.414   2.370   0.311 -0.2037 -0.2932  0.6525
 4847TIP3    H236177   2.301   2.412   0.403  1.3861  1.5033  1.8839
 4848TIP3   OH236178   6.096   1.321   0.002 -0.3792  0.8976  0.7751
 4848TIP3    H136179   6.162   1.329   0.071  0.4833 -0.4176  0.1313
 4848TIP3    H236180   6.066   1.230   0.007 -0.9162  1.0187 -0.0571
 4849TIP3   OH236181   3.242   2.433   7.405 -0.1995  0.0655 -0.3017
 4849TIP3    H136182   3.268   2.342   7.421  1.1342  0.6964  1.4647
 4849TIP3    H236183   3.197   2.430   7.321 -1.3219 -2.4338  0.2722
 4850TIP3   OH236184   6.406   4.545   2.113  0.1921  0.1428  0.6868
 4850TIP3    H136185   6.457   4.601   2.054  1.3149  0.1142  1.6046
 4850TIP3    H236186   6.471   4.506   2.171 -0.5870 -1.9516  0.2370
 4851TIP3   OH236187   0.196   0.782   1.560 -0.6177  0.5276 -0.1501
 4851TIP3    H136188   0.278   0.803   1.516 -0.2475  1.0350  0.7588
 4851TIP3    H236189   0.129   0.828   1.510 -0.1907  1.1778 -0.1301
 4852TIP3   OH236190   5.150   5.370   1.722  0.0420 -0.5636  0.1163
 4852TIP3    H136191   5.070   5.336   1.760 -0.0116  0.6335  1.1417
 4852TIP3    H236192   5.218   5.350   1.786  0.0591  0.9379  0.5934
 4853TIP3   OH236193   4.698   5.828   6.437  0.1406  0.3130 -0.1406
 4853TIP3    H136194   4.676   5.911   6.480  1.0392  1.1919 -1.2979
 4853TIP3    H236195   4.639   5.825   6.361 -0.6959 -0.6991  0.5244
 4854TIP3   OH236196   5.897   4.790   1.677 -0.0731 -0.5284 -0.4167
 4854TIP3    H136197   5.803   4.776   1.679  0.0165 -2.2206 -3.0068
 4854TIP3    H236198   5.921   4.803   1.769 -2.2168 -4.8826  1.0400
 4855TIP3   OH236199   3.638   1.542   0.875 -0.2931 -0.1747 -0.1051
 4855TIP3    H136200   3.697   1.509   0.943  0.1811  0.4773 -0.1964
 4855TIP3    H236201   3.575   1.471   0.863  1.3193 -1.5293 -1.0606
 4856TIP3   OH236202   3.089   4.638   0.896  0.1861  0.1038  0.4429
 4856TIP3    H136203   3.071   4.548   0.871 -1.8709  0.8943 -1.2067
 4856TIP3    H236204   3.062   4.643   0.988  0.2760 -0.9578  0.5324
 4857TIP3   OH236205   5.060   2.801   0.626 -0.0951  0.3270 -0.2631
 4857TIP3    H136206   5.100   2.796   0.713 -0.5006  2.0451  0.0705
 4857TIP3    H236207   4.994   2.732   0.626  0.2415 -0.0078  0.6073
 4858TIP3   OH236208   5.705   5.727   0.314  0.0667 -0.0620 -0.1684
 4858TIP3    H136209   5.800   5.727   0.317  0.0867 -0.0631 -0.7077
 4858TIP3    H236210   5.683   5.693   0.227 -0.4091  1.0565 -0.4981
 4859TIP3   OH236211   0.658   4.183   2.356 -0.4932 -0.5285  0.1021
 4859TIP3    H136212   0.620   4.267   2.383 -0.2833  0.0344 -1.2545
 4859TIP3    H236213   0.665   4.133   2.437 -0.7727  0.7027  0.9243
 4860TIP3   OH236214   3.488   4.030   5.940  0.5776  0.2678  0.2301
 4860TIP3    H136215   3.409   4.083   5.946 -0.4785 -1.2282 -0.0452
 4860TIP3    H236216   3.517   4.040   5.850 -0.1504 -0.3480 -0.0779
 4861TIP3   OH236217   0.042   1.800   7.139 -0.3865 -0.5579  0.6598
 4861TIP3    H136218  -0.033   1.757   7.098  1.0277 -2.8576  0.2287
 4861TIP3    H236219   0.117   1.746   7.111  1.5686  2.1879  0.2201
 4862TIP3   OH236220   3.358   3.175   1.288 -0.4435 -0.0115  0.8337
 4862TIP3    H136221   3.352   3.147   1.379 -0.7175 -2.7255  0.0539
 4862TIP3    H236222   3.327   3.265   1.288 -3.5418 -0.9509  2.9496
 4863TIP3   OH236223   4.353   4.584   7.586  0.0409  0.6066 -0.4709
 4863TIP3    H136224   4.411   4.594   7.662  0.7364  4.1312 -1.2996
 4863TIP3    H236225   4.280   4.643   7.605 -1.0646 -0.4130 -1.4481
 4864TIP3   OH236226   5.993   0.938   6.820 -0.3921 -0.2537 -0.1023
 4864TIP3    H136227   5.943   0.931   6.739  1.2462 -1.6753 -1.0691
 4864TIP3    H236228   6.014   0.848   6.843  1.6311  0.2612  0.2689
 4865TIP3   OH236229   1.864   2.964   6.022  0.5777  0.0200 -0.1976
 4865TIP3    H136230   1.897   2.994   6.107  0.2239  1.6293 -0.5985
 4865TIP3    H236231   1.930   2.903   5.991  1.0703 -0.0319  0.9022
 4866TIP3   OH236232   6.628   0.486   7.634 -0.3764  0.1626  0.3204
 4866TIP3    H136233   6.551   0.505   7.687 -0.5451 -1.4470  0.7004
 4866TIP3    H236234   6.673   0.570   7.626 -2.1453  1.1303  0.1065
 4867TIP3   OH236235   0.549   5.186   6.892  0.4709  0.2973 -0.1197
 4867TIP3    H136236   0.556   5.133   6.971  2.3134  0.2332 -0.2969
 4867TIP3    H236237   0.458   5.174   6.864  0.2121 -0.8973  1.1248
 4868TIP3   OH236238   3.624   5.839   8.089 -0.2690  0.2174  0.1342
 4868TIP3    H136239   3.683   5.769   8.117 -0.5180  0.4559  1.3060
 4868TIP3    H236240   3.585   5.806   8.007  0.0968 -0.7286  0.3280
 4869TIP3   OH236241   5.022   2.329   7.327 -0.0804  0.3386  0.2680
 4869TIP3    H136242   5.093   2.360   7.383  0.4477  0.9808 -0.7332
 4869TIP3    H236243   5.053   2.343   7.238 -0.7371 -1.0394 -0.2163
 4870TIP3   OH236244   3.410   6.273   2.017 -0.5931 -0.9864  0.2402
 4870TIP3    H136245   3.344   6.258   1.949 -0.8495  1.7814 -0.2468
 4870TIP3    H236246   3.401   6.198   2.076 -3.5723 -1.1618 -0.2730
 4871TIP3   OH236247   6.099   4.941   0.448 -0.1292 -0.1106 -1.0211
 4871TIP3    H136248   6.098   4.851   0.417  0.6530 -0.9395  1.2099
 4871TIP3    H236249   6.065   4.937   0.537  1.6968  1.4854 -0.1830
 4872TIP3   OH236250   2.446   6.093   1.001 -0.1020  0.1594  0.4183
 4872TIP3    H136251   2.520   6.032   0.989  0.5816  0.5708  2.1667
 4872TIP3    H236252   2.456   6.157   0.931  0.6990 -0.2937  0.1002
 4873TIP3   OH236253   1.033   1.490   7.511 -0.0432  0.2183  0.5662
 4873TIP3    H136254   1.030   1.401   7.476  0.6670  0.0951  0.8063
 4873TIP3    H236255   1.106   1.532   7.464  0.3243  0.3346  1.2368
 4874TIP3   OH236256   5.519   4.519   6.550 -0.2576  0.2995 -0.2214
 4874TIP3    H136257   5.468   4.461   6.606 -0.3730 -0.6553 -1.2736
 4874TIP3    H236258   5.475   4.516   6.465  1.6531 -0.7930 -1.2527
 4875TIP3   OH236259   2.522   0.854   6.190  0.7196  0.0808 -0.0461
 4875TIP3    H136260   2.480   0.898   6.116  0.8166 -3.1357 -2.2225
 4875TIP3    H236261   2.613   0.842   6.162  1.8964  2.3488  2.4098
 4876TIP3   OH236262   4.298   3.296   0.480  0.1649 -0.6389  0.1598
 4876TIP3    H136263   4.256   3.338   0.555  2.7682  0.3073  1.2081
 4876TIP3    H236264   4.367   3.242   0.519  0.4199 -1.5665 -1.4920
 4877TIP3   OH236265   2.974   4.055   6.610  0.8870  0.0186  0.0550
 4877TIP3    H136266   3.030   4.077   6.537  0.1582  3.2134  0.2875
 4877TIP3    H236267   2.885   4.060   6.575  0.5885 -1.8409  0.4215
 4878TIP3   OH236268   4.184   3.355   1.932  0.2391 -0.2984 -0.4257
 4878TIP3    H136269   4.172   3.354   2.027  3.6943  1.8695  0.1856
 4878TIP3    H236270   4.168   3.446   1.907 -1.0592 -0.9273 -2.0738
 4879TIP3   OH236271   4.095   4.127   6.079  0.0987  0.4416 -0.3710
 4879TIP3    H136272   4.032   4.172   6.135 -2.4392 -2.1345 -0.9290
 4879TIP3    H236273   4.111   4.188   6.007 -1.5613  1.2874 -0.0699
 4880TIP3   OH236274   1.451   7.048   0.698  0.1830  0.3669 -0.3758
 4880TIP3    H136275   1.537   7.076   0.665  0.7247 -0.2699  0.4531
 4880TIP3    H236276   1.444   7.090   0.784 -1.2635  2.1090 -1.2648
 4881TIP3   OH236277   1.819   5.790   7.743  0.3500 -0.2529 -0.7505
 4881TIP3    H136278   1.779   5.795   7.830  0.4294  1.8216 -0.7790
 4881TIP3    H236279   1.809   5.699   7.717 -1.9069 -0.3973  0.3963
 4882TIP3   OH236280   0.872   3.709   7.222 -0.4060  0.1256  0.0437
 4882TIP3    H136281   0.801   3.737   7.165 -0.2046 -0.5033 -0.5313
 4882TIP3    H236282   0.879   3.778   7.288 -0.3687  1.0630 -0.9316
 4883TIP3   OH236283   7.059   5.551   7.200  0.2015  0.0653  0.2595
 4883TIP3    H136284   7.107   5.508   7.129  0.8026 -0.6255  1.0467
 4883TIP3    H236285   7.014   5.479   7.245 -0.3151  0.5145  0.4704
 4884TIP3   OH236286   5.944   1.495   6.942  0.0331 -0.2452 -0.0720
 4884TIP3    H136287   5.938   1.523   7.033 -0.0277  2.1010 -0.7334
 4884TIP3    H236288   6.036   1.504   6.920 -0.2955  1.5998 -0.8871
 4885TIP3   OH236289   5.663   6.119   0.707  0.0829  0.0515  0.1033
 4885TIP3    H136290   5.598   6.050   0.697  0.7537 -0.5952  0.0530
 4885TIP3    H236291   5.621   6.198   0.672 -1.1990 -0.0147  1.4207
 4886TIP3   OH236292   3.461   4.281   1.680  0.3139 -0.0468 -0.3531
 4886TIP3    H136293   3.433   4.295   1.771  0.8641 -1.2687  0.0366
 4886TIP3    H236294   3.523   4.351   1.663 -1.7263  1.7780 -0.7038
 4887TIP3   OH236295   3.481   2.504   7.629 -0.0293  0.3241  0.5155
 4887TIP3    H136296   3.495   2.518   7.535  0.3961 -2.5996  0.0458
 4887TIP3    H236297   3.387   2.516   7.642 -0.1338  0.4726 -0.3529
 4888TIP3   OH236298   6.670   6.326   7.279  0.4609  0.5406  0.3675
 4888TIP3    H136299   6.654   6.313   7.185  0.3064 -0.0297  0.4643
 4888TIP3    H236300   6.726   6.404   7.284 -0.9780  1.6312 -0.0766
 4889TIP3   OH236301   1.242   3.136   0.166  0.3892 -0.0617  0.2070
 4889TIP3    H136302   1.237   3.054   0.117 -0.2418 -0.7507  1.3770
 4889TIP3    H236303   1.233   3.110   0.258 -2.6924  1.5243  0.4937
 4890TIP3   OH236304   6.215   6.229   1.492  0.3367  0.4923  0.2459
 4890TIP3    H136305   6.133   6.231   1.443  0.8555 -1.3045 -0.8154
 4890TIP3    H236306   6.190   6.247   1.583 -1.1545  0.4334 -0.1323
 4891TIP3   OH236307   3.369   3.626   0.388  0.3489 -0.5539 -0.4291
 4891TIP3    H136308   3.380   3.721   0.390  1.5743 -0.6416 -1.5001
 4891TIP3    H236309   3.355   3.602   0.480  1.6602  0.4929  0.0837
 4892TIP3   OH236310   5.203   4.054   7.725  0.5465  0.7404  0.0369
 4892TIP3    H136311   5.246   4.078   7.807 -2.1627 -0.1487  1.8503
 4892TIP3    H236312   5.136   4.121   7.713 -0.8279 -0.5980  0.0242
 4893TIP3   OH236313   0.686   1.514   1.271  0.0049  0.0164  0.2188
 4893TIP3    H136314   0.593   1.498   1.259  0.0150  0.3339 -0.3054
 4893TIP3    H236315   0.692   1.607   1.292  0.1473 -0.1497  0.9280
 4894TIP3   OH236316   3.056   1.292   0.778 -0.0566 -0.0790 -0.1201
 4894TIP3    H136317   3.029   1.260   0.692 -0.8216 -1.3104  0.5519
 4894TIP3    H236318   3.047   1.217   0.836  0.7665  0.6397  0.9889
 4895TIP3   OH236319   2.501   2.269   7.806  0.6361  0.3637  0.0758
 4895TIP3    H136320   2.420   2.248   7.759  0.2612 -1.1136  1.2805
 4895TIP3    H236321   2.550   2.325   7.746  1.1648 -3.0510 -3.0929
 4896TIP3   OH236322   6.181   1.989   1.952  0.6254 -0.0937  0.2671
 4896TIP3    H136323   6.163   1.959   2.041 -1.0151 -0.3176 -0.1168
 4896TIP3    H236324   6.225   2.073   1.964  0.6574 -0.2406  1.2804
 4897TIP3   OH236325   2.372   4.197   2.120 -0.0888  0.3984 -0.1590
 4897TIP3    H136326   2.464   4.202   2.092 -0.1055  2.2671 -0.0195
 4897TIP3    H236327   2.337   4.120   2.076  2.0160 -1.4750  1.2174
 4898TIP3   OH236328   0.730   3.981   1.591  0.2955  0.1693 -0.1874
 4898TIP3    H136329   0.689   3.898   1.612  2.3433 -0.6995  0.5800
 4898TIP3    H236330   0.709   4.038   1.665  0.0754 -0.1073 -0.0344
 4899TIP3   OH236331   4.962   5.745   0.845  0.1087  0.0602  0.0825
 4899TIP3    H136332   4.983   5.672   0.902 -3.3283  0.6945  2.4552
 4899TIP3    H236333   4.921   5.704   0.768  0.0982 -0.5800  0.4234
 4900TIP3   OH236334   5.764   4.865   7.800 -0.2829 -0.1850 -0.0619
 4900TIP3    H136335   5.811   4.830   7.724  1.1473 -1.1948  1.1989
 4900TIP3    H236336   5.816   4.941   7.827  0.3235 -0.9374  0.9735
 4901TIP3   OH236337   4.376   3.082   1.242 -0.5731  0.2505  0.0685
 4901TIP3    H136338   4.352   3.144   1.310 -0.9401  1.5970 -1.2455
 4901TIP3    H236339   4.472   3.078   1.244 -0.5571  0.7650  0.2447
 4902TIP3   OH236340   4.479   4.920   1.093  0.2587  0.1323 -0.2393
 4902TIP3    H136341   4.428   4.920   1.012 -0.4405 -0.9442  0.1852
 4902TIP3    H236342   4.499   4.828   1.109 -0.1449  0.2658  1.1244
 4903TIP3   OH236343   0.537   0.703   6.591 -0.0421 -0.2898  0.4894
 4903TIP3    H136344   0.558   0.771   6.526  1.0824  0.2147  1.3511
 4903TIP3    H236345   0.458   0.661   6.557  0.3163  0.2023 -1.0189
 4904TIP3   OH236346   3.301   4.400   7.742  0.0918  0.4197 -0.0900
 4904TIP3    H136347   3.329   4.416   7.832 -3.4402  0.9011  1.0713
 4904TIP3    H236348   3.310   4.305   7.730 -3.8448 -0.5613  2.6956
 4905TIP3   OH236349   1.051   2.323   8.262  0.5098  0.2011  0.0620
 4905TIP3    H136350   1.070   2.275   8.181  0.2352 -1.7690  1.1099
 4905TIP3    H236351   1.026   2.255   8.325 -0.2399  1.7737  1.5385
 4906TIP3   OH236352   6.000   4.755   1.071 -0.5897 -0.0557  0.6025
 4906TIP3    H136353   6.056   4.825   1.037 -1.1511  1.2941  2.3363
 4906TIP3    H236354   5.963   4.715   0.992  0.2680  1.1490 -0.4638
 4907TIP3   OH236355   5.571   3.575   1.738  0.7140  0.1671 -0.1188
 4907TIP3    H136356   5.489   3.625   1.736 -0.3090 -1.4809 -1.9453
 4907TIP3    H236357   5.545   3.484   1.727  2.8039 -0.4017 -0.9543
 4908TIP3   OH236358   2.011   1.405   2.530 -0.0912  0.0321  0.1184
 4908TIP3    H136359   2.032   1.487   2.575  1.6275 -1.4780  2.3207
 4908TIP3    H236360   2.090   1.384   2.480 -1.2533  0.6589 -2.0703
 4909TIP3   OH236361   4.613   4.835   6.313 -0.1094  0.0668  0.0578
 4909TIP3    H136362   4.616   4.914   6.260 -0.2789 -1.4299 -2.3166
 4909TIP3    H236363   4.521   4.806   6.309  0.0332 -0.4913  0.5301
 4910TIP3   OH236364   4.394   1.632   8.123  0.4916 -0.7189  0.4358
 4910TIP3    H136365   4.415   1.663   8.035 -0.4195 -0.9533  0.1213
 4910TIP3    H236366   4.328   1.563   8.109 -1.7357  1.0799  1.4159
 4911TIP3   OH236367   4.539   1.338   7.458  0.2557 -0.2306 -0.5922
 4911TIP3    H136368   4.537   1.405   7.390  0.9926  0.8011  0.3661
 4911TIP3    H236369   4.632   1.328   7.479 -0.0323  0.7384  1.4237
 4912TIP3   OH236370   5.106   0.873   7.613 -0.0270  0.1412  0.1376
 4912TIP3    H136371   5.109   0.957   7.568 -2.2794 -0.5292 -1.4126
 4912TIP3    H236372   5.032   0.827   7.574  0.7308 -2.3285  1.3892
 4913TIP3   OH236373   4.755   3.944   1.224  0.0349 -0.0309 -0.1676
 4913TIP3    H136374   4.685   3.883   1.247  0.1308 -0.7784 -1.6971
 4913TIP3    H236375   4.781   3.984   1.307 -2.4194  0.5145  0.4145
 4914TIP3   OH236376   5.589   4.467   7.101 -0.5733  0.0681 -0.6418
 4914TIP3    H136377   5.498   4.496   7.108 -0.6618  0.2845 -2.2371
 4914TIP3    H236378   5.638   4.546   7.078 -0.3010 -0.3983 -1.7202
 4915TIP3   OH236379   3.401   5.663   0.808  0.1455 -0.0300  0.7491
 4915TIP3    H136380   3.369   5.675   0.897  1.5873  0.2786  1.2393
 4915TIP3    H236381   3.496   5.659   0.816  0.3211  0.3202 -0.8056
 4916TIP3   OH236382   2.670   6.284   0.994 -0.6188 -0.4348  0.1860
 4916TIP3    H136383   2.626   6.336   0.927 -1.4597  1.1843  1.8802
 4916TIP3    H236384   2.664   6.194   0.963 -1.2768  0.2215 -1.7142
 4917TIP3   OH236385   3.212   1.033   7.275  0.0773  0.0503  0.0750
 4917TIP3    H136386   3.120   1.050   7.256  0.1099  0.3330  0.1569
 4917TIP3    H236387   3.259   1.062   7.196  0.2551  1.6715  0.7254
 4918TIP3   OH236388   4.807   0.474   2.478  0.5010 -0.6112  0.1132
 4918TIP3    H136389   4.722   0.437   2.501 -0.2091  0.0694 -1.3190
 4918TIP3    H236390   4.788   0.543   2.415  1.8743  1.6145  1.9526
 4919TIP3   OH236391   6.654   5.449   7.237 -0.1112 -0.4009  0.5519
 4919TIP3    H136392   6.711   5.521   7.211 -0.5796  0.4007  1.6520
 4919TIP3    H236393   6.567   5.489   7.242 -0.3965 -1.0736  1.0302
 4920TIP3   OH236394   0.809   0.295   6.693  0.4287  0.0121  0.5061
 4920TIP3    H136395   0.860   0.365   6.652 -0.9378  0.4105 -0.6155
 4920TIP3    H236396   0.744   0.271   6.627 -1.6963  0.4826  2.2992
 4921TIP3   OH236397   6.973   4.539   2.215  0.7596  0.2718  0.0029
 4921TIP3    H136398   6.943   4.581   2.295  0.8769  0.0092  0.1831
 4921TIP3    H236399   7.051   4.589   2.189  0.5072  0.5907 -0.1528
 4922TIP3   OH236400   6.345   5.010   0.013 -0.1258 -0.1032  0.3158
 4922TIP3    H136401   6.342   5.086  -0.045 -1.3498  1.2222  2.0152
 4922TIP3    H236402   6.427   5.019   0.061 -0.7707  0.7842  1.2865
 4923TIP3   OH236403   2.231   5.924   6.822 -0.0793  0.5856  0.3056
 4923TIP3    H136404   2.242   5.872   6.742 -0.2626  2.2676 -0.8738
 4923TIP3    H236405   2.144   5.963   6.813  0.3376  1.6735  0.7679
 4924TIP3   OH236406   3.649   6.538   8.144 -0.1031  0.1837 -0.2669
 4924TIP3    H136407   3.582   6.605   8.159  0.4936  0.3354  2.1973
 4924TIP3    H236408   3.622   6.465   8.200  0.3148 -0.8885 -1.4125
 4925TIP3   OH236409   0.960   4.161   7.450  0.0653  0.0739 -0.4942
 4925TIP3    H136410   0.950   4.246   7.493  3.4709  0.7985 -0.8202
 4925TIP3    H236411   0.924   4.174   7.362  1.4392  1.5922 -0.8896
 4926TIP3   OH236412   6.240   3.559   7.986 -0.0066  0.2319 -0.4722
 4926TIP3    H136413   6.155   3.552   7.943  0.7325  0.2063 -1.9688
 4926TIP3    H236414   6.223   3.531   8.077 -1.5323 -0.0036 -0.8048
 4927TIP3   OH236415   1.489   5.719   7.360 -0.0470 -0.1940 -0.3750
 4927TIP3    H136416   1.430   5.747   7.290  1.3849  0.9170 -1.1719
 4927TIP3    H236417   1.488   5.791   7.423  0.2912 -0.2875 -0.2619
 4928TIP3   OH236418   4.989   1.418   2.100 -1.2791  0.2146  0.1716
 4928TIP3    H136419   5.018   1.509   2.091 -0.3325  0.1405  1.9122
 4928TIP3    H236420   4.894   1.423   2.104 -1.3969  0.8468 -2.1483
 4929TIP3   OH236421   6.851   1.054   1.933  0.3339 -0.0260 -0.0257
 4929TIP3    H136422   6.870   1.137   1.977  3.4913  0.0034 -1.2163
 4929TIP3    H236423   6.851   0.989   2.003  1.8834  0.4730  0.4747
 4930TIP3   OH236424   1.787   4.662   0.181 -0.0533 -0.3202  0.2897
 4930TIP3    H136425   1.850   4.637   0.249  0.8001 -0.6782 -0.6127
 4930TIP3    H236426   1.706   4.680   0.229  0.1969 -1.6841  1.2972
 4931TIP3   OH236427   6.757   1.127   1.533  0.3810 -0.5786 -0.0872
 4931TIP3    H136428   6.689   1.062   1.513  0.5760 -0.9002  0.2955
 4931TIP3    H236429   6.737   1.201   1.474 -1.0026 -0.1851  0.8108
 4932TIP3   OH236430   2.686   6.470   8.069 -0.1061  0.2754  0.3783
 4932TIP3    H136431   2.627   6.468   8.144 -1.6009 -0.3506 -0.7433
 4932TIP3    H236432   2.743   6.395   8.080  3.3058  2.9817  3.5121
 4933TIP3   OH236433   6.156   0.646   1.879  0.0604 -0.3245  0.3180
 4933TIP3    H136434   6.170   0.713   1.946 -1.3807 -0.9697  1.3193
 4933TIP3    H236435   6.230   0.656   1.819  1.0869  0.6571  1.6827
 4934TIP3   OH236436   0.729   3.148   1.193 -0.0328  0.4003  0.2789
 4934TIP3    H136437   0.658   3.121   1.135 -0.2028  1.4218 -0.0093
 4934TIP3    H236438   0.693   3.224   1.241 -0.4087 -1.2163  2.7416
 4935TIP3   OH236439   2.980   1.683   1.724 -0.4065  0.0803  0.2115
 4935TIP3    H136440   2.909   1.642   1.675 -1.4684 -0.1313  1.8460
 4935TIP3    H236441   3.059   1.665   1.673 -1.4112 -0.3595 -1.2393
 4936TIP3   OH236442   4.452   1.974   5.871  0.5146  0.1187  0.0062
 4936TIP3    H136443   4.519   1.976   5.939  0.7391  0.9604 -0.2289
 4936TIP3    H236444   4.416   1.886   5.876  2.7490 -0.9379 -0.9424
 4937TIP3   OH236445   5.358   2.686   1.612  0.0346 -0.2608 -0.3506
 4937TIP3    H136446   5.314   2.651   1.534  1.0455  0.6319 -1.3765
 4937TIP3    H236447   5.391   2.609   1.657 -2.4898 -0.9636  0.4606
 4938TIP3   OH236448   2.639   1.597   0.677  0.1894 -0.3043  0.5024
 4938TIP3    H136449   2.588   1.610   0.757  1.5818 -2.0267  1.7369
 4938TIP3    H236450   2.612   1.510   0.645  0.9823 -0.4261  0.1416
 4939TIP3   OH236451   5.811   2.104   0.534  0.2768  0.6374  0.0172
 4939TIP3    H136452   5.874   2.100   0.606  1.0910  0.5820 -0.6859
 4939TIP3    H236453   5.865   2.114   0.455 -0.5807  0.3013 -0.6237
 4940TIP3   OH236454   4.922   3.257   1.723 -0.0500  0.2945 -0.4511
 4940TIP3    H136455   4.939   3.259   1.817 -1.0077 -1.5827 -0.1917
 4940TIP3    H236456   4.827   3.246   1.716  0.0859 -0.2598 -1.6152
 4941TIP3   OH236457   0.115   1.502   0.487  0.1546  0.2401 -0.7353
 4941TIP3    H136458   0.058   1.562   0.536 -0.0759  0.1624 -0.9091
 4941TIP3    H236459   0.080   1.503   0.398  1.3474  1.3625 -1.2194
 4942TIP3   OH236460   1.767   5.422   0.159 -0.0313  0.1728 -1.0544
 4942TIP3    H136461   1.737   5.405   0.248 -1.0081 -2.9548 -1.8740
 4942TIP3    H236462   1.861   5.408   0.162 -0.0749 -0.0172 -0.5420
 4943TIP3   OH236463   6.615   1.998   0.470 -0.0072  0.3352  0.3079
 4943TIP3    H136464   6.689   1.942   0.447 -0.7904 -0.4116 -0.4259
 4943TIP3    H236465   6.547   1.939   0.499 -0.7360  0.9187 -0.1655
 4944TIP3   OH236466   3.943   5.162   7.730 -0.0794  0.1006  0.2671
 4944TIP3    H136467   3.993   5.087   7.697 -1.5221 -1.8755  2.1882
 4944TIP3    H236468   3.852   5.142   7.705 -0.3586  1.9918 -0.4057
 4945TIP3   OH236469   6.751   4.507   0.454 -0.0471  0.0063  0.4988
 4945TIP3    H136470   6.760   4.413   0.466  0.4281 -0.2401 -1.3973
 4945TIP3    H236471   6.710   4.517   0.368 -1.7246  1.5247  1.4003
 4946TIP3   OH236472   0.050   6.987   1.492 -0.5123  0.5310 -0.1463
 4946TIP3    H136473   0.078   7.078   1.484  0.1185  0.3273 -0.2877
 4946TIP3    H236474  -0.043   6.993   1.514 -0.7518  1.2018 -1.2512
 4947TIP3   OH236475   6.360   6.566   1.006  0.2086  0.2284 -0.1608
 4947TIP3    H136476   6.280   6.615   0.987 -0.1462  0.1122  0.9367
 4947TIP3    H236477   6.406   6.560   0.923 -0.0977  1.7835 -0.4578
 4948TIP3   OH236478   2.085   2.452   8.281  0.3263 -0.0052  0.3208
 4948TIP3    H136479   2.017   2.477   8.344  0.3038 -0.1255  0.3455
 4948TIP3    H236480   2.066   2.360   8.263  0.9480 -0.2579  0.9120
 4949TIP3   OH236481   4.476   5.900   7.448  0.1908  0.4199 -0.4256
 4949TIP3    H136482   4.406   5.866   7.504 -0.6301 -0.7624 -2.0792
 4949TIP3    H236483   4.555   5.893   7.502 -0.5253 -0.9072  0.5231
 4950TIP3   OH236484   3.319   3.974   7.558 -0.3634  0.0338  0.1092
 4950TIP3    H136485   3.316   4.047   7.620  0.2208  0.0932  0.0696
 4950TIP3    H236486   3.229   3.942   7.555 -0.3028 -0.3278  1.4263
 4951TIP3   OH236487   1.681   1.593   7.603  0.0088 -1.3368 -0.4525
 4951TIP3    H136488   1.707   1.624   7.690  1.0421 -0.2913 -1.1032
 4951TIP3    H236489   1.626   1.517   7.620  0.6490 -1.4862  1.1055
 4952TIP3   OH236490   1.160   2.119   0.952 -0.2145  0.3589  0.7587
 4952TIP3    H136491   1.099   2.192   0.961 -0.9074 -0.4084  2.9095
 4952TIP3    H236492   1.245   2.155   0.977 -0.2666  0.7935  0.3232
 4953TIP3   OH236493   1.927   6.750   0.074  0.0054 -0.0135  0.5472
 4953TIP3    H136494   1.982   6.672   0.063 -1.5150 -1.3888  2.1779
 4953TIP3    H236495   1.930   6.769   0.168  1.2047  2.6217  0.0854
 4954TIP3   OH236496   7.066   5.733   2.259  0.8488  0.3986 -0.4615
 4954TIP3    H136497   7.033   5.738   2.169  1.7351  1.0630 -0.7700
 4954TIP3    H236498   7.159   5.754   2.251  1.5447 -2.1027  0.2933
 4955TIP3   OH236499   4.317   2.763   8.110 -0.5497  0.2216 -0.1255
 4955TIP3    H136500   4.408   2.733   8.115 -0.7616 -0.5329 -0.6725
 4955TIP3    H236501   4.314   2.816   8.030 -0.5791  0.2883 -0.0797
 4956TIP3   OH236502   5.110   1.101   0.761 -0.2307  0.5284  0.1800
 4956TIP3    H136503   5.150   1.141   0.838 -0.0182  0.5315  0.0683
 4956TIP3    H236504   5.019   1.084   0.787 -0.0181  0.0224  0.6269
 4957TIP3   OH236505   3.432   0.367   6.968 -0.2791 -0.0315  0.0488
 4957TIP3    H136506   3.448   0.274   6.982  3.0291  0.5663  1.3550
 4957TIP3    H236507   3.363   0.390   7.030  1.5863 -0.9751  2.6638
 4958TIP3   OH236508   5.818   5.889   7.081 -0.3177 -0.5998 -0.3076
 4958TIP3    H136509   5.842   5.960   7.141 -0.1664 -0.1780 -0.8513
 4958TIP3    H236510   5.834   5.809   7.130  0.1513 -0.2718  0.0852
 4959TIP3   OH236511   2.271   0.576   0.989 -0.0232  0.0833  0.4492
 4959TIP3    H136512   2.191   0.557   0.940  0.3219  0.2968 -0.2170
 4959TIP3    H236513   2.284   0.670   0.978  1.6395 -0.2915 -1.5770
 4960TIP3   OH236514   0.138   4.798   6.645  0.1581  0.5924  0.0812
 4960TIP3    H136515   0.146   4.849   6.726 -1.7749  0.7262  0.2338
 4960TIP3    H236516   0.079   4.849   6.590 -0.0581 -0.4188 -0.6607
 4961TIP3   OH236517   4.959   3.702   0.278 -0.2686 -0.3187  0.5705
 4961TIP3    H136518   4.998   3.615   0.277  0.0394 -0.1896  1.0664
 4961TIP3    H236519   4.961   3.729   0.370 -0.9891 -0.0678  0.5195
 4962TIP3   OH236520   3.857   4.699   1.479  0.1568  0.5037 -0.5402
 4962TIP3    H136521   3.914   4.690   1.556  0.4879  0.6777 -0.7656
 4962TIP3    H236522   3.770   4.715   1.516  0.6242  2.5212 -0.2024
 4963TIP3   OH236523   5.484   1.600   0.961  0.1239 -0.1046 -0.3983
 4963TIP3    H136524   5.521   1.516   0.935  0.7931  0.4746 -1.3989
 4963TIP3    H236525   5.544   1.665   0.925 -0.6298  0.8144 -0.0450
 4964TIP3   OH236526   5.753   5.482   0.417 -0.0892 -0.0033 -0.0568
 4964TIP3    H136527   5.713   5.560   0.377 -1.2259 -1.3128 -1.6073
 4964TIP3    H236528   5.796   5.437   0.344 -1.8240 -2.2457  0.1799
 4965TIP3   OH236529   3.249   1.198   1.100 -0.3025  0.0608  0.4258
 4965TIP3    H136530   3.191   1.139   1.051 -2.5763  2.2950  0.2338
 4965TIP3    H236531   3.216   1.195   1.190 -1.5458  2.1412  0.1132
 4966TIP3   OH236532   2.824   1.992   2.034 -0.0170 -0.6679 -0.1392
 4966TIP3    H136533   2.918   1.977   2.042  0.0869  0.6680  1.8712
 4966TIP3    H236534   2.817   2.081   1.999 -0.4654  0.1141  1.8028
 4967TIP3   OH236535   2.372   3.925   0.795  0.1671 -0.1707 -0.0465
 4967TIP3    H136536   2.293   3.906   0.847  0.8646  1.2571  1.6123
 4967TIP3    H236537   2.379   3.850   0.735 -1.3957 -1.2525  1.0342
 4968TIP3   OH236538   4.449   2.237   5.836  0.3757 -0.0815 -0.2388
 4968TIP3    H136539   4.427   2.145   5.848  0.8542 -0.0117  1.5502
 4968TIP3    H236540   4.545   2.237   5.828  0.3439  0.2276 -0.6199
 4969TIP3   OH236541   2.626   2.107   6.001  0.7285  0.0842 -0.0249
 4969TIP3    H136542   2.623   2.016   5.972 -1.0428  0.4016 -0.9690
 4969TIP3    H236543   2.575   2.109   6.082 -0.1004  0.3755 -0.5331
 4970TIP3   OH236544   5.923   0.422   7.011 -0.4032  0.2584  0.4347
 4970TIP3    H136545   5.901   0.329   6.999  0.6405  0.1190 -0.5463
 4970TIP3    H236546   5.850   0.468   6.970  0.5591 -0.1970 -1.9713
 4971TIP3   OH236547   3.947   3.166   0.801 -0.5310 -0.3241 -0.1164
 4971TIP3    H136548   4.016   3.115   0.844 -0.8688 -0.4388  0.3056
 4971TIP3    H236549   3.936   3.125   0.716  0.0447 -0.1952 -0.2567
 4972TIP3   OH236550   6.626   6.808   0.636 -0.0336  0.2859  0.0188
 4972TIP3    H136551   6.653   6.765   0.554 -0.4050  1.7122 -0.8760
 4972TIP3    H236552   6.631   6.901   0.617 -0.6798  0.6345  1.4637
 4973TIP3   OH236553   3.915   6.211   1.124 -0.2267  0.4391  0.3159
 4973TIP3    H136554   3.874   6.213   1.037  0.7951  1.3407 -0.1685
 4973TIP3    H236555   3.850   6.168   1.180 -0.9257 -0.1069 -0.8772
 4974TIP3   OH236556   1.083   6.304   7.935 -0.0640  0.0441 -0.1279
 4974TIP3    H136557   1.143   6.276   7.865  0.8163 -0.9402  0.9775
 4974TIP3    H236558   1.050   6.222   7.971  1.6659  0.3591  2.4377
 4975TIP3   OH236559   5.902   4.422   6.867 -0.2584 -0.0206  0.0057
 4975TIP3    H136560   5.870   4.443   6.955 -1.8606 -0.2633 -0.4797
 4975TIP3    H236561   5.909   4.326   6.866  1.0209  0.0631  0.2684
 4976TIP3   OH236562   0.556   4.130   0.977 -0.2594  0.6749 -0.1447
 4976TIP3    H136563   0.632   4.165   0.931 -0.3337 -0.5501 -1.2769
 4976TIP3    H236564   0.536   4.195   1.044  0.9474  1.6700 -0.7086
 4977TIP3   OH236565   4.145   0.886   2.024  0.0385  0.8452  0.0821
 4977TIP3    H136566   4.087   0.813   2.005 -0.7294  1.8159 -1.5142
 4977TIP3    H236567   4.233   0.854   2.003 -0.0477 -0.2131  1.2624
 4978TIP3   OH236568   1.237   0.303   0.281 -0.6403 -0.4208  0.1004
 4978TIP3    H136569   1.247   0.274   0.371 -2.7722 -0.4784  0.3690
 4978TIP3    H236570   1.218   0.224   0.232 -0.2433 -0.2861 -0.2782
 4979TIP3   OH236571   1.424   3.908   6.989  0.0089  0.0904 -0.4393
 4979TIP3    H136572   1.377   3.835   6.948 -0.5284  0.8455 -1.1831
 4979TIP3    H236573   1.509   3.908   6.946 -0.2284  0.3121 -0.9159
 4980TIP3   OH236574   5.577   1.769   7.739  0.1741 -0.6105 -0.0218
 4980TIP3    H136575   5.483   1.753   7.732  0.2037 -2.3261  2.1671
 4980TIP3    H236576   5.597   1.754   7.831  2.3995  1.0892 -0.1371
 4981TIP3   OH236577   6.822   0.462   7.435 -0.0858 -0.2529  0.0822
 4981TIP3    H136578   6.760   0.453   7.507 -1.2445  2.7593 -0.3727
 4981TIP3    H236579   6.902   0.492   7.477 -0.0889 -0.5542  0.3094
 4982TIP3   OH236580   6.459   3.671   6.674  0.6360  0.1716 -0.5143
 4982TIP3    H136581   6.546   3.686   6.711  0.2556  0.9913  0.0863
 4982TIP3    H236582   6.476   3.635   6.587  1.5652 -0.2751 -0.1598
 4983TIP3   OH236583   0.570   4.885   5.925  0.0631  0.7080 -0.1924
 4983TIP3    H136584   0.521   4.807   5.901  1.7021 -0.3385 -0.2916
 4983TIP3    H236585   0.505   4.956   5.923 -1.6548 -0.7594  0.7664
 4984TIP3   OH236586   3.421   3.550   6.666  0.3684 -0.1781 -0.2742
 4984TIP3    H136587   3.326   3.562   6.668  0.3260 -0.3695 -0.9914
 4984TIP3    H236588   3.434   3.455   6.666  0.5717 -0.1544  0.1149
 4985TIP3   OH236589   6.080   0.147   7.453  0.3616  0.5892 -0.1393
 4985TIP3    H136590   6.136   0.221   7.428  0.6672  0.3320 -0.2213
 4985TIP3    H236591   6.091   0.084   7.381  0.4339  0.2860  0.1355
 4986TIP3   OH236592   6.461   1.028   1.697 -0.0268 -0.2698 -0.3666
 4986TIP3    H136593   6.392   0.963   1.687 -1.2958  0.6586  1.6237
 4986TIP3    H236594   6.519   0.991   1.764 -1.1650  0.8724  1.3293
 4987TIP3   OH236595   0.490   1.688   1.844  0.0701  0.4109 -0.6876
 4987TIP3    H136596   0.530   1.753   1.902 -0.3310  0.9913 -1.0442
 4987TIP3    H236597   0.437   1.634   1.902  0.0502  0.6883 -0.4429
 4988TIP3   OH236598   4.986   4.489   6.488 -0.3471 -0.1120  0.5625
 4988TIP3    H136599   4.960   4.568   6.442 -1.5987 -0.6881  0.2399
 4988TIP3    H236600   4.904   4.448   6.514  0.3017 -0.6085  1.9451
 4989TIP3   OH236601   1.572   1.739   0.187  0.1696  0.2822  0.0456
 4989TIP3    H136602   1.576   1.729   0.282  0.3319  1.6742  0.2035
 4989TIP3    H236603   1.640   1.803   0.167  0.1350  0.0055 -1.0204
 4990TIP3   OH236604   0.039   0.942   1.408 -0.1981  0.1502 -0.0781
 4990TIP3    H136605  -0.032   0.919   1.469 -0.4685  1.6301  0.2134
 4990TIP3    H236606   0.004   0.921   1.322 -0.7362  0.2255  0.1153
 4991TIP3   OH236607   2.586   2.665   5.973 -0.0057  0.3188  0.1960
 4991TIP3    H136608   2.521   2.728   5.941 -0.8952 -0.5703  0.2195
 4991TIP3    H236609   2.659   2.674   5.911  0.2317  1.9090  0.6451
 4992TIP3   OH236610   6.667   6.779   1.537 -0.4455 -0.1141 -0.8606
 4992TIP3    H136611   6.747   6.734   1.567 -1.5289 -1.4138  0.2190
 4992TIP3    H236612   6.602   6.758   1.604 -1.9477  0.1706 -2.1918
 4993TIP3   OH236613   3.693   0.029   0.762 -0.3743  0.6371 -0.2664
 4993TIP3    H136614   3.621   0.009   0.822 -0.2449  1.1748  0.0733
 4993TIP3    H236615   3.691  -0.042   0.697  0.1665 -0.5584  0.9767
 4994TIP3   OH236616   0.362   6.037   1.798  0.0490  0.5948  0.4140
 4994TIP3    H136617   0.397   6.122   1.771 -1.3074  0.3921 -2.3056
 4994TIP3    H236618   0.341   5.992   1.716 -2.8288 -0.8519  1.7920
 4995TIP3   OH236619   4.232   3.439   0.716 -0.3317  0.1848 -0.4327
 4995TIP3    H136620   4.221   3.393   0.799 -0.0635  0.5891 -0.1656
 4995TIP3    H236621   4.153   3.493   0.708 -0.4501 -0.0042 -0.5378
 4996TIP3   OH236622   6.041   3.630   6.902  0.3872  0.5641 -0.2303
 4996TIP3    H136623   6.119   3.674   6.936  1.3780 -0.3330 -1.2607
 4996TIP3    H236624   6.068   3.594   6.818 -0.8227 -0.6967 -0.1293
 4997TIP3   OH236625   2.939   0.354   8.148 -0.3610 -0.0662  0.4260
 4997TIP3    H136626   3.035   0.354   8.145 -0.3625  1.6563 -1.6440
 4997TIP3    H236627   2.914   0.268   8.114  0.4325 -0.3244  0.4742
 4998TIP3   OH236628   0.201   1.469   1.533 -0.3148  0.0734  0.6874
 4998TIP3    H136629   0.126   1.478   1.591 -0.4218 -0.7699  0.6874
 4998TIP3    H236630   0.165   1.479   1.445 -0.4881 -0.6599  0.6704
 4999TIP3   OH236631   5.508   6.016   6.529 -0.4749  0.8030  0.7775
 4999TIP3    H136632   5.464   6.030   6.613 -1.3981  1.8948  0.1331
 4999TIP3    H236633   5.453   5.953   6.483 -1.0198  1.6372  0.2538
 5000TIP3   OH236634   2.656   5.574   1.423 -0.3112 -0.1681  0.1243
 5000TIP3    H136635   2.636   5.480   1.421 -1.0554 -0.0022 -1.2894
 5000TIP3    H236636   2.657   5.596   1.516 -2.0645 -1.1730  0.4227
 5001TIP3   OH236637   6.147   0.392   7.135  0.3156 -0.8329 -0.5208
 5001TIP3    H136638   6.056   0.409   7.111 -0.3960  0.1617  2.4708
 5001TIP3    H236639   6.197   0.460   7.091 -0.6257 -0.3081 -0.8043
 5002TIP3   OH236640   4.441   4.503   8.054 -0.1013 -0.5350 -0.2199
 5002TIP3    H136641   4.483   4.562   8.116 -1.1948  0.1319 -0.0913
 5002TIP3    H236642   4.381   4.451   8.107  0.7519 -1.7001 -0.3516
 5003TIP3   OH236643   3.720   6.847   0.649  0.1291 -0.1740  0.8104
 5003TIP3    H136644   3.688   6.789   0.718 -1.0318 -0.2261  0.2485
 5003TIP3    H236645   3.801   6.805   0.619  2.0187  1.0569  3.6864
 5004TIP3   OH236646   5.322   2.465   7.311  0.1988 -0.0444  0.0546
 5004TIP3    H136647   5.401   2.517   7.299 -0.4110  1.4290  1.9592
 5004TIP3    H236648   5.303   2.471   7.404 -1.2233 -1.7843 -0.0710
 5005TIP3   OH236649   5.869   6.314   1.057  0.0764 -0.0553  0.3767
 5005TIP3    H136650   5.811   6.385   1.085 -0.5537 -1.2624  2.3854
 5005TIP3    H236651   5.957   6.351   1.064 -0.2793  0.7880  0.5479
 5006TIP3   OH236652   5.643   1.967   0.956  0.0575 -0.3237 -0.3120
 5006TIP3    H136653   5.584   1.949   0.882  1.1799  0.0209 -1.3202
 5006TIP3    H236654   5.670   2.058   0.943  0.0600 -0.1664  0.6997
 5007TIP3   OH236655   3.154   5.013   0.972  0.7644 -0.5172  0.3626
 5007TIP3    H136656   3.198   4.945   0.920  0.7349  0.2074 -0.6500
 5007TIP3    H236657   3.217   5.034   1.041  0.5267 -1.9797  1.0724
 5008TIP3   OH236658   3.927   6.190   7.009 -0.0983 -0.0938  0.1796
 5008TIP3    H136659   4.021   6.198   6.990 -0.0222 -0.4749  0.3851
 5008TIP3    H236660   3.885   6.200   6.924  0.1759 -0.7335 -0.0365
 5009TIP3   OH236661   2.824   0.926   6.594  0.1749  0.6102  0.3498
 5009TIP3    H136662   2.840   0.881   6.676 -0.2894 -0.4764 -0.1297
 5009TIP3    H236663   2.883   0.883   6.531  1.3133  2.1409  0.3168
 5010TIP3   OH236664   2.919   6.070   0.529  0.0881 -0.2063  0.1405
 5010TIP3    H136665   3.008   6.061   0.494  0.0819 -1.9272  0.4877
 5010TIP3    H236666   2.911   5.999   0.592 -0.7361  1.3727  1.9036
 5011TIP3   OH236667   3.118   6.575   8.167 -0.2978  1.3525 -0.3531
 5011TIP3    H136668   3.159   6.642   8.112 -1.3976  1.0165 -1.6192
 5011TIP3    H236669   3.081   6.512   8.105  1.3245 -0.8665  0.7775
 5012TIP3   OH236670   5.550   6.849   7.306  0.0971 -0.4878  0.7325
 5012TIP3    H136671   5.549   6.759   7.340  0.6785  0.3852  3.2809
 5012TIP3    H236672   5.629   6.888   7.344  1.3571  0.4159 -2.4678
 5013TIP3   OH236673   2.681   3.272   6.898 -0.0599 -0.4577 -0.0873
 5013TIP3    H136674   2.659   3.215   6.825  0.7972  0.6501 -1.2561
 5013TIP3    H236675   2.631   3.237   6.972  0.3136 -2.5871 -0.7835
 5014TIP3   OH236676   3.665   4.199   6.156 -0.5069  0.1266  0.0371
 5014TIP3    H136677   3.692   4.291   6.163 -1.4803  0.3296  2.2398
 5014TIP3    H236678   3.645   4.187   6.063 -0.0972  2.0721 -0.3544
 5015TIP3   OH236679   1.086   2.621   7.941  0.0475  0.1199  0.6173
 5015TIP3    H136680   1.011   2.667   7.978 -0.6336 -1.1335  0.8710
 5015TIP3    H236681   1.145   2.607   8.015 -0.6091 -1.0213  0.9663
 5016TIP3   OH236682   2.662   2.195   7.549 -0.0205  0.3019  0.1632
 5016TIP3    H136683   2.694   2.106   7.535 -1.0674 -0.3081  1.4112
 5016TIP3    H236684   2.688   2.216   7.638  0.5605  1.4146 -0.2589
 5017TIP3   OH236685   4.707   3.135   7.603  0.4170 -0.0861  0.0490
 5017TIP3    H136686   4.771   3.117   7.672 -0.8224 -1.5569  0.8885
 5017TIP3    H236687   4.757   3.181   7.535  1.9056  0.4766  1.4688
 5018TIP3   OH236688   3.641   1.330   0.518  0.6097 -0.4345  0.5452
 5018TIP3    H136689   3.675   1.418   0.502  1.5952 -0.8035  0.5968
 5018TIP3    H236690   3.546   1.341   0.515  0.6510  1.0135  2.5358
 5019TIP3   OH236691   4.714   4.964   5.884  0.0675 -0.0808  0.3604
 5019TIP3    H136692   4.713   5.048   5.838 -1.4540  0.1039  0.6700
 5019TIP3    H236693   4.663   4.980   5.963 -1.3240 -1.5896 -0.1688
 5020TIP3   OH236694   5.564   5.079   6.834  0.3252  0.3495 -0.0481
 5020TIP3    H136695   5.577   5.095   6.928  1.1899 -0.1259 -0.0780
 5020TIP3    H236696   5.642   5.117   6.793  0.2206  0.0507 -0.5226
 5021TIP3   OH236697   3.795   1.305   7.951  0.0591 -0.6272  0.4512
 5021TIP3    H136698   3.713   1.276   7.911 -0.1473 -0.7358  0.9511
 5021TIP3    H236699   3.784   1.289   8.045  0.1169  0.6288  0.7017
 5022TIP3   OH236700   3.889   3.663   0.098  0.2938 -0.4705  0.2104
 5022TIP3    H136701   3.853   3.744   0.136 -1.5110  0.5206 -3.2021
 5022TIP3    H236702   3.974   3.653   0.140 -0.0897  2.3196  1.9416
 5023TIP3   OH236703   6.350   4.820   0.720 -0.4124 -0.3975 -0.3367
 5023TIP3    H136704   6.402   4.765   0.779 -1.4409  0.2140  1.2259
 5023TIP3    H236705   6.358   4.779   0.635  0.3127 -1.9172  0.4264
 5024TIP3   OH236706   3.310   6.015   2.094 -0.2860  0.6176 -0.1226
 5024TIP3    H136707   3.303   5.996   2.187 -0.8294  0.9277 -0.0947
 5024TIP3    H236708   3.351   5.938   2.056 -2.7775 -0.8601 -0.0801
 5025TIP3   OH236709   6.380   4.546   0.864 -0.3610 -0.1222  0.7282
 5025TIP3    H136710   6.305   4.487   0.861  1.3870 -2.4842  0.6144
 5025TIP3    H236711   6.446   4.505   0.808  1.3082  1.4449  1.4299
 5026TIP3   OH236712   4.014   2.051   6.921 -0.0545 -0.0025 -0.3176
 5026TIP3    H136713   4.050   2.034   7.008 -0.3766 -1.2756 -0.4216
 5026TIP3    H236714   4.082   2.102   6.876  0.7313 -0.5947  0.1914
 5027TIP3   OH236715   1.987   0.623   1.110  0.4770 -0.3838  0.1936
 5027TIP3    H136716   2.038   0.550   1.145  1.0878  0.1258  0.3786
 5027TIP3    H236717   1.991   0.610   1.015 -2.1076 -2.3965  0.2502
 5028TIP3   OH236718   4.089   5.264   2.040 -0.3129 -0.0677 -0.1212
 5028TIP3    H136719   4.181   5.265   2.011 -0.6498 -2.0349 -1.4885
 5028TIP3    H236720   4.051   5.343   2.001  1.1670  1.8925  2.1148
 5029TIP3   OH236721   1.961   2.377   7.877 -0.0125  0.5114  0.4439
 5029TIP3    H136722   2.050   2.414   7.879 -0.2687  1.3462 -1.5920
 5029TIP3    H236723   1.905   2.446   7.912 -0.1406  0.9198 -0.5603
 5030TIP3   OH236724   1.317   2.403   1.243  0.0979 -0.3272 -0.7641
 5030TIP3    H136725   1.402   2.447   1.253  0.4036 -0.9535 -0.5287
 5030TIP3    H236726   1.291   2.420   1.153 -0.2546  1.1404 -0.4155
 5031TIP3   OH236727   5.699   0.768   7.204 -0.4654  0.4650 -0.5567
 5031TIP3    H136728   5.770   0.764   7.141 -0.7451  0.6566 -0.8911
 5031TIP3    H236729   5.728   0.833   7.268 -0.9450  1.6416 -1.4778
 5032TIP3   OH236730   4.263   0.977   0.498 -0.0961  0.2773 -0.5648
 5032TIP3    H136731   4.339   0.930   0.465  1.0572  0.4615  1.6642
 5032TIP3    H236732   4.250   1.049   0.435  1.2451 -0.0598 -1.2524
 5033TIP3   OH236733   3.318   0.453   1.141 -0.4003  0.2514 -0.3269
 5033TIP3    H136734   3.237   0.458   1.193 -0.5494 -1.3803 -0.3538
 5033TIP3    H236735   3.303   0.379   1.081 -0.1943  1.9786 -2.6603
 5034TIP3   OH236736   6.768   6.467   1.656  0.2461  0.3735 -0.3483
 5034TIP3    H136737   6.853   6.507   1.641  0.7777 -0.6443 -0.1508
 5034TIP3    H236738   6.737   6.443   1.568  1.3488 -1.5636 -0.2740
 5035TIP3   OH236739   1.826   5.459   1.284 -0.7995 -0.2513  0.4966
 5035TIP3    H136740   1.748   5.406   1.268  1.0393 -2.8623 -0.5525
 5035TIP3    H236741   1.841   5.452   1.378 -1.0703 -0.8547  0.4986
 5036TIP3   OH236742   0.255   3.202   0.235 -0.0497  0.3516 -0.0160
 5036TIP3    H136743   0.175   3.150   0.242 -0.1299  0.4645 -0.0871
 5036TIP3    H236744   0.225   3.290   0.214  0.1381  0.1348 -1.3054
 5037TIP3   OH236745   2.921   5.564   7.178  0.4223  0.4623 -0.2359
 5037TIP3    H136746   2.965   5.647   7.190 -0.1140  0.7251 -0.0401
 5037TIP3    H236747   2.866   5.554   7.256 -1.6710  1.2898 -1.5329
 5038TIP3   OH236748   3.416   4.625   1.109 -0.2660 -0.3411 -0.0658
 5038TIP3    H136749   3.502   4.615   1.150 -0.4032 -2.6247 -0.2048
 5038TIP3    H236750   3.436   4.656   1.020  0.2481  1.2943  0.6039
 5039TIP3   OH236751   5.231   0.186   7.806 -0.3902  0.0146 -0.4323
 5039TIP3    H136752   5.187   0.200   7.722  0.2430  2.1379 -0.4751
 5039TIP3    H236753   5.283   0.266   7.819  0.2536 -0.6745  1.5398
 5040TIP3   OH236754   0.701   4.468   6.283 -0.4919 -0.2120  0.2785
 5040TIP3    H136755   0.656   4.447   6.365  1.4127 -2.3754  0.8886
 5040TIP3    H236756   0.700   4.385   6.234 -1.5874  1.0331 -1.9419
 5041TIP3   OH236757   4.000   5.698   1.332  0.5423 -0.2042  0.4676
 5041TIP3    H136758   3.941   5.734   1.265  0.4890 -0.9937  0.0771
 5041TIP3    H236759   3.966   5.732   1.415  0.6642  0.8623  0.0974
 5042TIP3   OH236760   3.544   1.164   1.103 -0.2831 -0.5166  0.6450
 5042TIP3    H136761   3.513   1.094   1.161 -1.4226 -0.4835  0.0995
 5042TIP3    H236762   3.496   1.150   1.022 -1.9260  1.9684  1.0959
 5043TIP3   OH236763   0.735   3.086   8.066  0.2562  0.2231  0.0914
 5043TIP3    H136764   0.823   3.082   8.103  1.6419  2.0877 -2.6656
 5043TIP3    H236765   0.694   3.161   8.109  0.1019 -0.4481  1.1438
 5044TIP3   OH236766   6.541   5.356   6.576  0.6463 -0.4459 -0.1298
 5044TIP3    H136767   6.525   5.449   6.562  0.4325 -0.4570  0.0301
 5044TIP3    H236768   6.602   5.331   6.506  0.6114 -0.2142 -0.2442
 5045TIP3   OH236769   5.028   5.443   7.766  0.3045  0.2659  0.5769
 5045TIP3    H136770   5.107   5.404   7.728  0.2889  0.0470  0.7623
 5045TIP3    H236771   4.993   5.374   7.823 -1.0292 -0.3067 -0.8710
 5046TIP3   OH236772   4.990   2.752   1.972  0.3776 -0.2286 -0.2269
 5046TIP3    H136773   4.986   2.726   1.880  2.4237  0.1358 -0.4739
 5046TIP3    H236774   5.051   2.689   2.011  1.8390  1.3552  0.1825
 5047TIP3   OH236775   0.147   2.226   0.972 -0.3304  0.0670  0.3701
 5047TIP3    H136776   0.140   2.302   1.029 -1.8237  1.9075 -2.0548
 5047TIP3    H236777   0.073   2.171   0.997  0.7657 -0.6716  2.1482
 5048TIP3   OH236778   2.468   2.948   7.741  0.1036  0.5269  0.8573
 5048TIP3    H136779   2.459   2.867   7.791  0.4525  0.1845  0.3764
 5048TIP3    H236780   2.480   3.015   7.808 -0.0064  0.1601  1.2565
 5049TIP3   OH236781   1.004   2.055   1.433  0.6084  0.0433 -0.1684
 5049TIP3    H136782   1.056   2.085   1.359  0.8103  3.3214  1.1078
 5049TIP3    H236783   1.054   2.083   1.510 -0.5881 -1.3767  1.1821
 5050TIP3   OH236784   0.145   4.648   7.715  0.0471 -0.4632 -0.7805
 5050TIP3    H136785   0.169   4.572   7.663  2.0009 -0.2744 -0.2451
 5050TIP3    H236786   0.122   4.612   7.801  1.5216 -0.4556 -0.3531
 5051TIP3   OH236787   6.334   5.836   0.496  0.0516 -0.0695  0.2541
 5051TIP3    H136788   6.253   5.887   0.502 -0.1345 -0.1256 -1.3698
 5051TIP3    H236789   6.305   5.745   0.501 -0.0144 -0.0910 -0.3681
 5052TIP3   OH236790   1.879   2.647   7.353 -0.0656 -0.2211  0.4375
 5052TIP3    H136791   1.956   2.595   7.332 -1.8648 -2.4914 -0.9217
 5052TIP3    H236792   1.837   2.663   7.269 -1.4598  0.3571  1.2160
 5053TIP3   OH236793   0.958   2.361   6.070  0.5053 -0.0725  0.3355
 5053TIP3    H136794   1.033   2.335   6.122 -0.1971  0.4061  1.6362
 5053TIP3    H236795   0.939   2.451   6.098 -0.6992 -0.2741  0.2365
 5054TIP3   OH236796   1.894   4.095   8.265  0.2929  0.1645 -0.2752
 5054TIP3    H136797   1.942   4.117   8.346 -0.9596  0.5016  0.3958
 5054TIP3    H236798   1.880   4.000   8.271 -0.1173  0.2453  0.0925
 5055TIP3   OH236799   1.753   4.004   1.971 -0.1811 -0.4129  0.7224
 5055TIP3    H136800   1.659   4.008   1.989 -0.1921 -1.3276  0.9641
 5055TIP3    H236801   1.782   3.925   2.017  0.8258  0.2021  1.1845
 5056TIP3   OH236802   1.050   6.241   6.534  0.5090  0.0156  0.1608
 5056TIP3    H136803   1.118   6.174   6.541  1.7228  1.3825  2.6972
 5056TIP3    H236804   1.096   6.324   6.552 -1.3802  1.2838 -0.5307
 5057TIP3   OH236805   5.928   1.847   7.842  0.2693 -0.4114  0.3217
 5057TIP3    H136806   5.852   1.836   7.900  0.2259 -0.0053  0.3465
 5057TIP3    H236807   5.967   1.760   7.838 -1.5663 -1.2291 -1.6237
 5058TIP3   OH236808   6.330   4.096   6.659 -0.1779  0.1428 -0.5241
 5058TIP3    H136809   6.281   4.165   6.704 -1.9747 -2.0544  1.1646
 5058TIP3    H236810   6.347   4.132   6.572 -0.5276  2.8720  0.4243
 5059TIP3   OH236811   2.168   6.324   1.189 -0.1829 -0.0551 -0.3593
 5059TIP3    H136812   2.168   6.415   1.220 -0.5345  0.1569 -0.9718
 5059TIP3    H236813   2.212   6.275   1.259  0.5366  0.6749 -0.2927
 5060TIP3   OH236814   6.587   0.362   7.316  0.1238 -0.2963 -0.3749
 5060TIP3    H136815   6.654   0.295   7.332 -0.2398 -0.6985 -0.5108
 5060TIP3    H236816   6.541   0.370   7.399  0.3000 -0.0598 -0.2981
 5061TIP3   OH236817   0.721   5.877   7.318  0.1236  0.4890  0.2604
 5061TIP3    H136818   0.757   5.793   7.288 -0.3147  0.0406  0.9576
 5061TIP3    H236819   0.796   5.937   7.316  0.8180 -0.2996  1.1919
 5062TIP3   OH236820   6.910   3.975   0.547 -0.0875  0.0953 -0.5075
 5062TIP3    H136821   6.999   4.005   0.561 -0.1802 -0.3166  1.1372
 5062TIP3    H236822   6.914   3.923   0.467  0.7407  1.6491 -1.5195
 5063TIP3   OH236823   0.791   0.139   7.858  0.2469 -0.3712 -0.2360
 5063TIP3    H136824   0.726   0.092   7.806 -1.0429  0.4987  0.5224
 5063TIP3    H236825   0.835   0.072   7.909 -2.0795 -0.7799  1.4081
 5064TIP3   OH236826   4.504   1.086   6.713  0.1902  0.2838  0.3113
 5064TIP3    H136827   4.443   1.138   6.765  0.2246  0.6275  0.0119
 5064TIP3    H236828   4.452   1.054   6.639  0.7504  1.9690 -0.8614
 5065TIP3   OH236829   2.268   3.952   2.000  0.7415  0.1962 -0.0955
 5065TIP3    H136830   2.338   3.938   1.936  0.0530  1.5458 -1.1967
 5065TIP3    H236831   2.188   3.960   1.948  0.2428  1.9802  0.8521
 5066TIP3   OH236832   1.250   0.682   6.996 -0.4571  0.4035  0.3533
 5066TIP3    H136833   1.283   0.616   7.057 -1.0425  0.5993  0.8937
 5066TIP3    H236834   1.263   0.644   6.909 -0.4348 -0.2580  0.6439
 5067TIP3   OH236835   1.386   5.690   7.742  0.4870 -0.8590  0.4291
 5067TIP3    H136836   1.297   5.656   7.739  1.1567 -2.6910  0.3203
 5067TIP3    H236837   1.404   5.702   7.836 -0.5551  1.5356  0.3875
 5068TIP3   OH236838   5.482   1.008   0.912  0.6051  0.1399  1.0276
 5068TIP3    H136839   5.514   1.069   0.846  0.4945  1.3891  2.0822
 5068TIP3    H236840   5.397   0.979   0.878 -0.0589  1.7695  1.1749
 5069TIP3   OH236841   6.009   3.690   1.335  0.1545  0.0926 -0.3915
 5069TIP3    H136842   5.935   3.732   1.291 -0.0912 -1.3498 -1.4037
 5069TIP3    H236843   6.078   3.757   1.333 -1.0315  1.3959  0.4198
 5070TIP3   OH236844   3.084   1.093   6.282 -0.2374  0.2558 -0.0649
 5070TIP3    H136845   3.110   1.176   6.242 -0.3762  0.8117  0.9805
 5070TIP3    H236846   3.133   1.088   6.364 -0.9712 -0.2141  0.3636
 5071TIP3   OH236847   5.999   0.468   2.529 -0.1632  0.0279  0.0157
 5071TIP3    H136848   5.910   0.438   2.507 -0.4181  1.0306 -0.4022
 5071TIP3    H236849   6.041   0.392   2.567 -0.2908 -1.3492 -2.3569
 5072TIP3   OH236850   6.559   0.084   0.261 -0.1593 -0.0037 -0.3677
 5072TIP3    H136851   6.520   0.067   0.175 -2.6470  2.1151  0.2166
 5072TIP3    H236852   6.531   0.012   0.316 -0.5999 -0.1274 -0.7509
 5073TIP3   OH236853   1.550   2.135   2.324 -0.3963 -0.3738  0.0935
 5073TIP3    H136854   1.459   2.105   2.317 -0.6408  0.1958  0.6557
 5073TIP3    H236855   1.603   2.057   2.309 -0.9330 -0.3793 -1.9971
 5074TIP3   OH236856   4.392   6.473   6.730 -0.0506  0.6115 -0.7565
 5074TIP3    H136857   4.337   6.484   6.653 -2.3411 -0.3598  0.6201
 5074TIP3    H236858   4.377   6.553   6.781 -0.7632  0.0497 -0.0626
 5075TIP3   OH236859   5.502   4.059   0.129  0.1258 -0.6177 -0.0153
 5075TIP3    H136860   5.596   4.078   0.128 -0.1655  0.8785 -0.7729
 5075TIP3    H236861   5.497   3.967   0.157  1.6901 -0.1395  2.0541
 5076TIP3   OH236862   3.158   1.769   0.176 -0.5859 -0.2894  1.2880
 5076TIP3    H136863   3.115   1.716   0.243 -1.9033 -0.6192  0.2247
 5076TIP3    H236864   3.124   1.735   0.093  0.2485  0.7549  0.4867
 5077TIP3   OH236865   1.433   5.729   1.184  0.2816 -0.2839 -0.0351
 5077TIP3    H136866   1.498   5.778   1.234 -0.2190 -1.2577  1.6319
 5077TIP3    H236867   1.461   5.638   1.191 -0.5816 -0.5814 -0.3746
 5078TIP3   OH236868   1.215   2.780   7.281 -0.1027  0.3843  0.0255
 5078TIP3    H136869   1.275   2.818   7.345 -0.4085 -0.3335  0.7534
 5078TIP3    H236870   1.168   2.712   7.329 -0.1772 -0.3277 -1.0128
 5079TIP3   OH236871   3.707   4.477   1.743  0.2566  0.2815  0.1886
 5079TIP3    H136872   3.652   4.450   1.816  0.6923 -3.9466 -0.7688
 5079TIP3    H236873   3.793   4.489   1.781  0.0562  0.1198  0.7040
 5080TIP3   OH236874   0.704   3.926   2.210 -0.4732 -0.0187 -1.0523
 5080TIP3    H136875   0.697   4.015   2.242 -0.2834 -0.7660  1.2450
 5080TIP3    H236876   0.641   3.876   2.262  1.9506 -1.8410  0.3927
 5081TIP3   OH236877   3.962   4.937   6.753  0.8909  0.0105 -0.0343
 5081TIP3    H136878   3.888   4.997   6.756  1.0980  0.2682  0.0537
 5081TIP3    H236879   4.028   4.983   6.701 -0.1389 -1.5293 -2.9023
 5082TIP3   OH236880   2.621   2.052   0.531  0.7566 -0.6984  0.1656
 5082TIP3    H136881   2.568   2.060   0.611 -1.5944 -1.9033 -1.1604
 5082TIP3    H236882   2.693   1.994   0.557  0.8736  0.0907  1.7564
 5083TIP3   OH236883   0.525   4.911   0.222 -0.3423 -0.3813 -0.2442
 5083TIP3    H136884   0.563   4.921   0.134 -2.1844  2.4538 -0.8403
 5083TIP3    H236885   0.593   4.943   0.281  0.2264 -0.5562 -0.7924
 5084TIP3   OH236886   3.316   6.049   0.248  0.2285  0.0620  0.6528
 5084TIP3    H136887   3.388   6.111   0.259 -0.9247  1.6626 -0.4032
 5084TIP3    H236888   3.334   6.007   0.164  0.7868 -0.7896  1.1754
 5085TIP3   OH236889   4.107   1.893   0.046 -0.1180 -0.0577  0.2557
 5085TIP3    H136890   4.019   1.856   0.047  0.6574 -1.9778  0.2548
 5085TIP3    H236891   4.099   1.975   0.096 -1.7602 -0.4900  0.7603
 5086TIP3   OH236892   5.456   3.010   0.703 -0.1169 -0.7040 -0.5991
 5086TIP3    H136893   5.394   3.001   0.631 -0.1823 -2.7142 -0.3489
 5086TIP3    H236894   5.403   3.040   0.777 -0.3611 -0.2412 -0.9583
 5087TIP3   OH236895   6.645   6.381   1.423 -0.3787 -0.9589 -0.6679
 5087TIP3    H136896   6.649   6.309   1.359 -1.9536 -1.0207 -0.7379
 5087TIP3    H236897   6.582   6.443   1.385 -0.5952 -0.5301  0.3582
 5088TIP3   OH236898   5.299   0.602   1.147  0.1650 -0.9229 -0.2882
 5088TIP3    H136899   5.268   0.548   1.220  1.4718 -0.6934  0.4703
 5088TIP3    H236900   5.392   0.582   1.140  0.3701  0.1779 -0.9155
 5089TIP3   OH236901   1.542   2.284   6.041  0.3515 -0.0272  0.1509
 5089TIP3    H136902   1.523   2.375   6.065 -0.5866 -0.3836  0.8288
 5089TIP3    H236903   1.582   2.246   6.119  0.0779 -0.3791  0.1252
 5090TIP3   OH236904   0.325   2.587   6.489 -0.5042 -0.2697 -0.7771
 5090TIP3    H136905   0.299   2.643   6.416 -1.3138 -1.0312 -1.0844
 5090TIP3    H236906   0.323   2.498   6.453 -0.3001 -0.5975  0.0019
 5091TIP3   OH236907   1.059   1.061   8.096 -0.0007  0.2329 -0.2603
 5091TIP3    H136908   1.001   0.996   8.136 -0.0663 -0.5456 -1.5612
 5091TIP3    H236909   1.068   1.129   8.162 -0.8136 -0.5788  0.7195
 5092TIP3   OH236910   5.830   1.248   6.470  0.1678 -0.3412 -0.5208
 5092TIP3    H136911   5.759   1.267   6.409  0.7472  0.3308 -1.0084
 5092TIP3    H236912   5.899   1.211   6.415 -0.0490 -1.6449  0.0583
 5093TIP3   OH236913   4.837   1.165   8.221 -0.3772 -0.3520  0.2367
 5093TIP3    H136914   4.923   1.125   8.236 -1.1723 -2.0511  0.5432
 5093TIP3    H236915   4.805   1.185   8.309 -0.7857 -0.8450  0.2028
 5094TIP3   OH236916   4.498   2.683   0.895 -0.0364 -0.1462 -0.5681
 5094TIP3    H136917   4.589   2.672   0.922 -1.0207 -0.5476  3.2196
 5094TIP3    H236918   4.448   2.636   0.961 -3.0657  0.7571 -2.0375
 5095TIP3   OH236919   4.399   0.106   6.734 -0.1808  0.5378 -0.1804
 5095TIP3    H136920   4.438   0.133   6.651  0.2219 -2.5760 -1.1131
 5095TIP3    H236921   4.305   0.102   6.716 -0.1428  0.3174 -0.3247
 5096TIP3   OH236922   3.158   6.010   1.837 -0.7698  0.1434 -0.1700
 5096TIP3    H136923   3.186   5.985   1.926 -2.3996 -1.1846  0.0183
 5096TIP3    H236924   3.181   6.103   1.830 -0.2391  0.1751  1.4841
 5097TIP3   OH236925   3.834   3.747   7.783  0.5675  0.6118  1.2734
 5097TIP3    H136926   3.908   3.765   7.841  0.3059  0.4632  1.6606
 5097TIP3    H236927   3.848   3.805   7.708  1.4390  0.1069  1.0234
 5098TIP3   OH236928   3.514   2.321   7.284 -0.3109  0.1195  0.5934
 5098TIP3    H136929   3.450   2.378   7.242  0.9498  0.8618 -0.4173
 5098TIP3    H236930   3.537   2.257   7.216  2.3172  1.7875 -0.2938
 5099TIP3   OH236931   1.420   4.998   1.503  0.1999 -0.1746  0.9042
 5099TIP3    H136932   1.448   5.085   1.531  1.3949 -0.0649 -0.5276
 5099TIP3    H236933   1.466   4.983   1.421 -0.6376 -1.8260  0.6950
 5100TIP3   OH236934   7.003   4.493   6.555  0.4364 -0.1655  0.4370
 5100TIP3    H136935   7.061   4.505   6.480 -3.1763  3.2512 -2.2122
 5100TIP3    H236936   6.946   4.421   6.530  0.0052  0.1676  0.4483
 5101TIP3   OH236937   1.651   2.513   1.952  0.3194 -0.2985 -0.2234
 5101TIP3    H136938   1.615   2.468   2.029  0.7368  2.1708  1.5440
 5101TIP3    H236939   1.736   2.547   1.981  1.3104 -0.7845 -2.3727
 5102TIP3   OH236940   2.432   1.245   0.876 -0.4673 -0.2082 -0.7107
 5102TIP3    H136941   2.440   1.328   0.922  0.2489  0.7397 -2.4794
 5102TIP3    H236942   2.522   1.216   0.863 -0.7024 -1.8539  0.7981
 5103TIP3   OH236943   4.535   2.913   0.084  0.4470 -0.4832 -0.2753
 5103TIP3    H136944   4.566   2.842   0.027 -0.0209 -0.8530 -0.0809
 5103TIP3    H236945   4.528   2.989   0.026 -1.9425 -1.3261 -1.2277
 5104TIP3   OH236946   6.476   2.735   7.398 -0.0804 -0.1201 -0.1996
 5104TIP3    H136947   6.557   2.737   7.346 -0.3861 -2.1151 -0.7986
 5104TIP3    H236948   6.491   2.802   7.465  1.6083  0.3422 -0.9632
 5105TIP3   OH236949   5.067   0.713   1.615  0.1136 -0.0965 -0.3603
 5105TIP3    H136950   5.053   0.781   1.550  0.8308  0.6726  0.2539
 5105TIP3    H236951   5.090   0.761   1.695  1.7442 -1.0636 -0.1930
 5106TIP3   OH236952   0.727   6.742   8.199 -0.6179 -0.1491  0.2782
 5106TIP3    H136953   0.795   6.764   8.262 -0.2507 -1.3785  0.3300
 5106TIP3    H236954   0.771   6.745   8.114 -1.4142  2.8616 -0.1582
 5107TIP3   OH236955   1.938   0.462   7.312  0.1682  0.2138  0.1374
 5107TIP3    H136956   1.874   0.419   7.256  0.4912  0.5865 -0.5391
 5107TIP3    H236957   1.899   0.547   7.332  1.2102  1.2450 -1.8528
 5108TIP3   OH236958   5.257   3.240   8.185  1.0247 -0.0002  0.6192
 5108TIP3    H136959   5.278   3.263   8.094 -2.0884  1.5868  0.1956
 5108TIP3    H236960   5.281   3.317   8.236 -2.1729  1.3773  0.2780
 5109TIP3   OH236961   2.801   2.292   0.228  0.2277 -0.0045 -0.6268
 5109TIP3    H136962   2.719   2.265   0.270 -0.8639  2.5026 -0.9259
 5109TIP3    H236963   2.776   2.314   0.138  1.2799  0.5333 -0.8034
 5110TIP3   OH236964   4.149   4.684   6.831  0.0364 -0.4532 -0.1844
 5110TIP3    H136965   4.066   4.716   6.867 -0.4602 -1.5596 -0.3145
 5110TIP3    H236966   4.131   4.669   6.738  0.5978 -0.0192 -0.3695
 5111TIP3   OH236967   5.613   3.232   0.127  0.2143  0.2105 -0.3599
 5111TIP3    H136968   5.630   3.142   0.154  0.5691  0.0876 -0.9569
 5111TIP3    H236969   5.637   3.285   0.203 -0.9613 -0.2545  0.3443
 5112TIP3   OH236970   1.002   1.167   1.348  0.0166  0.2994 -0.0529
 5112TIP3    H136971   0.940   1.197   1.281  0.7195 -0.0647 -0.8807
 5112TIP3    H236972   1.085   1.209   1.325  1.0564 -2.2611 -1.2966
 5113TIP3   OH236973   0.329   5.743   1.017 -0.3182  0.2771  0.4393
 5113TIP3    H136974   0.261   5.684   1.050 -1.2063  2.0406  1.9355
 5113TIP3    H236975   0.397   5.685   0.983 -2.5098 -1.5970 -1.1121
 5114TIP3   OH236976   0.236   4.020   8.018  0.2981  0.4319  0.3226
 5114TIP3    H136977   0.171   4.063   7.962 -1.6876  0.4656  2.5078
 5114TIP3    H236978   0.281   3.958   7.960 -1.2962  0.8030 -1.3967
 5115TIP3   OH236979   4.355   7.060   0.524  0.7096  0.0129 -0.5810
 5115TIP3    H136980   4.311   7.028   0.445  1.1626 -2.1239 -0.0226
 5115TIP3    H236981   4.411   7.131   0.493 -1.0927  0.9907 -1.7309
 5116TIP3   OH236982   1.809   4.794   0.680 -0.3250 -0.0933  0.5197
 5116TIP3    H136983   1.740   4.727   0.680 -0.1629 -0.3494  2.5998
 5116TIP3    H236984   1.887   4.746   0.708  0.1332  0.6722  0.5611
 5117TIP3   OH236985   2.834   0.112   6.692 -0.5349  0.2616 -0.0640
 5117TIP3    H136986   2.785   0.043   6.649  0.3738 -0.4159 -0.0480
 5117TIP3    H236987   2.879   0.068   6.764 -1.7316  1.2959  1.3868
 5118TIP3   OH236988   0.879   1.943   7.872  0.3827 -0.7756 -0.1705
 5118TIP3    H136989   0.861   1.938   7.966 -0.2680 -0.3224 -0.2642
 5118TIP3    H236990   0.792   1.944   7.831  0.5997  0.8050 -0.6769
 5119TIP3   OH236991   4.719   0.091   0.034  0.6501 -0.2987 -0.3679
 5119TIP3    H136992   4.693   0.004   0.063  0.4240 -0.7250 -1.7549
 5119TIP3    H236993   4.639   0.130  -0.001  0.5522  0.8321  1.0217
 5120TIP3   OH236994   0.962   3.714   7.689 -0.8027  0.0086  0.7005
 5120TIP3    H136995   1.000   3.802   7.685 -2.4404  0.7277 -0.1900
 5120TIP3    H236996   0.995   3.678   7.771  3.3024 -0.2300 -0.8449
 5121TIP3   OH236997   4.893   2.636   1.330  0.0022 -0.0817  0.3903
 5121TIP3    H136998   4.884   2.556   1.383 -1.4621 -0.9311 -1.0618
 5121TIP3    H236999   4.846   2.703   1.379 -1.7796 -0.9801 -0.0338
 5122TIP3   OH237000   2.202   0.949   5.897 -0.3256  0.0201  0.4644
 5122TIP3    H137001   2.259   1.007   5.948 -0.6149 -0.3632  1.2413
 5122TIP3    H237002   2.113   0.979   5.916 -0.5036 -0.9275  1.2220
 5123TIP3   OH237003   3.812   1.021   6.345 -0.0767  0.5105  0.0381
 5123TIP3    H137004   3.773   1.102   6.312 -1.0002 -0.5175 -1.5405
 5123TIP3    H237005   3.901   1.021   6.311  0.1286  1.1416  0.5619
 5124TIP3   OH237006   4.917   5.450   8.087  0.7600 -0.5767 -0.4981
 5124TIP3    H137007   4.987   5.386   8.099 -0.1270 -1.3524  0.7685
 5124TIP3    H237008   4.950   5.529   8.129  0.6636 -1.1137  0.6337
 5125TIP3   OH237009   2.611   3.946   6.822  0.1482  0.6720 -0.0391
 5125TIP3    H137010   2.628   3.904   6.906 -0.0890  1.1938  0.2746
 5125TIP3    H237011   2.580   3.876   6.765 -1.9139  0.7044  0.9545
 5126TIP3   OH237012   5.079   4.217   0.731 -0.0704  0.2122  0.3461
 5126TIP3    H137013   5.002   4.161   0.724  0.4139 -0.4826  0.4804
 5126TIP3    H237014   5.065   4.285   0.665  0.9445 -2.0378 -2.4258
 5127TIP3   OH237015   4.994   1.076   6.325 -0.4427 -0.3955  0.0122
 5127TIP3    H137016   5.066   1.059   6.265 -1.2749 -0.6128 -0.9510
 5127TIP3    H237017   4.993   0.999   6.383 -0.5226 -0.8731 -0.6094
 5128TIP3   OH237018   3.523   1.537   2.511 -0.2557 -0.4401  0.6869
 5128TIP3    H137019   3.600   1.592   2.495 -0.6132 -0.3810 -1.1379
 5128TIP3    H237020   3.484   1.571   2.591  0.1764  1.2068  0.2245
 5129TIP3   OH237021   1.465   3.333   7.133  0.3333 -0.1089 -0.3198
 5129TIP3    H137022   1.419   3.339   7.049 -0.7250  2.7602  0.3358
 5129TIP3    H237023   1.402   3.293   7.193  0.4887 -0.6639 -0.5274
 5130TIP3   OH237024   6.711   2.843   0.013  0.1541 -0.2188  0.3499
 5130TIP3    H137025   6.685   2.753  -0.007  2.6171 -0.8894 -0.2230
 5130TIP3    H237026   6.778   2.864  -0.053 -0.7893  2.2879  0.0794
 5131TIP3   OH237027   3.373   1.616   8.169 -0.2146 -0.3036 -0.1972
 5131TIP3    H137028   3.376   1.710   8.187 -0.6374 -0.4074  0.4636
 5131TIP3    H237029   3.406   1.575   8.249 -0.0678 -0.7191 -0.4677
 5132TIP3   OH237030   0.244   6.070   5.857 -0.0695  0.2771 -0.0838
 5132TIP3    H137031   0.311   6.020   5.903 -0.6918  1.1338  1.8474
 5132TIP3    H237032   0.190   6.003   5.815 -0.3796 -0.6740  1.7167
 5133TIP3   OH237033   5.995   2.720   1.920 -0.3848  0.4470 -0.7752
 5133TIP3    H137034   5.989   2.672   1.837 -0.8190 -0.7347 -0.0874
 5133TIP3    H237035   6.081   2.698   1.955  0.1398  1.6106 -1.2855
 5134TIP3   OH237036   5.195   1.480   6.649 -0.6179 -0.2408  0.1529
 5134TIP3    H137037   5.285   1.461   6.675 -0.9225 -1.1980  0.5334
 5134TIP3    H237038   5.162   1.398   6.613 -1.3231  0.1185 -0.0341
 5135TIP3   OH237039   0.598   5.620   1.947  0.3705  0.2038  0.5100
 5135TIP3    H137040   0.590   5.569   1.866 -2.1863  1.7276 -0.3480
 5135TIP3    H237041   0.615   5.555   2.015 -0.5114 -1.5395 -0.8371
 5136TIP3   OH237042   2.313   4.378   0.102  0.3791 -0.2476  0.0259
 5136TIP3    H137043   2.321   4.357   0.195  1.4262 -2.2869 -0.4846
 5136TIP3    H237044   2.392   4.429   0.083  1.0788 -1.3549 -0.1126
 5137TIP3   OH237045   2.736   0.003   1.865  0.1946 -0.0108 -0.2874
 5137TIP3    H137046   2.774  -0.078   1.832  1.9925  1.6574 -2.7183
 5137TIP3    H237047   2.807   0.046   1.912 -0.8852 -0.0146  1.4343
 5138TIP3   OH237048   5.325   4.535   7.129  0.1843 -0.1313  0.4728
 5138TIP3    H137049   5.245   4.494   7.095  0.6304 -1.8719  1.3973
 5138TIP3    H237050   5.305   4.552   7.221 -0.3646  2.8455 -0.0878
 5139TIP3   OH237051   2.124   6.573   7.952 -0.0677  0.4272 -0.3116
 5139TIP3    H137052   2.186   6.616   7.893 -0.7123 -0.2229 -1.5104
 5139TIP3    H237053   2.107   6.488   7.911 -1.1823  0.2993  0.3645
 5140TIP3   OH237054   3.315   6.120   0.907  0.1412 -0.1521 -0.3135
 5140TIP3    H137055   3.397   6.078   0.880 -0.4913 -2.8845  1.5878
 5140TIP3    H237056   3.271   6.142   0.825  1.0771 -2.2070 -1.4411
 5141TIP3   OH237057   2.665   1.157   8.180  0.2064  0.1641 -0.4412
 5141TIP3    H137058   2.632   1.172   8.091  1.8255 -0.1398 -1.1168
 5141TIP3    H237059   2.717   1.077   8.173 -0.3539 -0.3510  0.9882
 5142TIP3   OH237060   1.866   6.104   6.081  0.7258  0.3442 -0.1612
 5142TIP3    H137061   1.848   6.120   6.173  0.7125  1.6907 -0.3894
 5142TIP3    H237062   1.780   6.084   6.043  0.4158  1.8529 -0.2811
 5143TIP3   OH237063   2.302   5.706   7.428  0.5314  0.2570  0.0199
 5143TIP3    H137064   2.243   5.781   7.423 -0.3805 -0.4375  0.1407
 5143TIP3    H237065   2.280   5.663   7.510  1.7490  0.4137  0.4464
 5144TIP3   OH237066   0.541   4.302   7.680  0.4747 -0.3167 -0.1517
 5144TIP3    H137067   0.590   4.352   7.746  0.6866 -1.7004  0.7775
 5144TIP3    H237068   0.526   4.364   7.609  0.8467  1.0225  0.9034
 5145TIP3   OH237069   3.362   5.089   5.865  0.3723  0.1629  0.1274
 5145TIP3    H137070   3.349   5.014   5.922  0.4007 -0.4678 -0.6788
 5145TIP3    H237071   3.280   5.138   5.869 -0.5922 -1.2590 -1.2717
 5146TIP3   OH237072   1.201   5.256   1.164  0.0303 -0.1569  0.1485
 5146TIP3    H137073   1.247   5.288   1.086  0.1279  0.5390  0.4834
 5146TIP3    H237074   1.250   5.293   1.237 -1.3618  1.0632  0.5152
 5147TIP3   OH237075   1.769   2.171   0.036 -0.1953 -0.4248 -0.5108
 5147TIP3    H137076   1.823   2.110   0.086 -0.1024  0.0439 -0.0231
 5147TIP3    H237077   1.831   2.236   0.003 -0.4449  0.1262  0.0704
 5148TIP3   OH237078   3.058   6.077   7.971 -0.3097 -0.5126 -0.0172
 5148TIP3    H137079   3.118   6.027   8.028 -1.4375 -2.0281 -0.0764
 5148TIP3    H237080   3.080   6.049   7.882 -0.5985 -0.5260 -0.0872
 5149TIP3   OH237081   1.304   5.442   0.944  0.4311 -0.1603 -0.1663
 5149TIP3    H137082   1.254   5.522   0.927 -0.6197 -0.9272 -0.8270
 5149TIP3    H237083   1.395   5.470   0.941  0.0751  1.2432  0.8649
 5150TIP3   OH237084   2.713   1.970   8.106  0.0463  0.4555 -0.0108
 5150TIP3    H137085   2.787   1.960   8.046 -0.4034  1.0822 -0.6706
 5150TIP3    H237086   2.676   1.881   8.113  0.9474  0.1015  0.4587
 5151TIP3   OH237087   0.129   6.549   7.575  0.2150  0.7532 -0.0588
 5151TIP3    H137088   0.094   6.582   7.492 -1.0600 -0.1327  0.1014
 5151TIP3    H237089   0.195   6.614   7.600  0.5545  1.0957 -1.7038
 5152TIP3   OH237090   7.044   0.141   0.193  0.6807 -0.5631  0.5645
 5152TIP3    H137091   6.951   0.124   0.176  0.3417 -0.5259  2.2291
 5152TIP3    H237092   7.068   0.208   0.129 -0.7037  0.1118  0.7169
 5153TIP3   OH237093   3.536   2.919   6.356  0.5861 -0.0364  0.3737
 5153TIP3    H137094   3.553   2.831   6.324 -0.6228 -0.0788 -0.1805
 5153TIP3    H237095   3.621   2.964   6.348  0.2536  0.2334 -3.8637
 5154TIP3   OH237096   3.516   1.119   1.801  0.6025  0.2887  0.0857
 5154TIP3    H137097   3.541   1.041   1.850  0.5828  0.2786  0.0798
 5154TIP3    H237098   3.534   1.097   1.709  1.2658  0.5494  0.1524
 5155TIP3   OH237099   2.120   5.434   1.487 -0.0439 -0.1178  0.4059
 5155TIP3    H137100   2.196   5.491   1.478  0.8157 -1.2636  0.1393
 5155TIP3    H237101   2.051   5.492   1.519  0.6089  1.1865 -0.4326
 5156TIP3   OH237102   2.099   7.020   7.784 -0.0099  0.6468 -0.2367
 5156TIP3    H137103   2.026   7.078   7.806  0.2864  1.4929 -1.3967
 5156TIP3    H237104   2.127   6.983   7.868 -0.1195  2.2827  0.5471
 5157TIP3   OH237105   3.202   2.596   7.628  0.5639  0.4701  0.1141
 5157TIP3    H137106   3.117   2.640   7.626  0.0654 -0.4668  0.2051
 5157TIP3    H237107   3.207   2.549   7.545  0.0372 -1.2146  0.9993
 5158TIP3   OH237108   0.772   5.944   8.042 -0.4598  0.0122  0.0731
 5158TIP3    H137109   0.732   6.030   8.052  0.3064  0.5154 -0.9710
 5158TIP3    H237110   0.709   5.893   7.992 -0.9212 -0.0442  0.7053
 5159TIP3   OH237111   6.247   7.029   1.726 -0.5201  0.1445 -0.2058
 5159TIP3    H137112   6.293   7.003   1.806 -1.0803 -1.0480 -0.2529
 5159TIP3    H237113   6.176   7.085   1.757  0.8982  2.0224 -0.1333
 5160TIP3   OH237114   4.609   5.412   1.784  0.3003  0.3093 -0.1708
 5160TIP3    H137115   4.623   5.324   1.820 -0.1852  0.3670  0.1719
 5160TIP3    H237116   4.571   5.398   1.698  0.4895  0.1794 -0.2328
 5161TIP3   OH237117   1.538   2.785   7.230 -0.0167  0.1562  0.3374
 5161TIP3    H137118   1.513   2.858   7.287 -0.6809 -0.2765  0.6143
 5161TIP3    H237119   1.458   2.734   7.220  0.6703 -1.0877  0.9819
 5162TIP3   OH237120   0.298   5.824   7.884 -0.3407 -0.0894 -0.1096
 5162TIP3    H137121   0.287   5.852   7.793 -0.8592 -1.6445 -0.5406
 5162TIP3    H237122   0.257   5.894   7.935 -0.2210  0.7029 -1.0696
 5163TIP3   OH237123   0.911   0.603   2.423  0.1381 -0.2752 -0.1022
 5163TIP3    H137124   0.831   0.601   2.370 -0.3568 -1.1040  0.6370
 5163TIP3    H237125   0.973   0.653   2.371 -0.2729 -1.2255 -1.5624
 5164TIP3   OH237126   2.340   4.282   0.371  0.1411  0.7027  0.6608
 5164TIP3    H137127   2.249   4.270   0.399 -0.3797  1.5227 -0.5944
 5164TIP3    H237128   2.390   4.281   0.453 -0.6160 -2.4624  1.2631
 5165TIP3   OH237129   5.665   3.335   0.375 -0.6050  0.1822 -0.2856
 5165TIP3    H137130   5.748   3.377   0.356 -0.7481  2.1501  2.6736
 5165TIP3    H237131   5.683   3.279   0.451 -1.6518 -0.7574 -0.6874
 5166TIP3   OH237132   0.318   1.959   6.392 -0.1123 -0.1467 -0.3634
 5166TIP3    H137133   0.272   1.975   6.474 -0.4826 -1.0475 -0.3832
 5166TIP3    H237134   0.303   1.867   6.373  0.4304 -0.0880 -1.1637
 5167TIP3   OH237135   6.330   4.954   1.399 -0.8460  0.4625  0.3629
 5167TIP3    H137136   6.254   4.934   1.345 -0.6781 -1.7333  0.8333
 5167TIP3    H237137   6.309   4.916   1.484  1.6870 -2.3947 -0.1517
 5168TIP3   OH237138   4.674   3.957   0.960 -0.2290  0.5424  0.4365
 5168TIP3    H137139   4.685   3.976   1.053  1.4146 -1.2957  0.6760
 5168TIP3    H237140   4.688   4.042   0.917 -1.9763  1.6113  1.8683
 5169TIP3   OH237141   3.705   6.515   0.733 -0.2122  0.1338  0.3431
 5169TIP3    H137142   3.638   6.527   0.800 -1.5617  3.3946 -1.3842
 5169TIP3    H237143   3.657   6.508   0.651  1.4904 -1.3892 -0.6154
 5170TIP3   OH237144   5.962   4.506   7.194 -0.5419  0.3439 -0.0369
 5170TIP3    H137145   5.897   4.539   7.256  1.7571  1.4687  1.9587
 5170TIP3    H237146   5.966   4.412   7.212 -1.4011  0.3074  0.0031
 5171TIP3   OH237147   4.205   5.591   1.911 -0.2199 -0.9557  0.0960
 5171TIP3    H137148   4.268   5.550   1.852  1.4745 -0.3346  1.4013
 5171TIP3    H237149   4.121   5.552   1.886  0.6546 -1.8436 -1.6738
 5172TIP3   OH237150   4.258   1.156   0.309  0.2967 -0.6695  0.1978
 5172TIP3    H137151   4.241   1.183   0.219 -1.1177 -2.3883 -0.1140
 5172TIP3    H237152   4.351   1.135   0.311  0.2327 -1.1355 -1.0212
 5173TIP3   OH237153   3.817   5.467   6.996  0.4284 -0.3236  0.1877
 5173TIP3    H137154   3.806   5.545   7.051 -1.7882  0.0619 -0.7280
 5173TIP3    H237155   3.786   5.493   6.910 -0.3586 -2.2113 -0.1522
 5174TIP3   OH237156   0.730   2.714   1.365 -0.7030 -0.1414 -0.3937
 5174TIP3    H137157   0.747   2.638   1.310  2.1789 -0.0221  0.2160
 5174TIP3    H237158   0.717   2.786   1.303 -0.5564 -0.5808 -0.9449
 5175TIP3   OH237159   2.935   6.490   7.786 -0.0634  0.3327  0.1770
 5175TIP3    H137160   2.962   6.555   7.721 -1.6711  1.1488  0.2725
 5175TIP3    H237161   2.868   6.534   7.837  0.5119 -0.6108  1.8295
 5176TIP3   OH237162   1.290   3.334   7.721 -0.0563  0.2085 -0.0665
 5176TIP3    H137163   1.200   3.367   7.723 -0.1962 -0.0811 -1.0496
 5176TIP3    H237164   1.307   3.307   7.811 -0.8164  0.6130  0.2162
 5177TIP3   OH237165   1.753   7.027   6.944  0.1668  0.0930  0.3925
 5177TIP3    H137166   1.737   7.003   6.853  0.8626  2.7398 -0.5011
 5177TIP3    H237167   1.802   6.953   6.980 -0.5055 -1.2063 -1.2073
 5178TIP3   OH237168   4.532   1.683   0.475  0.6512 -0.1203 -0.2269
 5178TIP3    H137169   4.522   1.600   0.523  1.2585  0.1144  0.3159
 5178TIP3    H237170   4.570   1.658   0.391  0.3266 -0.4514 -0.2761
 5179TIP3   OH237171   6.332   2.290   5.908 -0.0224 -0.2067 -0.0806
 5179TIP3    H137172   6.379   2.345   5.844  1.3784 -1.3488 -0.0735
 5179TIP3    H237173   6.247   2.274   5.866  0.7521 -0.6895 -1.5642
 5180TIP3   OH237174   3.264   3.099   7.204 -0.1098  0.9617 -0.2995
 5180TIP3    H137175   3.181   3.082   7.249 -0.1280  1.1807 -0.2454
 5180TIP3    H237176   3.249   3.071   7.114 -0.7489  2.3987 -0.6651
 5181TIP3   OH237177   3.277   6.959   0.375 -0.1600  0.3108 -0.4606
 5181TIP3    H137178   3.238   6.872   0.383 -0.3331  0.3978 -0.3688
 5181TIP3    H237179   3.206   7.020   0.396  0.3878  0.4363  1.1934
 5182TIP3   OH237180   2.757   1.012   0.391  0.1575  0.5497  0.0982
 5182TIP3    H137181   2.664   1.013   0.367 -0.1483 -1.0341  1.0845
 5182TIP3    H237182   2.798   0.956   0.324  0.3201  0.8215 -0.0318
 5183TIP3   OH237183   0.603   1.117   1.875 -0.7983 -0.0097 -0.1166
 5183TIP3    H137184   0.657   1.081   1.947  0.4450 -1.7084 -1.7999
 5183TIP3    H237185   0.667   1.151   1.812 -1.8513  1.0332 -0.6493
 5184TIP3   OH237186   6.010   4.459   1.316 -0.4352 -0.1030  0.1628
 5184TIP3    H137187   5.965   4.488   1.237 -0.0061  2.7453  0.8685
 5184TIP3    H237188   5.940   4.425   1.373 -1.0808  0.2110 -0.4296
 5185TIP3   OH237189   6.131   1.739   8.245 -0.6585  0.0606 -0.3811
 5185TIP3    H137190   6.124   1.643   8.249 -1.0670  0.0820 -0.5107
 5185TIP3    H237191   6.208   1.755   8.192 -1.1880 -0.1984 -1.2484
 5186TIP3   OH237192   1.596   5.415   7.003 -0.3655 -0.3234  0.3955
 5186TIP3    H137193   1.607   5.435   6.910  1.0518  1.0013  0.8004
 5186TIP3    H237194   1.676   5.448   7.044 -1.4515  0.1600  2.2389
 5187TIP3   OH237195   6.432   2.131   2.105  0.0128  0.0356  0.6909
 5187TIP3    H137196   6.510   2.112   2.054 -0.2767  0.2192  0.1676
 5187TIP3    H237197   6.394   2.045   2.124 -2.1845 -0.0207 -3.0724
 5188TIP3   OH237198   5.778   7.052   0.414  0.2460  0.4317  0.6323
 5188TIP3    H137199   5.696   7.099   0.400 -0.2853 -0.5043  0.4778
 5188TIP3    H237200   5.776   7.025   0.505 -0.3820 -0.9604  0.2289
 5189TIP3   OH237201   1.239   6.825   2.323  0.0381 -0.4464 -0.4484
 5189TIP3    H137202   1.163   6.842   2.378  1.0915 -0.9059  1.2059
 5189TIP3    H237203   1.213   6.856   2.236 -1.6042  0.4760  0.3276
 5190TIP3   OH237204   1.998   6.298   8.040 -0.1186  0.3349 -0.6054
 5190TIP3    H137205   1.914   6.343   8.050 -0.4891 -0.5957  0.8275
 5190TIP3    H237206   2.022   6.311   7.948 -1.0784  1.8857 -0.6695
 5191TIP3   OH237207   3.908   6.368   8.239  0.1390 -0.4235  0.2540
 5191TIP3    H137208   3.932   6.426   8.311 -1.0396 -1.3356  1.4269
 5191TIP3    H237209   3.816   6.346   8.255  0.0665 -1.2539 -1.1149
 5192TIP3   OH237210   5.269   4.332   5.873 -0.1527  0.5569 -0.0333
 5192TIP3    H137211   5.199   4.371   5.820  1.3247  1.9095 -1.1099
 5192TIP3    H237212   5.311   4.270   5.814  0.0960  0.3902  0.3183
 5193TIP3   OH237213   3.347   4.237   0.319  0.1122  0.5396 -0.6663
 5193TIP3    H137214   3.329   4.282   0.236  0.0609  0.1456 -0.8747
 5193TIP3    H237215   3.310   4.149   0.307 -2.2067  1.2604  0.7119
 5194TIP3   OH237216   0.525   5.600   0.853 -0.4817 -0.6372 -0.3936
 5194TIP3    H137217   0.550   5.535   0.918 -0.0743  0.6731  0.8067
 5194TIP3    H237218   0.605   5.619   0.805 -0.1116  0.4183  0.5985
 5195TIP3   OH237219   1.972   2.683   1.008  0.1633 -0.0360  0.1049
 5195TIP3    H137220   1.943   2.773   0.994 -0.8082 -0.1833  1.0173
 5195TIP3    H237221   1.893   2.630   0.996  0.1964 -0.5296  1.8092
 5196TIP3   OH237222   0.706   1.211   7.302  0.1953  0.0352 -0.5393
 5196TIP3    H137223   0.690   1.301   7.333 -0.3736  0.5015 -2.1063
 5196TIP3    H237224   0.639   1.197   7.235  0.0834 -1.6962 -0.1004
 5197TIP3   OH237225   6.757   3.148   1.978 -0.1200 -0.3489  0.0456
 5197TIP3    H137226   6.799   3.232   1.996  0.2428 -0.5234  0.0031
 5197TIP3    H237227   6.817   3.103   1.919 -0.5725 -0.4160 -0.3732
 5198TIP3   OH237228   7.078   6.219   0.484  0.0270  0.2347 -0.1529
 5198TIP3    H137229   7.013   6.151   0.500 -1.2934  1.8331  1.6746
 5198TIP3    H237230   7.131   6.221   0.563  1.0411  0.3276 -0.8138
 5199TIP3   OH237231   2.342   4.767   6.511 -0.1990 -0.0377  0.6376
 5199TIP3    H137232   2.268   4.777   6.572 -1.4263 -0.0657 -0.7975
 5199TIP3    H237233   2.304   4.784   6.425  1.1715 -1.4563 -0.2912
 5200TIP3   OH237234   6.132   4.453   0.841 -0.3877 -0.3364 -0.1103
 5200TIP3    H137235   6.082   4.494   0.912 -1.2255  1.4136 -1.6367
 5200TIP3    H237236   6.068   4.399   0.794 -0.5964  0.8858 -1.2887
 5201TIP3   OH237237   5.635   3.314   7.143  0.5073 -0.7654 -0.0698
 5201TIP3    H137238   5.705   3.331   7.080 -0.4100  0.0328 -0.8946
 5201TIP3    H237239   5.603   3.227   7.120 -0.0108 -0.3629 -0.9082
 5202TIP3   OH237240   4.332   6.302   1.423  0.5758 -0.4337 -0.4556
 5202TIP3    H137241   4.320   6.233   1.489  0.7774  0.8502  0.9677
 5202TIP3    H237242   4.243   6.327   1.398  0.4634  0.1178  0.4665
 5203TIP3   OH237243   4.951   0.772   0.704  0.1188  0.1393  0.3202
 5203TIP3    H137244   4.913   0.858   0.685  0.2328 -0.1368 -1.2710
 5203TIP3    H237245   4.968   0.734   0.618  0.9709 -1.0879  1.0081
 5204TIP3   OH237246   0.387   2.784   0.684 -0.4730 -0.3994  0.3630
 5204TIP3    H137247   0.328   2.709   0.689 -0.0653 -0.7503  0.0099
 5204TIP3    H237248   0.342   2.847   0.628 -0.4552 -0.7275 -0.0263
 5205TIP3   OH237249   4.282   3.222   6.267  0.7647  0.5396  0.6743
 5205TIP3    H137250   4.277   3.216   6.172 -1.9075  2.5740  0.5644
 5205TIP3    H237251   4.304   3.313   6.285 -2.1985  1.1488  1.8876
 5206TIP3   OH237252   0.021   1.907   8.214 -0.0437 -0.1419  0.5186
 5206TIP3    H137253  -0.008   1.820   8.242 -1.7985  0.6265  1.2325
 5206TIP3    H237254   0.056   1.948   8.293  0.4965 -0.0829  0.2534
 5207TIP3   OH237255   6.912   1.909   7.294 -0.3273 -0.8824 -0.3001
 5207TIP3    H137256   6.906   1.834   7.235  0.5311 -0.3667 -1.0754
 5207TIP3    H237257   7.006   1.928   7.299 -0.3639 -0.9964  1.3558
 5208TIP3   OH237258   6.349   2.056   7.878  0.8612  1.0180  0.0918
 5208TIP3    H137259   6.384   1.981   7.924  2.7398  0.3967 -2.1290
 5208TIP3    H237260   6.388   2.132   7.922  0.1047  0.6664  1.4272
 5209TIP3   OH237261   1.943   6.071   1.282  0.1186  0.2995 -0.2951
 5209TIP3    H137262   1.969   5.983   1.254 -0.8702  0.2506 -1.0957
 5209TIP3    H237263   2.025   6.121   1.281  1.3782 -1.2913  3.1301
 5210TIP3   OH237264   1.189   0.446   7.609  0.7672 -0.4186 -0.2124
 5210TIP3    H137265   1.282   0.430   7.626  0.9833  1.9434  1.4181
 5210TIP3    H237266   1.186   0.488   7.523  1.1730 -0.7545 -0.3900
 5211TIP3   OH237267   2.720   1.121   1.881  0.5055 -0.2821  0.0650
 5211TIP3    H137268   2.636   1.141   1.923 -1.0974 -3.4834 -1.3002
 5211TIP3    H237269   2.769   1.073   1.947  0.6375  0.1997  0.3258
 5212TIP3   OH237270   1.396   0.359   6.452  0.4263 -0.1692  0.3904
 5212TIP3    H137271   1.304   0.339   6.440  0.1751  0.7499  0.7443
 5212TIP3    H237272   1.425   0.390   6.366  0.6346 -1.2773  0.0424
 5213TIP3   OH237273   4.796   1.398   1.083  0.6291  0.1392  0.1680
 5213TIP3    H137274   4.775   1.376   1.174  2.3262  0.4090  0.6680
 5213TIP3    H237275   4.865   1.336   1.059  0.5966  0.4448 -0.7555
 5214TIP3   OH237276   3.822   4.737   7.762 -0.2263 -0.1810 -0.1761
 5214TIP3    H137277   3.875   4.657   7.770 -1.7399 -1.1014  1.4754
 5214TIP3    H237278   3.792   4.737   7.671 -0.4976 -1.7251 -0.1114
 5215TIP3   OH237279   2.514   5.112   1.509  0.1838  0.6195  0.6290
 5215TIP3    H137280   2.443   5.089   1.450  1.1515 -0.7227 -0.0712
 5215TIP3    H237281   2.551   5.192   1.472  1.8062 -1.0610 -1.6265
 5216TIP3   OH237282   0.138   4.540   0.269 -0.1054 -0.1648  0.2679
 5216TIP3    H137283   0.118   4.592   0.348 -0.0630 -0.9244  0.7936
 5216TIP3    H237284   0.225   4.505   0.285 -0.3907 -0.9194  0.2171
 5217TIP3   OH237285   6.120   6.008   0.511  0.1062  0.8974 -0.0365
 5217TIP3    H137286   6.139   6.100   0.530 -1.6196  1.3184 -0.2144
 5217TIP3    H237287   6.101   6.006   0.417 -0.8008  0.5345  0.1471
 5218TIP3   OH237288   2.293   5.512   7.640  0.0412 -0.0317 -0.0304
 5218TIP3    H137289   2.266   5.429   7.602 -0.2173 -0.6833  1.5039
 5218TIP3    H237290   2.368   5.491   7.695 -1.5404  0.2004  2.4041
 5219TIP3   OH237291   3.285   1.859   7.343 -0.1020  0.1340  0.7047
 5219TIP3    H137292   3.300   1.887   7.433 -1.7089 -0.8297  1.3107
 5219TIP3    H237293   3.356   1.798   7.324  0.9647  1.2822  0.8506
 5220TIP3   OH237294   6.352   6.057   1.344 -0.3563 -0.0103 -0.0854
 5220TIP3    H137295   6.291   6.010   1.287  1.7755 -0.7121 -1.9013
 5220TIP3    H237296   6.299   6.129   1.380 -2.3114 -0.6919 -1.4047
 5221TIP3   OH237297   0.508   5.852   1.574  0.6190 -0.1928 -0.4329
 5221TIP3    H137298   0.473   5.893   1.496 -0.3255 -1.0537 -0.4952
 5221TIP3    H237299   0.539   5.766   1.544 -3.7876 -2.4822  0.7283
 5222TIP3   OH237300   2.582   2.237   1.454 -0.0943  0.4011 -0.4070
 5222TIP3    H137301   2.639   2.263   1.382 -1.3152 -1.8270 -2.2948
 5222TIP3    H237302   2.499   2.280   1.436  0.2117  1.6725  0.9993
 5223TIP3   OH237303   0.144   6.121   8.251  0.1575  0.6848  0.3316
 5223TIP3    H137304   0.143   6.098   8.158  2.5762  0.1531  0.3726
 5223TIP3    H237305   0.236   6.118   8.275 -0.5049 -0.4864  3.0844
 5224TIP3   OH237306   0.223   6.165   0.324 -0.6027  0.3332  0.8306
 5224TIP3    H137307   0.223   6.071   0.309 -0.1230 -0.0204  2.7341
 5224TIP3    H237308   0.139   6.183   0.368 -1.1446  0.9818 -0.4287
 5225TIP3   OH237309   4.404   6.525   1.561 -0.0084 -0.1007  0.0767
 5225TIP3    H137310   4.481   6.550   1.509  1.5268 -1.6221  1.5048
 5225TIP3    H237311   4.357   6.462   1.505  0.8163 -0.5963 -0.0808
 5226TIP3   OH237312   0.751   1.195   2.093  0.8826  0.0771  0.1175
 5226TIP3    H137313   0.784   1.131   2.156  0.4824  0.0636  0.3170
 5226TIP3    H237314   0.789   1.278   2.121  1.7706 -0.1436 -0.4126
 5227TIP3   OH237315   3.117   4.173   2.043  0.1023 -0.1453 -0.4620
 5227TIP3    H137316   3.061   4.135   1.976 -0.9325  2.2704 -1.0848
 5227TIP3    H237317   3.204   4.177   2.003 -0.3821  0.7321 -1.4750
 5228TIP3   OH237318   2.000   0.053   7.261  0.4555  0.7086  0.2136
 5228TIP3    H137319   2.072   0.096   7.307  0.6668  1.4828 -0.7862
 5228TIP3    H237320   1.992   0.101   7.178 -0.0303 -0.5024 -0.4802
 5229TIP3   OH237321   2.532   4.408   8.055 -0.3944  0.3684 -0.0554
 5229TIP3    H137322   2.516   4.493   8.015  0.4307 -0.0974 -1.4614
 5229TIP3    H237323   2.603   4.370   8.003  0.1993 -0.6153  1.3958
 5230TIP3   OH237324   0.918   0.196   1.208 -0.7287 -0.6590  0.7803
 5230TIP3    H137325   0.851   0.202   1.141 -0.3160  0.3964  0.4434
 5230TIP3    H237326   0.950   0.286   1.219  2.0314 -1.3476 -0.5352
 5231TIP3   OH237327   2.528   6.011   6.292  0.2763  0.4245  0.0011
 5231TIP3    H137328   2.608   5.980   6.333 -1.2177 -2.1115  1.2448
 5231TIP3    H237329   2.493   5.935   6.247 -1.9110  1.1687  0.3066
 5232TIP3   OH237330   3.414   6.487   1.374 -0.0117  0.0559  0.0228
 5232TIP3    H137331   3.342   6.479   1.312 -1.3531 -0.2336  1.5587
 5232TIP3    H237332   3.471   6.413   1.354 -0.3564  0.0316 -0.9274
 5233TIP3   OH237333   2.018   6.440   0.474 -0.0211 -0.3384  0.2059
 5233TIP3    H137334   2.080   6.454   0.403 -1.9110  2.1255 -1.1151
 5233TIP3    H237335   2.048   6.499   0.544 -1.1180  1.2735 -0.6443
 5234TIP3   OH237336   1.562   2.500   0.556 -0.0530 -0.0863  0.4734
 5234TIP3    H137337   1.634   2.496   0.619  1.1299  0.6461 -0.7896
 5234TIP3    H237338   1.511   2.577   0.582 -0.7579 -0.9078  1.6950
 5235TIP3   OH237339   3.989   0.726   6.919  0.2343 -0.3721  0.5920
 5235TIP3    H137340   4.048   0.800   6.911  1.4397 -1.3066  0.4754
 5235TIP3    H237341   3.982   0.691   6.830  0.4039 -0.9220  0.7890
 5236TIP3   OH237342   4.098   6.775   7.774  0.0605 -0.5299  0.1728
 5236TIP3    H137343   4.042   6.848   7.802 -0.4268 -0.8023 -0.0753
 5236TIP3    H237344   4.139   6.807   7.694  2.4731  0.7584  1.7921
 5237TIP3   OH237345   4.972   1.491   1.615 -0.1339  0.2269  0.1187
 5237TIP3    H137346   5.032   1.509   1.687  0.8831 -1.2360 -0.3234
 5237TIP3    H237347   4.983   1.398   1.596 -3.9434 -0.6311  1.2742
 5238TIP3   OH237348   3.856   6.207   7.271 -0.0173  0.1972 -0.6340
 5238TIP3    H137349   3.842   6.186   7.179 -2.0646  2.0946 -0.8347
 5238TIP3    H237350   3.911   6.285   7.269  0.1388  0.0985 -0.2324
 5239TIP3   OH237351   0.856   3.236   6.456  0.2590 -0.2059  0.2851
 5239TIP3    H137352   0.879   3.327   6.441  0.7283 -0.2134  0.9000
 5239TIP3    H237353   0.912   3.187   6.396  0.0100 -0.0982 -0.0422
 5240TIP3   OH237354   1.615   5.236   1.087 -0.2896 -0.4820  0.3069
 5240TIP3    H137355   1.689   5.177   1.075  1.8980  2.2850 -1.0389
 5240TIP3    H237356   1.608   5.283   1.004 -2.2183  0.7967  1.1085
 5241TIP3   OH237357   2.937   5.792   6.665 -0.9965 -0.0109  0.1967
 5241TIP3    H137358   2.894   5.777   6.749 -1.1720 -0.1437  0.0855
 5241TIP3    H237359   3.025   5.820   6.687 -1.9012  2.9527  0.5204
 5242TIP3   OH237360   0.457   6.816   0.527  0.3677  0.2489  0.5815
 5242TIP3    H137361   0.546   6.832   0.557  0.1689 -0.8200  1.8618
 5242TIP3    H237362   0.451   6.721   0.520 -0.0832  0.3816 -1.4854
 5243TIP3   OH237363   4.719   0.841   7.744  0.0140 -0.0625 -0.7525
 5243TIP3    H137364   4.749   0.751   7.736 -0.4882 -0.3369  0.3012
 5243TIP3    H237365   4.625   0.834   7.758  0.4053  0.3808  2.9996
 5244TIP3   OH237366   3.958   2.810   0.896  0.7257 -0.3594  0.5258
 5244TIP3    H137367   3.883   2.840   0.843 -0.3110 -0.6695  1.7641
 5244TIP3    H237368   4.021   2.882   0.892  0.3039 -0.0299 -0.4255
 5245TIP3   OH237369   3.298   1.459   1.096 -0.4174 -0.1066 -0.2064
 5245TIP3    H137370   3.304   1.486   1.004  0.3854  0.8014  0.0917
 5245TIP3    H237371   3.310   1.364   1.094  1.1892  0.0683 -0.9292
 5246TIP3   OH237372   1.612   1.561   0.769  0.2192 -0.4408  0.2882
 5246TIP3    H137373   1.534   1.506   0.762  1.5662 -2.6338  1.3977
 5246TIP3    H237374   1.654   1.555   0.683  0.6815 -1.7184  0.5857
 5247TIP3   OH237375   6.257   3.215   7.881  0.1909 -0.9038  0.3402
 5247TIP3    H137376   6.184   3.277   7.876 -1.5091 -2.6435  1.9373
 5247TIP3    H237377   6.314   3.251   7.949 -0.9335 -1.1899  1.4726
 5248TIP3   OH237378   0.352   3.328   1.445 -0.4640 -0.7282  0.1648
 5248TIP3    H137379   0.330   3.409   1.491  0.3583 -0.5675  0.2883
 5248TIP3    H237380   0.443   3.340   1.418 -0.2104 -1.7658  0.5185
 5249TIP3   OH237381   6.341   6.897   1.237  0.4366 -0.1180  0.4360
 5249TIP3    H137382   6.292   6.937   1.165  0.8943 -0.1363  0.1106
 5249TIP3    H237383   6.302   6.935   1.316 -0.5141 -0.6020  0.2127
 5250TIP3   OH237384   3.527   4.027   1.593 -0.5958  0.2028  0.0719
 5250TIP3    H137385   3.550   3.982   1.674  0.9526  1.3657  0.3482
 5250TIP3    H237386   3.487   4.109   1.622 -1.3598  0.0027 -0.3838
 5251TIP3   OH237387   4.388   2.446   7.944 -0.2035 -0.6641 -0.1020
 5251TIP3    H137388   4.446   2.522   7.940  0.7357 -1.3574  0.1184
 5251TIP3    H237389   4.385   2.412   7.855 -0.3438 -0.5732 -0.1319
 5252TIP3   OH237390   4.581   4.223   0.829 -0.8847 -0.7537 -0.1002
 5252TIP3    H137391   4.661   4.275   0.830 -1.0376 -0.5150  0.7651
 5252TIP3    H237392   4.573   4.192   0.739  0.6950 -1.5907  0.0074
 5253TIP3   OH237393   3.508   4.772   7.925  0.4745  0.3013  0.1653
 5253TIP3    H137394   3.509   4.748   7.832  1.0773  0.0846  0.2265
 5253TIP3    H237395   3.531   4.865   7.925  3.6833 -0.3625  0.2698
 5254TIP3   OH237396   2.739   4.206   6.810  0.3379 -0.1222 -0.6330
 5254TIP3    H137397   2.742   4.216   6.905 -0.1372  1.0802 -0.7247
 5254TIP3    H237398   2.709   4.116   6.796 -0.5277 -0.0098  0.3618
 5255TIP3   OH237399   1.042   5.901   7.421  0.7897  0.2282  0.1444
 5255TIP3    H137400   1.005   5.945   7.344  0.9546 -0.0705 -0.1073
 5255TIP3    H237401   0.988   5.931   7.494 -0.6614 -1.0369 -0.3590
 5256TIP3   OH237402   5.996   6.226   5.934 -0.2717  0.9245 -0.1535
 5256TIP3    H137403   6.048   6.148   5.953 -0.4130  0.2899 -2.1074
 5256TIP3    H237404   5.908   6.203   5.962 -0.0126  0.9947  0.7362
 5257TIP3   OH237405   1.849   6.372   1.732  0.2107 -0.1090  0.0049
 5257TIP3    H137406   1.790   6.298   1.746 -1.5812  1.2562  0.0160
 5257TIP3    H237407   1.832   6.430   1.806  0.9194  0.7469 -0.4937
 5258TIP3   OH237408   6.353   0.782   2.025  0.6923 -0.0805 -0.4736
 5258TIP3    H137409   6.382   0.822   1.943  1.3932  0.8538  0.2060
 5258TIP3    H237410   6.433   0.777   2.078 -0.0977  1.2051  0.9058
 5259TIP3   OH237411   2.832   0.468   0.153 -0.1141  0.7514 -0.3158
 5259TIP3    H137412   2.827   0.372   0.144  1.0831  0.6397  0.1175
 5259TIP3    H237413   2.785   0.501   0.076 -1.1937 -0.1722 -0.0801
 5260TIP3   OH237414   2.583   5.815   6.725 -0.2509 -0.0884  0.3557
 5260TIP3    H137415   2.653   5.772   6.775 -0.0274  0.7191  0.7547
 5260TIP3    H237416   2.569   5.898   6.771 -1.2100 -0.0750  0.0504
 5261TIP3   OH237417   2.031   4.634   8.043  0.6396 -0.2553  0.0094
 5261TIP3    H137418   2.093   4.570   8.077  2.0136  0.5927 -0.7860
 5261TIP3    H237419   1.954   4.626   8.099  1.4605 -1.3615  1.0127
 5262TIP3   OH237420   5.439   4.085   7.556  0.0524  0.7348 -0.4227
 5262TIP3    H137421   5.451   3.996   7.522 -0.6335  0.5347 -0.1679
 5262TIP3    H237422   5.371   4.076   7.623  1.4691  1.1074  1.1009
 5263TIP3   OH237423   1.367   4.567   6.344  0.1160 -0.7366  0.3765
 5263TIP3    H137424   1.372   4.542   6.436 -2.5180 -3.0153  0.0566
 5263TIP3    H237425   1.309   4.643   6.343  0.6047 -0.3597  0.6433
 5264TIP3   OH237426   1.374   1.212   1.464 -0.3301 -0.0375 -0.2805
 5264TIP3    H137427   1.368   1.126   1.505 -1.2451 -0.1912 -0.7164
 5264TIP3    H237428   1.453   1.251   1.501 -0.9091 -0.3229  1.3448
 5265TIP3   OH237429   3.841   5.712   7.138 -0.1229  0.2299  0.2226
 5265TIP3    H137430   3.875   5.790   7.094  3.1028 -1.0320  0.2566
 5265TIP3    H237431   3.824   5.741   7.228  1.2249  0.8868  0.2865
 5266TIP3   OH237432   3.665   2.282   1.291 -0.0742  0.3337  0.4049
 5266TIP3    H137433   3.624   2.360   1.254 -0.7317 -0.0889  0.2174
 5266TIP3    H237434   3.629   2.209   1.239  2.4490  0.0603 -1.1639
 5267TIP3   OH237435   2.597   4.292   0.016  0.3989  0.6571 -0.0951
 5267TIP3    H137436   2.569   4.342  -0.060 -1.6942 -1.2576 -0.7106
 5267TIP3    H237437   2.672   4.241  -0.015  0.9791  1.5649 -0.1895
 5268TIP3   OH237438   5.168   5.893   0.519  0.3966 -0.0018 -0.4390
 5268TIP3    H137439   5.229   5.942   0.465  1.9125 -0.1518  1.0497
 5268TIP3    H237440   5.156   5.948   0.597 -1.5058  0.0862 -0.7356
 5269TIP3   OH237441   0.246   0.568   7.481  0.1209  0.0077  0.3004
 5269TIP3    H137442   0.228   0.662   7.483 -1.3525 -0.2315  2.2532
 5269TIP3    H237443   0.322   0.557   7.538  0.9518  0.0946 -0.7656
 5270TIP3   OH237444   4.498   6.360   7.165  0.0015  0.0283 -0.4513
 5270TIP3    H137445   4.553   6.340   7.241 -1.8159 -1.4721  0.5553
 5270TIP3    H237446   4.451   6.439   7.191 -0.0716 -0.0590 -0.3154
 5271TIP3   OH237447   5.402   3.374   0.305 -0.1431 -0.2138  0.0477
 5271TIP3    H137448   5.396   3.457   0.354 -0.2078  0.3724 -0.9246
 5271TIP3    H237449   5.494   3.352   0.308 -0.2215 -0.4727  0.8860
 5272TIP3   OH237450   5.554   2.855   1.187  0.0617  0.4802 -0.5634
 5272TIP3    H137451   5.491   2.922   1.210 -0.1990 -0.3264  1.2324
 5272TIP3    H237452   5.502   2.786   1.145 -0.3692 -0.3044  1.1553
 5273TIP3   OH237453   2.209   5.138   7.148 -0.3440 -0.1253 -0.2579
 5273TIP3    H137454   2.186   5.183   7.229  2.7909 -0.5140  0.9928
 5273TIP3    H237455   2.236   5.208   7.089  0.6483 -0.0509  0.2684
 5274TIP3   OH237456   7.012   1.928   6.402  0.2465  0.0397 -0.0155
 5274TIP3    H137457   6.954   1.925   6.478  2.5327 -0.0404  1.8297
 5274TIP3    H237458   7.079   1.991   6.426  2.4403 -1.8455 -0.8549
 5275TIP3   OH237459   1.215   1.369   6.361 -0.2505  0.1623  0.1741
 5275TIP3    H137460   1.129   1.410   6.361 -0.9155 -1.1896 -0.7317
 5275TIP3    H237461   1.250   1.387   6.274  0.5905  1.0557  0.6686
 5276TIP3   OH237462   1.364   5.689   0.336  0.0211 -0.8086 -0.2989
 5276TIP3    H137463   1.421   5.763   0.356 -0.8682 -0.2545  0.2525
 5276TIP3    H237464   1.314   5.716   0.259  0.5653 -1.3397 -0.8544
 5277TIP3   OH237465   2.666   5.500   8.022 -0.2496 -0.4780  0.5734
 5277TIP3    H137466   2.736   5.519   7.959 -0.8442  1.2829  0.3782
 5277TIP3    H237467   2.707   5.512   8.108 -0.2565  0.4887  0.4595
 5278TIP3   OH237468   4.916   3.405   6.844  0.2123  0.1456  0.0626
 5278TIP3    H137469   4.902   3.352   6.923 -0.5965 -1.1509 -0.9024
 5278TIP3    H237470   4.850   3.373   6.782  0.0558  1.9456 -0.7476
 5279TIP3   OH237471   2.055   2.868   6.778  0.4480  0.1216 -0.2444
 5279TIP3    H137472   2.085   2.906   6.695 -2.7047  1.8747 -0.7746
 5279TIP3    H237473   2.032   2.778   6.756  3.0255 -0.5944 -0.2973
 5280TIP3   OH237474   6.098   6.042   0.195  0.0543  0.5090 -0.1994
 5280TIP3    H137475   6.151   5.964   0.181  0.6019  0.9970 -0.8913
 5280TIP3    H237476   6.137   6.109   0.138  0.7661  1.8537  1.7542
 5281TIP3   OH237477   3.253   4.139   0.882  0.0939  0.0279 -0.0931
 5281TIP3    H137478   3.265   4.138   0.787 -0.2042  0.1397 -0.1331
 5281TIP3    H237479   3.336   4.172   0.917 -0.7288  2.8541 -0.4810
 5282TIP3   OH237480   5.953   2.270   1.864  0.0077  0.3078 -0.1609
 5282TIP3    H137481   6.027   2.241   1.918  0.4586  0.3255 -0.7644
 5282TIP3    H237482   5.877   2.225   1.902 -0.2182  2.5548  2.3821
 5283TIP3   OH237483   6.243   0.372   1.653  0.1530 -0.2484 -0.9260
 5283TIP3    H137484   6.273   0.450   1.700 -1.6107 -0.0845  0.0242
 5283TIP3    H237485   6.290   0.299   1.695 -2.5442 -0.3086  2.4178
 5284TIP3   OH237486   3.028   5.252   0.968 -0.8360 -0.1944 -0.5361
 5284TIP3    H137487   3.078   5.171   0.957  1.2823  1.1054 -1.1625
 5284TIP3    H237488   3.007   5.279   0.879 -1.4166  0.0018 -0.3394
 5285TIP3   OH237489   3.036   4.075   7.830  0.0454  0.1327  0.5823
 5285TIP3    H137490   2.990   4.086   7.747  0.7409  2.0144  0.3922
 5285TIP3    H237491   2.986   4.009   7.877 -1.4170  0.3520 -0.6046
 5286TIP3   OH237492   3.924   1.927   6.327 -0.2856  0.4303 -0.3729
 5286TIP3    H137493   4.000   1.969   6.367  1.2718 -1.8072 -0.8089
 5286TIP3    H237494   3.888   1.993   6.268 -0.9311  2.8063  2.4456
 5287TIP3   OH237495   5.687   4.731   0.129  0.7366  0.1634  0.5141
 5287TIP3    H137496   5.683   4.826   0.141  2.0845  0.2434  0.4901
 5287TIP3    H237497   5.638   4.715   0.049  0.9217  0.9081  0.2414
 5288TIP3   OH237498   1.742   4.279   1.309  0.0934 -0.2090  0.0224
 5288TIP3    H137499   1.684   4.212   1.274  0.7015 -0.5661 -0.3217
 5288TIP3    H237500   1.779   4.321   1.231 -1.1422  1.3078  0.2023
 5289TIP3   OH237501   0.845   3.534   1.609  0.1203 -0.4891  0.1979
 5289TIP3    H137502   0.889   3.529   1.693  0.0914  1.0555  0.3262
 5289TIP3    H237503   0.798   3.451   1.601  1.6922 -1.4593  0.8012
 5290TIP3   OH237504   6.353   2.105   6.641 -0.5603  0.0482  0.1405
 5290TIP3    H137505   6.355   2.141   6.552 -0.1012  0.4257  0.2949
 5290TIP3    H237506   6.426   2.043   6.643 -2.0137 -1.7492 -0.4559
 5291TIP3   OH237507   5.385   1.290   7.541 -0.1427  0.3377  0.6685
 5291TIP3    H137508   5.468   1.279   7.496 -0.4012 -0.5613  0.3966
 5291TIP3    H237509   5.324   1.321   7.474 -0.8641 -2.2704  0.0132
 5292TIP3   OH237510   6.493   0.932   6.784 -0.0487  0.3961 -0.2430
 5292TIP3    H137511   6.573   0.985   6.774  0.6698 -0.9544 -2.0591
 5292TIP3    H237512   6.427   0.978   6.733  0.5369 -0.3204 -1.6963
 5293TIP3   OH237513   5.613   5.639   7.397 -1.0176 -0.5384  0.0879
 5293TIP3    H137514   5.629   5.700   7.326 -2.7777  0.8429  0.8026
 5293TIP3    H237515   5.574   5.692   7.466 -0.1005 -1.9879  1.8036
 5294TIP3   OH237516   1.180   4.031   7.059  0.4833  0.1829  0.6020
 5294TIP3    H137517   1.267   4.048   7.025 -0.3247 -0.2162 -1.8421
 5294TIP3    H237518   1.188   3.946   7.104  1.4264  0.3367  0.7312
 5295TIP3   OH237519   3.335   6.174   0.615 -0.1760 -1.1163 -0.3412
 5295TIP3    H137520   3.394   6.099   0.622  1.4093 -0.0013 -1.0930
 5295TIP3    H237521   3.316   6.181   0.522 -0.6991 -0.8470 -0.2211
 5296TIP3   OH237522   0.094   1.192   1.005 -0.1499  0.5086 -0.5241
 5296TIP3    H137523   0.017   1.246   1.024  1.0257  1.9811  0.3681
 5296TIP3    H237524   0.141   1.188   1.088 -0.5735 -2.6569 -0.3513
 5297TIP3   OH237525   5.818   2.276   1.144  0.1143 -0.0191  0.3765
 5297TIP3    H137526   5.883   2.298   1.077  0.4596 -0.1021  0.6751
 5297TIP3    H237527   5.822   2.351   1.205  2.6413 -1.6225  2.4191
 5298TIP3   OH237528   4.933   4.787   1.898  0.1747  0.0842 -0.3227
 5298TIP3    H137529   4.981   4.861   1.861 -0.0854  0.2472 -0.3359
 5298TIP3    H237530   4.859   4.827   1.944 -1.6217 -0.3062 -2.7357
 5299TIP3   OH237531   4.435   5.482   7.340  0.1289  0.3254  0.1112
 5299TIP3    H137532   4.528   5.465   7.324  0.9781  2.8148  1.6689
 5299TIP3    H237533   4.417   5.437   7.423  0.4498  1.1667  0.6568
 5300TIP3   OH237534   6.211   6.280   6.468 -0.4647 -0.0155 -0.3285
 5300TIP3    H137535   6.170   6.245   6.389 -0.1793 -0.2942 -0.3517
 5300TIP3    H237536   6.300   6.301   6.442 -0.4793  0.2428 -0.1765
 5301TIP3   OH237537   5.659   4.939   0.856  0.2777 -0.1321 -0.3202
 5301TIP3    H137538   5.572   4.955   0.893  0.2370 -0.8759 -0.0787
 5301TIP3    H237539   5.710   5.016   0.880 -0.2147  0.1517 -0.1623
 5302TIP3   OH237540   5.960   6.424   6.594  0.1371 -0.2607 -0.0107
 5302TIP3    H137541   5.948   6.472   6.513  0.4109 -1.1982 -0.6234
 5302TIP3    H237542   5.885   6.448   6.648  0.7636  1.5910  0.0908
 5303TIP3   OH237543   1.466   5.244   7.383 -0.1119 -0.3863  0.1485
 5303TIP3    H137544   1.559   5.248   7.362 -0.2049 -0.5886 -0.3137
 5303TIP3    H237545   1.427   5.313   7.329 -0.3885 -1.0793 -0.5707
 5304TIP3   OH237546   5.658   2.372   1.877 -0.4513  0.7524 -0.9477
 5304TIP3    H137547   5.691   2.419   1.953  0.7424  1.3830 -1.8163
 5304TIP3    H237548   5.697   2.285   1.883  1.1043  1.3587 -1.7384
 5305TIP3   OH237549   5.574   1.681   0.339  0.3575 -0.1547 -0.3114
 5305TIP3    H137550   5.622   1.753   0.378  1.0594 -0.8530  0.1334
 5305TIP3    H237551   5.601   1.680   0.247  0.7667 -0.1955 -0.1899
 5306TIP3   OH237552   3.762   6.981   1.117  0.1716 -0.4668  0.4046
 5306TIP3    H137553   3.734   6.901   1.071  1.5229  0.2557 -1.8387
 5306TIP3    H237554   3.799   6.949   1.199  0.2863 -2.1480 -0.2565
 5307TIP3   OH237555   3.262   6.380   1.015  0.2124  0.3750 -0.1838
 5307TIP3    H137556   3.316   6.304   0.992 -0.6129 -0.2006 -0.2801
 5307TIP3    H237557   3.214   6.400   0.935  0.9044  1.4220 -0.3483
 5308TIP3   OH237558   6.511   2.089   1.433 -0.4541  0.1536  0.8472
 5308TIP3    H137559   6.540   2.078   1.523 -0.8056 -2.1369  0.7378
 5308TIP3    H237560   6.419   2.115   1.440 -0.5063 -0.1132  1.1579
 5309TIP3   OH237561   4.168   1.860   7.558 -0.0378  0.0953 -0.2866
 5309TIP3    H137562   4.102   1.807   7.514  2.4217 -2.3042 -1.3848
 5309TIP3    H237563   4.177   1.820   7.645 -0.1119  0.5204 -0.0767
 5310TIP3   OH237564   0.142   3.914   0.609  0.1169  0.0618  0.1723
 5310TIP3    H137565   0.151   3.872   0.694 -0.9281 -0.8462 -0.1542
 5310TIP3    H237566   0.160   4.007   0.626 -1.2967  0.1106  1.6314
 5311TIP3   OH237567   2.041   2.220   0.861  0.3405  0.2733  0.2058
 5311TIP3    H137568   2.002   2.165   0.929  1.3132  0.0673  0.6213
 5311TIP3    H237569   1.975   2.222   0.791  0.3807 -1.7015  0.0308
 5312TIP3   OH237570   0.697   2.588   5.906  0.5901 -0.1031 -0.5833
 5312TIP3    H137571   0.781   2.616   5.869  1.6329  0.6100  2.1139
 5312TIP3    H237572   0.700   2.617   5.997 -1.0474 -3.2961  0.6174
 5313TIP3   OH237573   0.118   5.561   1.124  0.1481  0.3517 -0.0637
 5313TIP3    H137574   0.166   5.559   1.206 -0.0923 -0.4555  0.0632
 5313TIP3    H237575   0.119   5.470   1.093 -1.0848  0.3503 -0.1699
 5314TIP3   OH237576   0.810   0.392   7.978 -0.4503 -0.0738 -0.0246
 5314TIP3    H137577   0.798   0.311   7.928 -0.6715  0.0570 -0.1905
 5314TIP3    H237578   0.805   0.365   8.070  2.4040 -0.7177  0.0388
 5315TIP3   OH237579   4.436   1.863   1.020 -0.6917  0.3995  0.6500
 5315TIP3    H137580   4.437   1.836   1.111  0.4321 -0.3468  0.4320
 5315TIP3    H237581   4.462   1.956   1.023  2.5115 -0.3944  0.9052
 5316TIP3   OH237582   1.311   4.751   0.406 -0.3324  0.4936  0.3588
 5316TIP3    H137583   1.328   4.844   0.416  4.9493 -0.2425  1.3187
 5316TIP3    H237584   1.337   4.730   0.316 -0.9599 -0.1605  0.3142
 5317TIP3   OH237585   2.450   0.520   1.217 -0.1195 -0.0689 -0.1899
 5317TIP3    H137586   2.409   0.535   1.131  1.9978  1.2463 -1.0431
 5317TIP3    H237587   2.412   0.589   1.273 -1.6338 -1.0346  0.0323
 5318TIP3   OH237588   2.701   1.083   6.828  0.8014  0.1870 -1.0073
 5318TIP3    H137589   2.732   1.017   6.767  0.5014  1.9943 -3.2850
 5318TIP3    H237590   2.780   1.119   6.868  0.9234 -2.2256  1.1993
 5319TIP3   OH237591   2.744   4.618   7.872  0.8744 -0.1978 -0.5312
 5319TIP3    H137592   2.789   4.565   7.937 -1.2125  0.4027  1.5441
 5319TIP3    H237593   2.660   4.573   7.858 -0.0545  1.3706 -0.3213
 5320TIP3   OH237594   2.976   6.556   6.461 -0.2380  0.1863  0.4224
 5320TIP3    H137595   2.992   6.617   6.388 -1.0736 -1.9045 -1.6133
 5320TIP3    H237596   2.891   6.583   6.496 -0.4048  0.4728 -0.1840
 5321TIP3   OH237597   4.256   1.944   8.105  0.0288 -0.5047 -0.5489
 5321TIP3    H137598   4.205   1.937   8.185  1.7769  2.6122  1.0313
 5321TIP3    H237599   4.209   2.008   8.051  0.6001  0.0134 -0.4526
 5322TIP3   OH237600   6.487   3.517   7.791 -0.5137 -0.2851  0.0182
 5322TIP3    H137601   6.498   3.424   7.773  1.0194  0.1672 -1.6045
 5322TIP3    H237602   6.415   3.521   7.855 -0.4403 -2.5690  0.3027
 5323TIP3   OH237603   1.172   6.784   1.517 -0.1304 -0.3520  0.2686
 5323TIP3    H137604   1.243   6.781   1.452  0.4609  1.0261  0.8109
 5323TIP3    H237605   1.167   6.695   1.551  1.0469 -0.5780 -0.1015
 5324TIP3   OH237606   0.126   5.794   1.421 -0.6312 -0.1724  0.0316
 5324TIP3    H137607   0.075   5.836   1.491 -0.9425  0.4036 -0.5318
 5324TIP3    H237608   0.123   5.856   1.348  2.9542  1.0638  0.7378
 5325TIP3   OH237609   1.505   6.603   7.252 -0.4708  0.2115  0.0624
 5325TIP3    H137610   1.500   6.659   7.329 -1.7457  1.0674 -0.5962
 5325TIP3    H237611   1.599   6.598   7.232 -0.1621  0.3164  1.3919
 5326TIP3   OH237612   6.834   1.790   7.980 -0.2705  0.4912 -0.2687
 5326TIP3    H137613   6.804   1.807   7.891 -0.9962 -0.6303 -0.2664
 5326TIP3    H237614   6.877   1.871   8.008 -0.8863  1.1839 -1.2890
 5327TIP3   OH237615   3.302   1.434   0.824  0.4029 -0.0986 -0.2828
 5327TIP3    H137616   3.352   1.419   0.744 -0.7616 -1.5851 -0.7832
 5327TIP3    H237617   3.222   1.383   0.812 -1.2880  2.2305  0.4520
 5328TIP3   OH237618   2.791   6.594   1.478  0.2589 -0.2824  0.4737
 5328TIP3    H137619   2.739   6.595   1.559  0.4211 -1.1505  0.5942
 5328TIP3    H237620   2.834   6.508   1.478 -0.5329 -0.6978 -1.0404
 5329TIP3   OH237621   1.088   0.678   0.565  0.5488  0.6017  0.1148
 5329TIP3    H137622   0.997   0.699   0.586  0.8944  0.8706  1.4678
 5329TIP3    H237623   1.097   0.585   0.587  0.8680  0.8438  1.0873
 5330TIP3   OH237624   7.022   1.744   6.205 -0.0835  0.3882  0.2939
 5330TIP3    H137625   7.097   1.759   6.148 -1.1429  0.9992 -0.9997
 5330TIP3    H237626   7.036   1.803   6.279  0.6637  0.5545  0.0311
 5331TIP3   OH237627   4.539   3.578   7.806  0.0145  0.0175  0.3769
 5331TIP3    H137628   4.622   3.601   7.765 -0.3694 -2.1116 -1.8451
 5331TIP3    H237629   4.473   3.621   7.752 -0.4487 -1.5990 -0.3997
 5332TIP3   OH237630   6.943   0.727   7.993 -0.2020 -0.1082 -0.7701
 5332TIP3    H137631   6.920   0.637   8.015 -0.4559  0.4405  1.4183
 5332TIP3    H237632   6.860   0.774   7.994  0.1586  0.5329  0.1703
 5333TIP3   OH237633   4.278   5.550   6.766 -0.6754  0.2019  0.1043
 5333TIP3    H137634   4.290   5.467   6.720  0.9550  1.1262 -1.2463
 5333TIP3    H237635   4.321   5.538   6.850  0.1726 -0.1103 -0.3633
 5334TIP3   OH237636   5.902   5.785   0.718  0.0711 -0.5286  0.1894
 5334TIP3    H137637   5.846   5.817   0.648 -0.9402  1.0192  1.6063
 5334TIP3    H237638   5.990   5.813   0.694 -0.3345  0.4134 -0.2301
 5335TIP3   OH237639   4.320   2.305   7.723  0.0298 -0.0422 -0.6780
 5335TIP3    H137640   4.256   2.349   7.667 -0.7932 -1.0145 -0.5222
 5335TIP3    H237641   4.375   2.255   7.663  1.0870  1.2876 -0.8749
 5336TIP3   OH237642   3.039   6.247   8.269 -0.3119 -0.1493 -0.2676
 5336TIP3    H137643   3.041   6.340   8.291 -1.8520  0.4317 -2.3026
 5336TIP3    H237644   2.980   6.208   8.334 -1.0494  0.6454 -0.4392
 5337TIP3   OH237645   6.087   4.504   5.665 -0.0605  0.1731  0.6880
 5337TIP3    H137646   6.009   4.541   5.624 -0.2795 -0.8359  0.1507
 5337TIP3    H237647   6.056   4.470   5.749  0.1801  1.3459  1.2663
 5338TIP3   OH237648   2.126   1.464   7.125  0.1626  0.2316 -0.0102
 5338TIP3    H137649   2.030   1.473   7.122  0.0680 -0.8028 -0.7736
 5338TIP3    H237650   2.158   1.554   7.131 -0.8191  0.7268 -1.4791
 5339TIP3   OH237651   1.195   0.746   6.488  0.6632 -0.4739  0.0168
 5339TIP3    H137652   1.127   0.809   6.512  1.2360 -0.2122  0.9880
 5339TIP3    H237653   1.158   0.700   6.412 -0.9390 -0.8939  0.9932
 5340TIP3   OH237654   4.264   4.846   6.581  0.0383  0.2205  0.0900
 5340TIP3    H137655   4.346   4.808   6.550 -0.2863 -0.5880  0.1771
 5340TIP3    H237656   4.280   4.863   6.674 -0.8726 -2.9575  0.9492
 5341TIP3   OH237657   0.580   2.006   6.279 -0.3394  0.0111 -0.3545
 5341TIP3    H137658   0.565   2.100   6.268 -0.8172 -0.1638 -1.2983
 5341TIP3    H237659   0.501   1.975   6.325 -0.3770  0.0006 -0.4260
 5342TIP3   OH237660   2.862   4.990   7.361 -0.7460 -0.1130  0.5389
 5342TIP3    H137661   2.837   5.023   7.447 -0.9134  0.5874  0.2311
 5342TIP3    H237662   2.872   5.069   7.307 -1.2491 -0.5646 -0.2385
 5343TIP3   OH237663   5.095   4.965   6.585  0.2476  0.0657 -0.6668
 5343TIP3    H137664   5.097   5.043   6.640  1.9639 -0.9888  0.8862
 5343TIP3    H237665   5.005   4.933   6.590  0.0868  0.6742  0.5447
 5344TIP3   OH237666   2.268   0.885   1.670  0.4193  0.1617  0.3519
 5344TIP3    H137667   2.354   0.926   1.659  0.8790 -1.1163 -1.0174
 5344TIP3    H237668   2.275   0.838   1.753  1.3011 -0.4990 -0.0800
 5345TIP3   OH237669   2.838   2.299   0.618 -0.1326  0.1808  0.3036
 5345TIP3    H137670   2.771   2.301   0.549  1.4088  0.7163 -1.2369
 5345TIP3    H237671   2.790   2.321   0.697 -1.9426 -0.2856 -0.6001
 5346TIP3   OH237672   0.008   3.704   7.962  0.2303 -0.1709  0.2892
 5346TIP3    H137673  -0.051   3.738   7.894  1.5414  0.2854 -0.6834
 5346TIP3    H237674   0.043   3.623   7.925  1.6251  0.5340  0.0007
 5347TIP3   OH237675   4.600   2.352   1.376  0.4998 -0.6391  0.2120
 5347TIP3    H137676   4.673   2.319   1.427 -0.7043  0.6011  2.9233
 5347TIP3    H237677   4.606   2.447   1.385  0.6090 -0.2962 -2.6142
 5348TIP3   OH237678   4.529   6.211   0.913 -0.3535 -0.3144 -0.4030
 5348TIP3    H137679   4.522   6.202   0.818 -2.5907 -1.2700 -0.2070
 5348TIP3    H237680   4.441   6.233   0.942  0.1817 -0.4999  1.5066
 5349TIP3   OH237681   4.300   3.792   8.274  0.2119 -0.0471 -0.0107
 5349TIP3    H137682   4.310   3.838   8.358 -1.0528  1.5406 -0.6682
 5349TIP3    H237683   4.205   3.780   8.265  0.3955 -1.0017 -0.8057
 5350TIP3   OH237684   4.284   0.808   6.832  0.1268  0.1190  0.3899
 5350TIP3    H137685   4.220   0.767   6.774  0.1085  2.8715 -1.7403
 5350TIP3    H237686   4.367   0.769   6.806 -0.2090 -0.7417  0.5546
 5351TIP3   OH237687   3.464   1.481   5.991 -0.6086  0.7152 -0.2430
 5351TIP3    H137688   3.406   1.556   6.000 -1.7398 -0.0810 -0.7866
 5351TIP3    H237689   3.528   1.492   6.062 -1.2463  1.7496  0.1922
 5352TIP3   OH237690   2.541   4.769   6.717  0.1211 -0.3979  0.3201
 5352TIP3    H137691   2.490   4.729   6.646 -0.9173 -0.3762  1.0199
 5352TIP3    H237692   2.537   4.863   6.699  0.1027 -0.4120  0.2502
 5353TIP3   OH237693   1.283   6.775   1.179  0.1426  0.0849  0.6305
 5353TIP3    H137694   1.362   6.755   1.230 -0.6637 -0.5233  1.6875
 5353TIP3    H237695   1.219   6.711   1.209 -0.6567  0.3296 -0.4893
 5354TIP3   OH237696   2.178   1.713   8.076 -0.0529  0.1299 -0.2897
 5354TIP3    H137697   2.253   1.691   8.021  1.8645  1.8993  1.4279
 5354TIP3    H237698   2.143   1.794   8.038 -0.2339  0.0654 -0.2652
 5355TIP3   OH237699   4.844   3.109   8.038  1.0639 -0.3026  0.1957
 5355TIP3    H137700   4.828   3.190   7.989  1.3067 -0.0433  0.5349
 5355TIP3    H237701   4.891   3.053   7.977 -1.4053 -1.2349 -0.9595
 5356TIP3   OH237702   3.986   6.198   1.727 -0.4683  0.1901  0.4753
 5356TIP3    H137703   3.901   6.156   1.711 -0.9721  0.7684  1.5649
 5356TIP3    H237704   3.968   6.266   1.791  0.9592 -0.1598  1.2935
 5357TIP3   OH237705   3.541   5.692   0.447 -0.4097  0.1415 -0.0133
 5357TIP3    H137706   3.459   5.691   0.496 -1.0935 -1.7272 -1.1020
 5357TIP3    H237707   3.514   5.694   0.355  0.7893  0.3773 -0.3775
 5358TIP3   OH237708   3.052   2.620   6.860  0.7976 -0.4529 -0.0594
 5358TIP3    H137709   3.077   2.533   6.828 -0.3520 -1.0641  0.6567
 5358TIP3    H237710   2.975   2.605   6.914  1.3733  0.8425  1.2034
 5359TIP3   OH237711   1.592   4.918   6.041 -0.5044 -0.0655 -0.4651
 5359TIP3    H137712   1.641   4.838   6.023  0.0288 -0.0604  0.8141
 5359TIP3    H237713   1.541   4.934   5.962 -1.4266 -2.2400 -0.3794
 5360TIP3   OH237714   0.355   2.192   1.788 -0.0380  0.7485 -0.1081
 5360TIP3    H137715   0.302   2.144   1.724 -0.0970 -0.4848  0.8316
 5360TIP3    H237716   0.307   2.184   1.870  0.0778  2.2532  0.1273
 5361TIP3   OH237717   4.053   6.750   0.963  0.0346  0.0452 -0.1738
 5361TIP3    H137718   4.083   6.698   0.889  0.8938 -1.3741  1.1256
 5361TIP3    H237719   4.130   6.799   0.992  0.8228 -2.2778  2.0670
 5362TIP3   OH237720   6.363   1.958   0.638  0.4246 -0.5369 -0.3198
 5362TIP3    H137721   6.389   1.890   0.575 -1.0985 -0.9443 -0.5693
 5362TIP3    H237722   6.276   1.985   0.608  0.8881  1.3765 -0.0674
 5363TIP3   OH237723   5.435   5.921   0.719 -0.0854 -0.7968 -0.3004
 5363TIP3    H137724   5.375   5.846   0.716  0.0593 -1.0395 -4.5352
 5363TIP3    H237725   5.380   5.996   0.741 -1.6343 -1.3268 -2.0405
 5364TIP3   OH237726   0.256   1.546   6.068  0.0195  0.3004  0.5978
 5364TIP3    H137727   0.203   1.469   6.048  0.0819 -0.3011  2.5090
 5364TIP3    H237728   0.193   1.619   6.067 -0.5404 -0.1635  1.2471
 5365TIP3   OH237729   4.091   3.420   6.102 -0.0501  0.0864 -0.2247
 5365TIP3    H137730   4.113   3.435   6.193 -0.3690 -3.4301  0.5828
 5365TIP3    H237731   3.996   3.405   6.102 -0.0862  0.1992 -1.1801
 5366TIP3   OH237732   3.653   3.134   7.320  0.8757 -0.0889 -0.3349
 5366TIP3    H137733   3.590   3.131   7.393  1.4288  2.0631  0.2947
 5366TIP3    H237734   3.598   3.141   7.242  0.2572 -2.7133 -0.2467
 5367TIP3   OH237735   1.647   1.090   1.778  0.2160 -0.5896 -0.0951
 5367TIP3    H137736   1.688   1.177   1.772 -1.8799  0.4838  0.1489
 5367TIP3    H237737   1.639   1.074   1.872  1.3056 -1.4354 -0.1286
 5368TIP3   OH237738   6.811   5.598   6.859  0.0232  0.0448 -0.5577
 5368TIP3    H137739   6.765   5.679   6.839  0.1783  0.6645  1.3129
 5368TIP3    H237740   6.825   5.602   6.954  2.0161 -1.1161 -0.7387
 5369TIP3   OH237741   5.330   6.628   7.700 -0.9966  0.1569 -0.4411
 5369TIP3    H137742   5.305   6.643   7.791 -0.1562 -1.2106  0.0409
 5369TIP3    H237743   5.412   6.579   7.705 -0.1400  1.3445 -1.9492
 5370TIP3   OH237744   5.429   1.285   8.015  0.5236  0.7587 -0.3039
 5370TIP3    H137745   5.435   1.202   7.968  0.9884  0.6889 -0.1277
 5370TIP3    H237746   5.359   1.271   8.079  1.0420  0.2697  0.1717
 5371TIP3   OH237747   5.127   1.602   0.034  0.1031 -0.4213  0.3402
 5371TIP3    H137748   5.194   1.534   0.042  1.2738  0.4064 -1.6181
 5371TIP3    H237749   5.045   1.554   0.021  0.5535 -1.4408  1.1116
 5372TIP3   OH237750   5.870   4.483   1.072  0.0470 -0.0121 -0.0913
 5372TIP3    H137751   5.794   4.471   1.128 -0.2887  1.8250 -0.0721
 5372TIP3    H237752   5.842   4.547   1.006  1.0809 -0.5215 -1.0706
 5373TIP3   OH237753   3.506   5.775   7.846  0.0799 -0.3446  0.3930
 5373TIP3    H137754   3.427   5.721   7.842 -0.4116  0.2020  2.0925
 5373TIP3    H237755   3.479   5.861   7.814 -0.3308  0.1544  2.0049
 5374TIP3   OH237756   3.933   3.401   0.955 -0.3496 -0.2843 -0.0507
 5374TIP3    H137757   4.023   3.424   0.929 -1.2488  0.7018 -2.5893
 5374TIP3    H237758   3.907   3.335   0.891 -1.6026 -0.1812  0.3443
 5375TIP3   OH237759   4.690   2.711   6.683 -0.4721  0.2027 -0.3210
 5375TIP3    H137760   4.615   2.742   6.631  1.6216  3.5218 -1.7123
 5375TIP3    H237761   4.739   2.654   6.623 -0.2449  0.6198 -0.5350
 5376TIP3   OH237762   5.012   0.237   0.588  0.0478  0.0459  0.1286
 5376TIP3    H137763   5.083   0.174   0.598 -0.2253 -0.5346 -1.2578
 5376TIP3    H237764   5.031   0.281   0.504 -0.9496  0.2299 -0.0137
 5377TIP3   OH237765   2.958   3.786   1.366 -0.3971  0.0118  0.2548
 5377TIP3    H137766   2.966   3.881   1.363  2.0653 -0.1508 -0.0712
 5377TIP3    H237767   2.967   3.758   1.276 -0.2221 -0.5736  0.4507
 5378TIP3   OH237768   0.837   5.231   0.443  0.2507  0.5970 -0.4822
 5378TIP3    H137769   0.917   5.211   0.395  1.3542  2.2691  0.5749
 5378TIP3    H237770   0.866   5.257   0.530 -1.6796 -2.8254  1.4588
 5379TIP3   OH237771   5.279   4.184   7.955 -0.0836  0.4348 -0.0548
 5379TIP3    H137772   5.254   4.173   8.047 -0.3683  0.9529 -0.0669
 5379TIP3    H237773   5.246   4.271   7.931  0.5583  0.5760 -0.4596
 5380TIP3   OH237774   3.492   4.846   2.271 -0.1793 -0.1417  0.3435
 5380TIP3    H137775   3.548   4.773   2.296  1.7703  1.3724  0.6849
 5380TIP3    H237776   3.420   4.844   2.334  0.8225 -0.6935  1.5245
 5381TIP3   OH237777   1.626   1.868   7.517 -0.0581 -0.3550  0.1108
 5381TIP3    H137778   1.661   1.880   7.429 -0.7005 -0.7975 -0.2070
 5381TIP3    H237779   1.674   1.792   7.551  0.6795  0.2242  0.4099
 5382TIP3   OH237780   2.553   0.750   6.805  0.2092  0.5117 -0.2285
 5382TIP3    H137781   2.503   0.670   6.820 -0.9958  0.3324 -4.0329
 5382TIP3    H237782   2.550   0.797   6.888 -1.9935 -1.8136  1.1436
 5383TIP3   OH237783   2.847   4.471   8.111 -0.1644 -0.8992 -0.1345
 5383TIP3    H137784   2.901   4.412   8.058  0.8455 -0.6526  0.5881
 5383TIP3    H237785   2.859   4.440   8.201 -2.0727 -1.4855 -0.0478
 5384TIP3   OH237786   2.979   5.877   7.687  0.4858 -0.0675 -0.1571
 5384TIP3    H137787   3.062   5.863   7.732  0.7142  2.2191  0.2311
 5384TIP3    H237788   3.003   5.892   7.596  0.3902 -0.5485 -0.2631
 5385TIP3   OH237789   6.684   7.081   1.485 -0.0607 -0.4143  0.0732
 5385TIP3    H137790   6.665   7.002   1.536  1.1059 -0.2763  0.7572
 5385TIP3    H237791   6.751   7.053   1.423  1.3973  0.3418  1.2507
 5386TIP3   OH237792   1.070   5.962   0.730 -0.5208  0.2863 -0.2571
 5386TIP3    H137793   1.011   5.940   0.803  0.5378  0.8143  0.7784
 5386TIP3    H237794   1.130   5.888   0.726 -0.8428  0.0569 -0.8852
 5387TIP3   OH237795   2.680   5.920   7.370  0.0221  0.2606  0.3773
 5387TIP3    H137796   2.668   5.864   7.447  1.2816 -2.3186 -1.1546
 5387TIP3    H237797   2.591   5.939   7.340 -0.4676  0.5852  1.9426
 5388TIP3   OH237798   4.367   6.621   7.235  0.2840  0.4051 -0.1014
 5388TIP3    H137799   4.315   6.580   7.304  1.1100  1.9465  1.5245
 5388TIP3    H237800   4.421   6.685   7.281  2.5588 -0.0879 -1.9056
 5389TIP3   OH237801   6.149   4.151   0.007 -0.4987 -0.0656 -0.2633
 5389TIP3    H137802   6.152   4.085  -0.062 -1.4930 -1.1120  0.6558
 5389TIP3    H237803   6.143   4.235  -0.039 -2.0933 -0.7915 -1.4671
 5390TIP3   OH237804   3.415   1.234   5.856  0.2086  0.2060 -0.5124
 5390TIP3    H137805   3.334   1.258   5.810  1.5277 -1.1878 -3.9139
 5390TIP3    H237806   3.437   1.311   5.908 -1.7054  1.8072 -1.9047
 5391TIP3   OH237807   4.507   3.578   5.808 -0.3831  0.1938  0.6348
 5391TIP3    H137808   4.576   3.644   5.808 -0.8124  0.7647 -2.1846
 5391TIP3    H237809   4.511   3.539   5.720 -1.9399 -1.6283  1.2896
 5392TIP3   OH237810   1.717   2.792   5.835 -0.3123 -0.4332  0.3944
 5392TIP3    H137811   1.757   2.858   5.891  1.3717  0.0334 -1.2660
 5392TIP3    H237812   1.694   2.839   5.755 -0.8838 -1.4686 -0.0721
 5393TIP3   OH237813   6.312   1.656   7.993  0.4893  0.1872  0.0639
 5393TIP3    H137814   6.359   1.593   8.047  0.5638  1.2373  1.2651
 5393TIP3    H237815   6.367   1.668   7.916  0.7426 -0.7826  0.0805
 5394TIP3   OH237816   3.547   0.580   1.209  0.0822  0.1333 -0.6182
 5394TIP3    H137817   3.586   0.526   1.140 -0.6392 -1.5226  0.2156
 5394TIP3    H237818   3.453   0.575   1.193  0.0248  1.5979 -0.8232
 5395TIP3   OH237819   6.828   1.690   0.185  0.2068  0.3183  0.5744
 5395TIP3    H137820   6.875   1.719   0.107 -0.9269  0.8738  0.0826
 5395TIP3    H237821   6.850   1.756   0.251  0.0028  0.6688  0.2998
 5396TIP3   OH237822   6.989   6.757   8.208  0.6908 -0.3931  0.2852
 5396TIP3    H137823   6.973   6.814   8.284  0.9949 -0.9288  0.7596
 5396TIP3    H237824   7.023   6.676   8.246 -2.7860 -2.2026 -0.0344
 5397TIP3   OH237825   0.399   1.651   1.595  0.3246  0.4256  0.3842
 5397TIP3    H137826   0.398   1.660   1.691  0.0786 -1.7506  0.6322
 5397TIP3    H237827   0.325   1.593   1.576  1.0022 -0.0164 -1.0273
 5398TIP3   OH237828   1.980   3.885   6.936  0.0572 -0.5558 -0.0077
 5398TIP3    H137829   1.982   3.896   7.031 -0.1810 -1.7365  0.1551
 5398TIP3    H237830   2.007   3.794   6.922 -2.1142 -1.1328 -0.8880
 5399TIP3   OH237831   5.766   3.407   7.353  0.6775 -0.6461 -0.0948
 5399TIP3    H137832   5.834   3.467   7.322  1.0187 -0.3635  1.1333
 5399TIP3    H237833   5.726   3.373   7.273  0.1515  1.5810 -0.8610
 5400TIP3   OH237834   3.991   5.446   1.840  0.4834 -0.3513  0.0867
 5400TIP3    H137835   3.903   5.476   1.864  0.7227  1.8106 -1.4358
 5400TIP3    H237836   3.977   5.385   1.769  0.2119  0.8467 -0.9287
 5401TIP3   OH237837   4.500   0.801   7.998  0.2067  0.1965  0.4557
 5401TIP3    H137838   4.464   0.726   7.950  0.6479  0.3918 -0.1845
 5401TIP3    H237839   4.461   0.877   7.956  0.6485  0.3728  0.3596
 5402TIP3   OH237840   2.253   5.046   1.422 -0.3278 -0.3747 -0.2402
 5402TIP3    H137841   2.224   4.959   1.449 -0.4901 -0.1483  0.3351
 5402TIP3    H237842   2.173   5.090   1.392 -0.5822  0.1891  1.1792
 5403TIP3   OH237843   3.480   3.883   7.121 -0.4023  0.1249 -0.2320
 5403TIP3    H137844   3.402   3.829   7.109 -0.0556 -0.7958  1.3287
 5403TIP3    H237845   3.450   3.973   7.109 -1.3964 -0.2971 -1.0396
 5404TIP3   OH237846   1.497   5.898   7.587 -0.3369 -0.8362  0.3236
 5404TIP3    H137847   1.523   5.978   7.633 -1.6583 -0.0190 -0.3017
 5404TIP3    H237848   1.460   5.842   7.655 -2.6739  0.5312  0.2623
 5405TIP3   OH237849   5.545   5.629   0.889  0.5719  0.2249  0.1011
 5405TIP3    H137850   5.625   5.673   0.919  1.4132 -1.4957  0.4800
 5405TIP3    H237851   5.542   5.645   0.795  0.8943  0.9817  0.2080
 5406TIP3   OH237852   5.888   1.524   0.133 -0.2795  0.0647 -0.3749
 5406TIP3    H137853   5.978   1.514   0.162 -0.4785  1.3235  0.8007
 5406TIP3    H237854   5.886   1.487   0.045  1.1395 -0.8622 -0.0401
 5407TIP3   OH237855   2.797   1.672   2.242 -0.1304  0.0641  0.1504
 5407TIP3    H137856   2.703   1.686   2.252 -0.0872  0.1499  0.4334
 5407TIP3    H237857   2.836   1.711   2.320  0.1275 -0.1338  0.1223
 5408TIP3   OH237858   1.981   0.417   8.265  0.5153  0.1971  0.0187
 5408TIP3    H137859   1.907   0.466   8.303  0.2438 -0.1817 -0.0229
 5408TIP3    H237860   1.940   0.354   8.206  1.0021  2.1710 -2.6334
 5409TIP3   OH237861   2.566   1.733   8.087 -0.0084  0.1685 -0.5544
 5409TIP3    H137862   2.567   1.671   8.013  0.1931 -0.9727  0.3670
 5409TIP3    H237863   2.499   1.699   8.146  0.0172  0.9138 -0.0821
 5410TIP3   OH237864   2.860   0.849   1.174  0.2463 -0.2565 -0.5602
 5410TIP3    H137865   2.765   0.856   1.157 -0.1584  0.1156  1.5977
 5410TIP3    H237866   2.899   0.912   1.113 -0.9378  0.0098 -1.0792
 5411TIP3   OH237867   6.919   3.109   0.815  0.6208 -0.0240 -0.4300
 5411TIP3    H137868   6.948   3.018   0.803  3.6086  0.6408  0.8872
 5411TIP3    H237869   6.852   3.104   0.883  1.3356 -1.1580  0.2130
 5412TIP3   OH237870   4.295   4.748   1.831 -0.0796  0.6963 -0.0588
 5412TIP3    H137871   4.289   4.734   1.925  0.1037  0.2343 -0.1129
 5412TIP3    H237872   4.326   4.664   1.796  0.5190  1.0682 -0.4509
 5413TIP3   OH237873   5.489   3.680   7.917  0.3810 -0.2279  0.7563
 5413TIP3    H137874   5.543   3.718   7.847 -0.3748 -1.1528 -0.3674
 5413TIP3    H237875   5.480   3.751   7.981 -1.3878  1.7215 -1.4697
 5414TIP3   OH237876   5.197   6.518   7.224  0.1835  0.2144  0.0449
 5414TIP3    H137877   5.114   6.512   7.271  1.0975  1.5922  1.9539
 5414TIP3    H237878   5.256   6.461   7.272  0.4166 -0.6516 -1.2186
 5415TIP3   OH237879   1.014   6.992   0.349  0.6630 -0.6211 -0.1896
 5415TIP3    H137880   0.972   6.906   0.344  0.3065 -0.5950  1.6654
 5415TIP3    H237881   1.092   6.977   0.402  1.9884 -0.2640 -1.9430
 5416TIP3   OH237882   0.413   1.355   0.541  0.5934  0.1034  0.0782
 5416TIP3    H137883   0.375   1.370   0.628 -0.1795  1.2268 -0.4147
 5416TIP3    H237884   0.392   1.264   0.521 -1.6491  0.5730 -0.0300
 5417TIP3   OH237885   5.550   4.728   7.852  0.6957 -0.3652 -0.3697
 5417TIP3    H137886   5.524   4.706   7.763  0.7054 -1.2057 -0.1760
 5417TIP3    H237887   5.620   4.793   7.842 -0.7518  1.1831 -0.9222
 5418TIP3   OH237888   2.395   0.874   7.349 -0.0878  0.4876  0.4147
 5418TIP3    H137889   2.335   0.927   7.402 -0.9015  1.2260 -1.1594
 5418TIP3    H237890   2.479   0.920   7.353 -0.7170  1.8287 -0.7128
 5419TIP3   OH237891   2.236   4.788   0.094  0.2670  0.5004 -0.2748
 5419TIP3    H137892   2.200   4.829   0.016 -0.6309  0.6825  0.2165
 5419TIP3    H237893   2.166   4.796   0.160  0.8443 -0.0114  0.4213
 5420TIP3   OH237894   0.650   0.319   7.031 -0.0076 -0.0191  0.1833
 5420TIP3    H137895   0.722   0.273   7.074  0.6810  1.3566  0.5812
 5420TIP3    H237896   0.571   0.279   7.066  0.5497  0.3056  1.9266
 5421TIP3   OH237897   5.783   1.488   0.689  0.0510  0.1191  0.1583
 5421TIP3    H137898   5.739   1.552   0.745  0.4991  0.2411  0.3726
 5421TIP3    H237899   5.719   1.470   0.620  0.3471  1.6733 -0.5615
 5422TIP3   OH237900   4.296   6.240   7.437 -0.0869 -0.1850 -0.0894
 5422TIP3    H137901   4.259   6.223   7.351 -0.8086 -0.8738  0.3408
 5422TIP3    H237902   4.289   6.156   7.483  2.9437 -0.6567 -0.2953
 5423TIP3   OH237903   5.802   4.686   0.887 -0.1192  0.3042  0.1845
 5423TIP3    H137904   5.819   4.655   0.798 -0.8332 -0.3170  0.2559
 5423TIP3    H237905   5.726   4.744   0.878  0.5582  1.2216  0.2140
 5424TIP3   OH237906   6.175   5.729   8.049 -0.1051  0.3004 -0.3190
 5424TIP3    H137907   6.115   5.765   8.115 -0.5765  1.4054 -1.3151
 5424TIP3    H237908   6.238   5.677   8.100 -1.7942 -0.7898  0.7840
 5425TIP3   OH237909   0.853   1.787   2.312  0.0882  0.0273  0.1190
 5425TIP3    H137910   0.895   1.823   2.234 -0.2928 -1.4375 -0.8077
 5425TIP3    H237911   0.924   1.775   2.375  1.0604 -1.9535 -1.2485
 5426TIP3   OH237912   1.992   6.764   7.370 -0.4382  0.2001  0.3827
 5426TIP3    H137913   1.988   6.669   7.372 -0.6751  0.2136  1.0510
 5426TIP3    H237914   2.068   6.784   7.316 -1.2178 -0.3373 -0.9469
 5427TIP3   OH237915   2.320   2.109   6.582 -0.7389  0.6189  0.0785
 5427TIP3    H137916   2.289   2.019   6.572  0.8956  0.1733 -1.7192
 5427TIP3    H237917   2.247   2.163   6.550 -1.0032 -0.1836 -0.7214
 5428TIP3   OH237918   6.952   3.929   0.029  0.0622 -0.7906 -0.4031
 5428TIP3    H137919   7.034   3.887   0.005 -0.0963 -0.7550 -1.0338
 5428TIP3    H237920   6.887   3.858   0.023  0.2963 -1.2784  1.8650
 5429TIP3   OH237921   2.236   1.286   7.387 -0.3641 -0.1467 -0.0846
 5429TIP3    H137922   2.183   1.363   7.367 -1.6194 -1.4592 -2.2901
 5429TIP3    H237923   2.285   1.270   7.306  0.2567 -1.3386  0.5067
 5430TIP3   OH237924   1.696   6.087   1.139  0.5480  0.2522  0.1110
 5430TIP3    H137925   1.769   6.122   1.189  0.6624  0.4085 -0.1627
 5430TIP3    H237926   1.724   6.094   1.047  1.2347 -1.9965  0.0767
 5431TIP3   OH237927   3.663   1.781   7.029  0.2189  0.3221  0.0353
 5431TIP3    H137928   3.680   1.818   6.942 -1.4322 -0.6881 -0.7598
 5431TIP3    H237929   3.583   1.730   7.018  0.2441 -0.2225  2.0539
 5432TIP3   OH237930   5.141   3.994   0.184 -0.5897 -0.1124  0.1743
 5432TIP3    H137931   5.062   4.036   0.149 -0.5569 -0.4026 -0.2518
 5432TIP3    H237932   5.111   3.913   0.223 -0.0383 -2.5235 -3.8952
 5433TIP3   OH237933   0.275   3.073   1.637 -0.5276 -0.1135  0.0930
 5433TIP3    H137934   0.200   3.040   1.686 -1.3139  0.5178 -0.6460
 5433TIP3    H237935   0.297   3.155   1.681  0.4719 -0.8420  1.0050
 5434TIP3   OH237936   6.076   1.943   0.672 -0.4597 -0.5704  0.3505
 5434TIP3    H137937   6.043   1.989   0.748 -0.4383 -0.6956  0.4371
 5434TIP3    H237938   6.046   1.852   0.684 -0.8714 -0.4907 -0.0337
 5435TIP3   OH237939   3.077   0.908   1.586  0.5640  0.2277  0.4233
 5435TIP3    H137940   3.062   1.000   1.607 -0.7895 -0.1650  1.3179
 5435TIP3    H237941   3.062   0.862   1.669  1.5725 -0.7718  0.0734
 5436TIP3   OH237942   6.772   3.420   0.593  0.0594  0.3027  0.5613
 5436TIP3    H137943   6.724   3.355   0.643  0.9781  1.0791  2.5594
 5436TIP3    H237944   6.718   3.499   0.599 -0.2515  0.1812 -0.4607
 5437TIP3   OH237945   3.085   7.073   0.867  0.4198  0.6544  0.0861
 5437TIP3    H137946   3.030   7.062   0.945 -1.3969  1.6177 -0.9855
 5437TIP3    H237947   3.146   7.143   0.891  0.2294  0.5840  0.8108
 5438TIP3   OH237948   5.685   4.981   0.130 -0.2462 -0.0808 -0.8699
 5438TIP3    H137949   5.679   4.992   0.225 -1.3474 -2.9440 -0.5191
 5438TIP3    H237950   5.621   5.042   0.094  0.2729  1.1245  0.1647
 5439TIP3   OH237951   1.849   3.819   0.003  0.0275  0.1034 -0.1016
 5439TIP3    H137952   1.933   3.782  -0.021  0.4037  1.1538 -0.4597
 5439TIP3    H237953   1.815   3.761   0.071  2.1877  1.0240  1.8664
 5440TIP3   OH237954   1.546   6.619   0.340 -0.6167  0.1283  0.4296
 5440TIP3    H137955   1.610   6.591   0.406 -0.4289  0.7782  0.5277
 5440TIP3    H237956   1.519   6.706   0.368 -1.3173 -0.0115  0.2146
 5441TIP3   OH237957   1.779   2.899   7.954 -0.0361 -0.2085 -0.5135
 5441TIP3    H137958   1.684   2.915   7.955  0.1888  1.3367 -1.3404
 5441TIP3    H237959   1.814   2.966   7.896  1.5771 -0.8099 -0.2814
 5442TIP3   OH237960   3.613   3.322   6.483 -0.2738  0.2594 -0.6870
 5442TIP3    H137961   3.536   3.351   6.433 -2.2337 -0.0128  1.9606
 5442TIP3    H237962   3.578   3.257   6.545  2.2444 -0.3705  0.1755
 5443TIP3   OH237963   4.025   0.098   1.157 -0.2229 -0.1265 -0.3799
 5443TIP3    H137964   4.062   0.030   1.214 -1.8284 -2.2698 -1.7379
 5443TIP3    H237965   3.996   0.166   1.218  0.2289 -1.2487  1.1689
 5444TIP3   OH237966   4.827   5.801   8.065  0.4333  0.2811 -0.0269
 5444TIP3    H137967   4.887   5.842   8.127  2.2552  1.9753 -2.6707
 5444TIP3    H237968   4.885   5.757   8.002 -1.1772  0.4388 -1.6996
 5445TIP3   OH237969   5.970   1.694   0.610 -0.0154 -0.0731  0.0717
 5445TIP3    H137970   5.932   1.613   0.645 -0.6139  0.3889  0.4931
 5445TIP3    H237971   5.903   1.729   0.552  0.0455  0.3856  0.2789
 5446TIP3   OH237972   5.470   6.872   7.054 -0.2273 -0.3787 -0.4177
 5446TIP3    H137973   5.515   6.863   7.138  0.9726  0.0645 -0.9849
 5446TIP3    H237974   5.385   6.909   7.076  0.5389  0.9126  0.5213
 5447TIP3   OH237975   0.158   5.192   0.239 -0.0350  0.3848 -0.4952
 5447TIP3    H137976   0.164   5.259   0.308  2.3030 -0.1919 -0.0433
 5447TIP3    H237977   0.147   5.242   0.158  0.8875  1.3011 -0.0783
 5448TIP3   OH237978   6.362   5.296   0.774  0.1567 -0.0300  0.3378
 5448TIP3    H137979   6.291   5.359   0.785  0.5030 -0.1064  4.1657
 5448TIP3    H237980   6.427   5.342   0.721 -1.0600  1.5044  0.1088
 5449TIP3   OH237981   6.759   0.633   1.069 -0.1768  0.3371 -0.0786
 5449TIP3    H137982   6.708   0.642   0.989  0.3014  0.3817 -0.3793
 5449TIP3    H237983   6.717   0.561   1.116 -1.1798  1.0689  0.1847
 5450TIP3   OH237984   5.033   0.902   0.983  0.1356  0.1938 -0.4743
 5450TIP3    H137985   4.956   0.897   1.039  0.1026 -1.1085 -0.6163
 5450TIP3    H237986   5.006   0.861   0.901  1.4044 -1.7258 -0.0027
 5451TIP3   OH237987   5.044   2.524   1.764 -0.9059 -0.4548 -0.2058
 5451TIP3    H137988   4.976   2.460   1.786 -0.2899 -1.1809 -0.3539
 5451TIP3    H237989   5.125   2.472   1.760 -0.2724  0.4640  0.4033
 5452TIP3   OH237990   4.978   3.185   8.277 -0.3883 -0.4577 -0.3116
 5452TIP3    H137991   5.073   3.171   8.270 -0.4872 -2.7464  1.6954
 5452TIP3    H237992   4.942   3.146   8.197  0.2627 -0.9134 -0.3935
 5453TIP3   OH237993   4.541   3.432   6.026  0.0294  0.0401  0.2555
 5453TIP3    H137994   4.495   3.349   6.040  1.7472 -1.2715 -1.3286
 5453TIP3    H237995   4.514   3.459   5.938 -0.4928  1.1959  0.7447
 5454TIP3   OH237996   0.842   1.278   8.089  0.3590 -0.2980 -0.0905
 5454TIP3    H137997   0.878   1.354   8.042  0.0456  1.2777  2.0773
 5454TIP3    H237998   0.780   1.239   8.027  1.5427  0.3402 -1.7739
 5455TIP3   OH237999   2.358   5.798   1.973 -0.0373  0.1243  0.1755
 5455TIP3    H138000   2.389   5.713   1.943  2.1569  0.4072  1.4158
 5455TIP3    H238001   2.437   5.852   1.979 -1.1212  1.7041  1.1135
 5456TIP3   OH238002   4.805   2.002   6.920 -0.1053 -1.0128  0.3899
 5456TIP3    H138003   4.766   2.011   6.833  0.9588  0.6547  0.0313
 5456TIP3    H238004   4.867   1.930   6.912  1.1119  0.0994 -0.7149
 5457TIP3   OH238005   3.262   5.934   8.120 -0.2273  0.2657  0.3260
 5457TIP3    H138006   3.305   5.850   8.136 -2.2184 -0.7230  0.9392
 5457TIP3    H238007   3.313   5.998   8.170  1.2558 -0.5843 -0.0427
 5458TIP3   OH238008   5.802   3.724   7.391 -0.1596  0.2046  0.8213
 5458TIP3    H138009   5.750   3.646   7.407 -0.8435 -0.0174 -2.0149
 5458TIP3    H238010   5.885   3.707   7.437 -0.5396 -1.8657  0.8349
 5459TIP3   OH238011   6.332   3.228   0.859  0.5117 -0.6332 -0.1943
 5459TIP3    H138012   6.350   3.295   0.925  1.4376  0.0591 -1.1102
 5459TIP3    H238013   6.263   3.175   0.897  1.0842 -0.3154  1.3654
 5460TIP3   OH238014   4.415   1.897   1.303  0.3291  0.8271  0.0893
 5460TIP3    H138015   4.431   1.991   1.298 -0.8044  1.2406  2.4030
 5460TIP3    H238016   4.502   1.858   1.313  0.7417  1.7718  0.3239
 5461TIP3   OH238017   6.293   5.992   2.082 -0.7888 -0.1501 -0.4410
 5461TIP3    H138018   6.255   6.050   2.147  1.5552  1.3474 -0.2644
 5461TIP3    H238019   6.366   5.950   2.127 -0.5488 -0.8690 -1.4626
 5462TIP3   OH238020   5.323   4.791   7.966 -0.7110 -0.3351 -0.4441
 5462TIP3    H138021   5.317   4.886   7.974 -3.3734 -0.2006 -2.7237
 5462TIP3    H238022   5.409   4.776   7.925  0.2469  0.9175  0.9830
 5463TIP3   OH238023   0.168   2.471   1.552  0.1007 -0.0754  0.3872
 5463TIP3    H138024   0.077   2.466   1.524 -0.2689 -0.9050  1.6374
 5463TIP3    H238025   0.162   2.489   1.646  1.2384  0.2353  0.4093
 5464TIP3   OH238026   6.836   1.885   6.620 -0.4441  0.3063  0.2614
 5464TIP3    H138027   6.755   1.899   6.570 -0.4410 -1.3391 -0.2880
 5464TIP3    H238028   6.826   1.940   6.698 -1.1727  1.7000 -0.7590
 5465TIP3   OH238029   4.727   0.509   8.126  0.2850 -0.1998 -0.6232
 5465TIP3    H138030   4.782   0.434   8.150  0.5544  0.4558  0.8926
 5465TIP3    H238031   4.663   0.473   8.065  1.9943 -1.1229 -1.9834
 5466TIP3   OH238032   7.033   6.548   6.823  0.0885 -0.6765  0.0215
 5466TIP3    H138033   6.958   6.545   6.763  0.5112 -2.4061 -0.4887
 5466TIP3    H238034   7.069   6.635   6.812 -0.0472 -0.8301 -2.0332
 5467TIP3   OH238035   5.898   4.274   7.915  0.0356 -0.2966 -0.1750
 5467TIP3    H138036   5.908   4.246   7.824 -0.6788  0.9036 -0.6532
 5467TIP3    H238037   5.878   4.368   7.909 -1.7947 -0.5479  1.1078
 5468TIP3   OH238038   1.030   5.627   7.347  0.2428 -0.0085  0.0548
 5468TIP3    H138039   0.953   5.653   7.298 -0.5265 -0.7344  0.8476
 5468TIP3    H238040   1.062   5.708   7.387  1.1377  0.6884 -1.9085
 5469TIP3   OH238041   6.374   0.603   1.743  0.3985  0.4453  0.5464
 5469TIP3    H138042   6.405   0.618   1.654 -0.9295  0.8157  0.1211
 5469TIP3    H238043   6.453   0.604   1.797  1.0419  2.2721 -0.3567
 5470TIP3   OH238044   1.425   1.682   0.429 -0.4923 -0.3679  0.3993
 5470TIP3    H138045   1.400   1.641   0.346 -0.7693 -1.2086  0.8830
 5470TIP3    H238046   1.352   1.664   0.488 -1.0730  1.6775  0.3844
 5471TIP3   OH238047   6.761   6.936   1.051  0.5232 -0.2063 -0.1036
 5471TIP3    H138048   6.817   7.011   1.072 -0.2039  0.4781 -0.5325
 5471TIP3    H238049   6.727   6.907   1.135  0.4881  0.2187  0.0333
 5472TIP3   OH238050   2.666   1.067   7.443  0.1160 -0.0934 -0.4101
 5472TIP3    H138051   2.655   1.133   7.511  3.3275  0.5855 -0.4087
 5472TIP3    H238052   2.673   0.984   7.491  2.5416  0.3992  0.2155
 5473TIP3   OH238053   6.540   1.545   1.513 -0.2344 -0.0281  0.1850
 5473TIP3    H138054   6.565   1.599   1.438 -0.3674  0.3626  0.4169
 5473TIP3    H238055   6.455   1.508   1.489 -0.2301  0.0156  0.1017
 5474TIP3   OH238056   5.103   2.996   0.245 -0.2157  0.2838  0.6016
 5474TIP3    H138057   5.118   3.091   0.237  0.6008  0.2879  1.8313
 5474TIP3    H238058   5.008   2.987   0.244 -0.2963  0.9954 -0.6078
 5475TIP3   OH238059   2.176   4.510   6.903 -0.4704 -0.5253  0.4968
 5475TIP3    H138060   2.134   4.529   6.987  0.5511  0.9467  0.7037
 5475TIP3    H238061   2.235   4.436   6.922 -0.3040 -0.2501  1.0584
 5476TIP3   OH238062   4.382   6.251   7.833 -0.2787  0.3537  0.8017
 5476TIP3    H138063   4.295   6.288   7.846 -1.0213 -1.1679  0.4128
 5476TIP3    H238064   4.368   6.156   7.835  1.2353  0.0816 -0.1487
 5477TIP3   OH238065   2.010   1.986   7.649 -0.4605  0.0295 -0.0191
 5477TIP3    H138066   2.085   1.991   7.708 -0.4484  0.6252 -0.0774
 5477TIP3    H238067   2.007   1.895   7.621  1.9125  0.5362 -2.1979
 5478TIP3   OH238068   0.367   3.480   6.676 -0.3625 -0.8603  0.4608
 5478TIP3    H138069   0.389   3.560   6.722 -1.7596 -1.5095  2.3715
 5478TIP3    H238070   0.403   3.492   6.588 -0.5966  1.8533  0.6654
 5479TIP3   OH238071   2.286   6.980   5.887  0.3395 -0.3614 -0.5777
 5479TIP3    H138072   2.349   6.944   5.825  2.4466 -4.1478  3.1769
 5479TIP3    H238073   2.340   7.010   5.961 -2.0810  0.7408  0.8820
 5480TIP3   OH238074   0.316   5.288   7.835 -0.0774  0.0800 -0.2922
 5480TIP3    H138075   0.263   5.364   7.810 -0.5727  0.1516  0.8893
 5480TIP3    H238076   0.350   5.310   7.921 -0.3992 -1.1168  0.1607
 5481TIP3   OH238077   0.017   3.444   1.824 -0.3789 -0.0633  0.0582
 5481TIP3    H138078   0.080   3.396   1.770  2.1214  2.7662  0.2311
 5481TIP3    H238079  -0.058   3.457   1.767 -0.6356 -2.9227 -0.4081
 5482TIP3   OH238080   6.116   1.479   0.349  0.3464  0.7785 -0.0346
 5482TIP3    H138081   6.127   1.566   0.387  1.7168  1.3881 -1.7004
 5482TIP3    H238082   6.182   1.474   0.280 -1.0574 -0.8012 -1.3682
 5483TIP3   OH238083   3.759   2.172   6.962  0.2272  0.0206 -0.3964
 5483TIP3    H138084   3.724   2.256   6.932  1.1030  0.4015 -0.3886
 5483TIP3    H238085   3.848   2.169   6.926  0.5258 -0.4962  0.3620
 5484TIP3   OH238086   5.937   2.778   6.056 -0.1169 -0.3400 -0.1677
 5484TIP3    H138087   5.930   2.847   5.990 -0.6213 -0.6411 -0.4329
 5484TIP3    H238088   6.031   2.760   6.062  0.0290  0.4583 -0.0004
 5485TIP3   OH238089   2.338   2.368   1.414  0.1274 -0.2522 -0.6756
 5485TIP3    H138090   2.312   2.377   1.322 -2.5614  1.3602  0.1306
 5485TIP3    H238091   2.297   2.443   1.457  0.5024 -1.4938  2.0176
 5486TIP3   OH238092   2.357   1.495   2.062 -0.1439 -0.5424  0.2876
 5486TIP3    H138093   2.275   1.540   2.085  0.0103 -0.3726  0.5058
 5486TIP3    H238094   2.425   1.548   2.103  0.0025 -1.3601  1.1387
 5487TIP3   OH238095   2.273   3.875   7.060 -0.2465  0.0507 -0.1851
 5487TIP3    H138096   2.195   3.857   7.112 -1.8481  0.5057 -2.3480
 5487TIP3    H238097   2.268   3.815   6.986  0.2348  1.5934 -1.5354
 5488TIP3   OH238098   3.219   5.210   6.699 -0.3800 -0.1933  0.0036
 5488TIP3    H138099   3.139   5.256   6.723  0.4603  0.9151  0.7940
 5488TIP3    H238100   3.289   5.264   6.735  0.7963 -0.4386 -1.7956
 5489TIP3   OH238101   1.481   6.745   7.512  0.2605  0.3492  0.0396
 5489TIP3    H138102   1.558   6.802   7.517  0.6442 -0.1725  0.0695
 5489TIP3    H238103   1.469   6.714   7.602  0.8140 -0.6232 -0.2145
 5490TIP3   OH238104   1.282   2.099   7.920  0.8679  0.1682 -0.3211
 5490TIP3    H138105   1.284   2.132   7.830  2.5055 -1.4683 -0.9412
 5490TIP3    H238106   1.369   2.118   7.954  1.5988 -2.5188 -0.4209
 5491TIP3   OH238107   0.792   3.992   0.685  0.3365  0.2335  1.2983
 5491TIP3    H138108   0.823   4.050   0.754 -0.1661 -0.7105  2.3456
 5491TIP3    H238109   0.703   3.969   0.711 -0.0061  0.1652  0.1261
 5492TIP3   OH238110   4.339   4.885   1.414  0.5416  0.1316  0.4344
 5492TIP3    H138111   4.324   4.953   1.349  0.0260  0.2883  0.7140
 5492TIP3    H238112   4.332   4.929   1.498  1.6885  0.0280  0.6016
 5493TIP3   OH238113   2.130   3.116   1.069 -0.4193 -0.2148  0.5688
 5493TIP3    H138114   2.181   3.147   1.144  1.7267  0.0106 -0.8988
 5493TIP3    H238115   2.129   3.020   1.079 -1.6953 -0.1057  1.7879
 5494TIP3   OH238116   1.087   5.096   0.940  0.5182 -0.4434  0.1265
 5494TIP3    H138117   1.025   5.026   0.961  0.4997 -1.2311 -2.1676
 5494TIP3    H238118   1.079   5.159   1.011 -3.0421 -0.4344 -0.1090
 5495TIP3   OH238119   4.806   1.247   6.258  0.0139 -0.2379 -0.1526
 5495TIP3    H138120   4.743   1.193   6.210 -0.2525  0.2523 -0.3634
 5495TIP3    H238121   4.874   1.186   6.285 -0.1961 -0.6483 -0.5357
 5496TIP3   OH238122   3.022   3.195   7.705 -0.3843 -0.4857  1.1339
 5496TIP3    H138123   3.032   3.288   7.685 -1.2025 -0.4953  0.6219
 5496TIP3    H238124   2.945   3.168   7.654  0.5824 -1.7302  0.2762
 5497TIP3   OH238125   7.020   6.616   2.062  0.3121  0.1938  0.3065
 5497TIP3    H138126   6.933   6.655   2.050 -0.3763 -1.1770  0.6656
 5497TIP3    H238127   7.080   6.689   2.051 -0.9232  1.3339  0.8177
 5498TIP3   OH238128   4.930   4.751   6.800 -0.1508  0.5277 -0.0040
 5498TIP3    H138129   4.870   4.780   6.733 -0.9235  0.1836  0.5199
 5498TIP3    H238130   4.950   4.660   6.777 -0.8844  0.2139  0.5312
 5499TIP3   OH238131   1.568   3.160   0.717 -0.1767 -0.4317 -0.3840
 5499TIP3    H138132   1.618   3.235   0.748 -0.4449  0.1815 -1.3743
 5499TIP3    H238133   1.613   3.084   0.753  0.1754  0.2009  0.5308
 5500TIP3   OH238134   2.678   2.291   7.107 -0.6929 -0.0964  0.1333
 5500TIP3    H138135   2.683   2.276   7.013 -1.0752 -1.4857  0.3237
 5500TIP3    H238136   2.702   2.384   7.118  1.5347 -0.4530 -1.1246
 5501TIP3   OH238137   0.346   1.085   0.654  0.2487  0.2223  0.2015
 5501TIP3    H138138   0.260   1.075   0.614  0.7476 -1.5830 -0.5114
 5501TIP3    H238139   0.353   1.012   0.716  1.2873  0.2976  0.1974
 5502TIP3   OH238140   3.642   3.054   0.457  0.2476  0.0933  0.7507
 5502TIP3    H138141   3.566   3.095   0.499  0.8254 -0.9719  3.0044
 5502TIP3    H238142   3.613   2.965   0.437 -0.3174  0.8190 -2.1623
 5503TIP3   OH238143   6.841   2.611   7.440  0.3700  0.0767 -0.2359
 5503TIP3    H138144   6.933   2.595   7.417  0.6485  0.5837  0.5166
 5503TIP3    H238145   6.844   2.651   7.526 -0.3939  2.5824 -1.2944
 5504TIP3   OH238146   6.723   6.596   8.186 -0.0389  0.1749 -0.1967
 5504TIP3    H138147   6.700   6.550   8.267 -0.7121  0.1527 -0.3919
 5504TIP3    H238148   6.816   6.580   8.175 -0.0834 -0.3991  0.2092
 5505TIP3   OH238149   0.004   5.437   0.725  0.0861 -0.4594 -0.1980
 5505TIP3    H138150  -0.079   5.403   0.758 -0.8709  1.6812 -0.2132
 5505TIP3    H238151   0.068   5.412   0.791 -1.1273  0.3608  1.3713
 5506TIP3   OH238152   2.441   3.241   6.081  0.2861  0.4792 -0.1498
 5506TIP3    H138153   2.440   3.197   5.996 -1.3355 -1.2608  0.7110
 5506TIP3    H238154   2.427   3.333   6.060  0.8261  0.2171 -1.8186
 5507TIP3   OH238155   0.280   1.861   6.922 -0.2902 -0.6760 -0.5145
 5507TIP3    H138156   0.246   1.775   6.945 -0.1756 -0.4393  0.6435
 5507TIP3    H238157   0.364   1.866   6.967 -1.8770  1.3860  2.6345
 5508TIP3   OH238158   3.442   2.925   6.621  0.4476 -0.1101 -0.4810
 5508TIP3    H138159   3.436   2.919   6.525  1.8665 -1.2239 -0.5390
 5508TIP3    H238160   3.369   2.873   6.654  0.0611  0.1242 -0.9598
 5509TIP3   OH238161   3.801   0.662   8.065 -0.1151  0.8262 -0.4568
 5509TIP3    H138162   3.712   0.692   8.079 -0.1034  1.1638 -1.0678
 5509TIP3    H238163   3.795   0.567   8.068 -0.9646  0.7133 -2.9349
 5510TIP3   OH238164   3.772   1.683   7.245  0.9648 -0.2029 -0.3246
 5510TIP3    H138165   3.863   1.708   7.228  0.3226  2.1838 -0.5430
 5510TIP3    H238166   3.723   1.719   7.172 -0.3595 -0.0943  0.5818
 5511TIP3   OH238167   4.725   2.529   7.030  0.5168 -0.1144 -0.3393
 5511TIP3    H138168   4.723   2.466   7.102 -2.0536 -0.7125 -0.8260
 5511TIP3    H238169   4.763   2.481   6.957 -0.3938 -0.7798 -0.3983
 5512TIP3   OH238170   5.160   4.490   7.660  0.4458  0.2639 -0.0631
 5512TIP3    H138171   5.169   4.519   7.569 -1.9466  2.1066  0.1676
 5512TIP3    H238172   5.234   4.531   7.705  3.0712 -2.5756 -1.4190
 5513TIP3   OH238173   0.231   0.182   7.519 -0.3826 -0.5903  0.1099
 5513TIP3    H138174   0.159   0.120   7.531 -0.3167 -0.8422 -0.7257
 5513TIP3    H238175   0.297   0.155   7.583 -0.4923 -1.1856 -0.0195
 5514TIP3   OH238176   2.032   5.303   1.043  0.4067 -0.2432 -0.5125
 5514TIP3    H138177   2.122   5.304   1.010  0.5118 -0.9364 -0.2784
 5514TIP3    H238178   1.980   5.272   0.968  0.1700  1.3901 -1.0524
 5515TIP3   OH238179   1.193   2.134   1.606 -0.4243  0.2460 -0.4283
 5515TIP3    H138180   1.193   2.229   1.606 -0.6408  0.2466  0.1061
 5515TIP3    H238181   1.278   2.110   1.569 -0.1848  0.6454 -0.1364
 5516TIP3   OH238182   0.915   5.030   1.183  0.1499  0.2066 -0.1683
 5516TIP3    H138183   0.832   5.004   1.224  0.3724  2.0311  1.5889
 5516TIP3    H238184   0.972   4.955   1.197  0.2014  0.6628  3.0268
 5517TIP3   OH238185   3.677   3.365   0.583  0.4920 -0.2696 -0.1539
 5517TIP3    H138186   3.674   3.429   0.654 -0.4655  0.8471 -1.1534
 5517TIP3    H238187   3.770   3.352   0.566  0.7444  2.2189 -1.0622
 5518TIP3   OH238188   7.051   0.418   0.700 -0.6399  0.0465  0.0348
 5518TIP3    H138189   6.988   0.429   0.630 -1.0385 -0.2494  0.3370
 5518TIP3    H238190   7.115   0.487   0.686 -1.1807  0.5303 -0.1163
 5519TIP3   OH238191   1.119   2.407   0.646 -0.1583 -0.1411 -0.4153
 5519TIP3    H138192   1.161   2.335   0.599  0.4666 -0.0015 -0.0820
 5519TIP3    H238193   1.038   2.368   0.680  0.6481 -0.9932  0.6158
 5520TIP3   OH238194   0.419   6.486   1.903  0.3723  0.0812 -0.2234
 5520TIP3    H138195   0.466   6.480   1.819 -0.2999 -3.7139 -0.4955
 5520TIP3    H238196   0.330   6.511   1.878  0.3265 -0.4269 -0.5880
 5521TIP3   OH238197   6.447   0.082   2.202  0.4574 -0.3422  0.1009
 5521TIP3    H138198   6.506   0.009   2.182  0.3730 -0.0792 -1.2374
 5521TIP3    H238199   6.359   0.044   2.195  0.3773  0.0770 -1.6104
 5522TIP3   OH238200   6.221   4.300   1.215  0.2794 -0.3770 -0.1702
 5522TIP3    H138201   6.177   4.358   1.277  0.1491 -1.5354  0.8568
 5522TIP3    H238202   6.307   4.339   1.202 -0.1006  0.4889 -0.1521
 5523TIP3   OH238203   1.184   4.214   7.926  0.4795 -0.4407  0.8681
 5523TIP3    H138204   1.187   4.142   7.988  1.4731 -2.4141 -1.3138
 5523TIP3    H238205   1.242   4.187   7.854  1.2886  2.7391  0.1234
 5524TIP3   OH238206   3.769   3.036   6.312  0.2935  0.2027 -0.5345
 5524TIP3    H138207   3.721   3.103   6.263  0.1591  0.2541 -0.3324
 5524TIP3    H238208   3.857   3.038   6.274  0.1051  0.0146 -0.9946
 5525TIP3   OH238209   1.915   1.567   1.429  0.1836  1.0661  0.4042
 5525TIP3    H138210   1.937   1.632   1.496 -0.7406 -0.2005  2.0279
 5525TIP3    H238211   1.997   1.522   1.411  0.3690  1.1643  0.9837
 5526TIP3   OH238212   4.497   5.557   1.392  0.2591 -0.1731 -0.2558
 5526TIP3    H138213   4.432   5.589   1.329 -0.7259  2.9999  2.0999
 5526TIP3    H238214   4.559   5.629   1.400  1.0744 -1.0196  1.4551
 5527TIP3   OH238215   3.703   5.717   7.655  0.0549 -0.0909  0.7801
 5527TIP3    H138216   3.758   5.796   7.655  0.3504 -0.2958  0.8533
 5527TIP3    H238217   3.647   5.728   7.732  0.3648 -0.1358  1.0146
 5528TIP3   OH238218   3.642   4.059   7.745  0.1459  0.3008 -0.0892
 5528TIP3    H138219   3.584   4.061   7.821 -0.7462  0.2339 -0.7486
 5528TIP3    H238220   3.659   4.151   7.725  0.2979  0.3202  0.1276
 5529TIP3   OH238221   1.855   1.810   6.953 -0.2106 -0.0250  0.0513
 5529TIP3    H138222   1.928   1.871   6.938 -0.3402  0.7565  2.3333
 5529TIP3    H238223   1.897   1.725   6.964  0.2065  0.1274 -0.3030
 5530TIP3   OH238224   2.489   6.244   0.793  0.1668  0.1864 -0.4378
 5530TIP3    H138225   2.483   6.224   0.700  1.0322 -0.1172 -0.4371
 5530TIP3    H238226   2.488   6.340   0.798 -1.9381  0.2346 -0.5891
 5531TIP3   OH238227   2.984   2.927   6.797  0.1269 -0.2326  0.3656
 5531TIP3    H138228   3.032   2.874   6.861  0.2954  0.8814  1.2063
 5531TIP3    H238229   3.018   3.015   6.810  0.1004  0.0305 -1.2353
 5532TIP3   OH238230   3.325   3.909   1.467 -0.0533 -0.0376  0.5545
 5532TIP3    H138231   3.262   3.979   1.483 -0.2583  0.5561 -2.2298
 5532TIP3    H238232   3.405   3.937   1.513 -0.7490  0.9835  1.1769
 5533TIP3   OH238233   3.485   0.764   7.469  0.0602 -0.1318  0.1326
 5533TIP3    H138234   3.530   0.829   7.523 -0.3179  0.4469 -0.2264
 5533TIP3    H238235   3.419   0.725   7.528 -0.3720  0.5177  0.0907
 5534TIP3   OH238236   6.818   6.525   6.257  0.4571  0.3631  0.0681
 5534TIP3    H138237   6.745   6.497   6.312  0.8210  1.3117  1.0530
 5534TIP3    H238238   6.861   6.443   6.232  1.2412 -0.0800  2.5395
 5535TIP3   OH238239   3.421   0.563   0.118 -0.0675 -0.0032  0.1666
 5535TIP3    H138240   3.492   0.624   0.100  1.0110 -1.0091  0.8728
 5535TIP3    H238241   3.417   0.558   0.214 -1.0112 -0.0572  0.1369
 5536TIP3   OH238242   3.034   6.048   0.800  0.1077  0.1431 -0.0445
 5536TIP3    H138243   2.984   6.123   0.769 -1.4888 -0.6064  0.5446
 5536TIP3    H238244   3.082   6.017   0.724 -0.3567  0.8965 -0.6554
 5537TIP3   OH238245   4.324   0.617   8.161 -0.2360  0.2228 -0.1149
 5537TIP3    H138246   4.264   0.550   8.130  0.7869 -0.9000  0.2337
 5537TIP3    H238247   4.310   0.691   8.103 -1.2184 -0.3861 -0.6723
 5538TIP3   OH238248   3.632   4.808   0.583 -0.2934  0.2993  0.0033
 5538TIP3    H138249   3.587   4.791   0.666 -0.0514  3.2779  0.8802
 5538TIP3    H238250   3.579   4.874   0.540 -0.3204 -1.0743 -2.2183
 5539TIP3   OH238251   6.432   0.377   0.533  0.2273 -0.1062  0.3179
 5539TIP3    H138252   6.432   0.466   0.566 -1.5660 -0.3087  0.9761
 5539TIP3    H238253   6.340   0.357   0.517  0.7261 -1.2978 -1.3611
 5540TIP3   OH238254   4.260   5.288   0.488  0.5588 -0.5940 -0.3851
 5540TIP3    H138255   4.228   5.363   0.537  0.7490 -0.8493  0.1412
 5540TIP3    H238256   4.190   5.267   0.426 -0.5885 -1.5256  1.1653
 5541TIP3   OH238257   6.911   1.369   0.374  0.2589 -0.3101  0.4219
 5541TIP3    H138258   6.962   1.443   0.342  1.0231 -1.1330 -0.2704
 5541TIP3    H238259   6.940   1.294   0.322 -2.5429 -0.5968 -0.9442
 5542TIP3   OH238260   2.616   1.482   7.600  0.4549  0.2279  0.0776
 5542TIP3    H138261   2.593   1.390   7.609  0.0854 -0.0512 -2.7939
 5542TIP3    H238262   2.711   1.483   7.590  0.3385 -0.0264 -1.2280
 5543TIP3   OH238263   0.615   5.378   2.092 -0.4222  0.4421  0.6292
 5543TIP3    H138264   0.563   5.324   2.032 -1.6317 -0.0359  2.0453
 5543TIP3    H238265   0.706   5.366   2.062 -0.9873  0.4090 -1.2137
 5544TIP3   OH238266   3.852   1.152   0.460  0.3891  0.0038  0.6010
 5544TIP3    H138267   3.894   1.225   0.507 -0.1851  0.4536  0.4359
 5544TIP3    H238268   3.758   1.172   0.464  0.1754 -1.0381  1.0542
 5545TIP3   OH238269   6.162   2.351   0.008 -0.1412 -0.2929 -0.0820
 5545TIP3    H138270   6.199   2.270  -0.026  0.2735  0.0686 -0.4855
 5545TIP3    H238271   6.100   2.380  -0.059 -0.7329 -0.5818  0.3251
 5546TIP3   OH238272   3.584   6.237   7.570  0.1426 -0.6181 -0.8160
 5546TIP3    H138273   3.568   6.300   7.500  0.0208  0.5345  0.2099
 5546TIP3    H238274   3.661   6.272   7.616 -0.3338 -0.8467  0.1764
 5547TIP3   OH238275   0.518   3.340   0.235 -0.5089  0.4769  0.4290
 5547TIP3    H138276   0.435   3.294   0.245 -0.3103 -0.3064 -1.1382
 5547TIP3    H238277   0.519   3.367   0.143  1.9090 -1.5029 -0.2190
 5548TIP3   OH238278   1.294   4.941   7.184  0.3658 -0.2048 -0.3495
 5548TIP3    H138279   1.344   4.922   7.264  0.9717  0.9847 -0.4235
 5548TIP3    H238280   1.276   5.035   7.189  0.7988 -0.0214 -1.8279
 5549TIP3   OH238281   6.440   5.542   7.099  0.6557  0.4684 -0.2233
 5549TIP3    H138282   6.444   5.636   7.082 -0.7112  0.7365  0.7160
 5549TIP3    H238283   6.361   5.513   7.053  0.7810 -0.1137 -0.0808
 5550TIP3   OH238284   4.505   4.787   5.810  0.0655  0.6232  0.1662
 5550TIP3    H138285   4.586   4.836   5.820  0.7380 -0.1991 -0.9734
 5550TIP3    H238286   4.439   4.853   5.787  1.0617  0.9813 -1.8731
 5551TIP3   OH238287   1.926   1.596   0.305  0.1924 -0.3532  0.0247
 5551TIP3    H138288   1.966   1.523   0.354 -1.7561 -1.4178  0.1139
 5551TIP3    H238289   1.915   1.561   0.217  1.8501  0.8762 -0.7232
 5552TIP3   OH238290   1.521   1.425   6.627  0.4426  0.1540 -0.2478
 5552TIP3    H138291   1.610   1.435   6.661  0.7490 -1.5511 -0.4491
 5552TIP3    H238292   1.508   1.501   6.570  2.4491 -0.4761 -1.6278
 5553TIP3   OH238293   2.167   3.389   8.100 -0.8102 -1.6199 -1.1041
 5553TIP3    H138294   2.244   3.440   8.076 -2.3612  0.8085 -1.2299
 5553TIP3    H238295   2.130   3.360   8.017  0.4652 -3.7399 -1.0171
 5554TIP3   OH238296   5.880   1.863   6.838  0.2243  0.2897 -0.0592
 5554TIP3    H138297   5.798   1.894   6.802 -0.4789  0.6930  1.7696
 5554TIP3    H238298   5.946   1.926   6.809 -0.1394  0.1062 -1.3153
 5555TIP3   OH238299   6.986   4.192   7.293 -0.1304 -0.7491 -0.3417
 5555TIP3    H138300   6.893   4.182   7.311 -0.6377  1.7755 -1.2346
 5555TIP3    H238301   7.003   4.132   7.221 -0.8495 -1.8141  0.3452
 5556TIP3   OH238302   0.684   6.657   0.226  0.2486 -0.1326 -0.0245
 5556TIP3    H138303   0.752   6.601   0.188 -0.2511 -1.4345  0.9044
 5556TIP3    H238304   0.608   6.644   0.169  0.4325  0.4472 -0.4140
 5557TIP3   OH238305   1.642   4.018   6.156  0.3361  0.6207  0.3454
 5557TIP3    H138306   1.560   4.056   6.126  1.0461  0.6419 -1.7146
 5557TIP3    H238307   1.622   3.926   6.170 -0.1450  0.7150  0.3024
 5558TIP3   OH238308   3.136   5.938   6.440  0.3473 -0.7769 -0.4469
 5558TIP3    H138309   3.079   5.973   6.371  0.3226 -0.0049 -0.0456
 5558TIP3    H238310   3.134   6.004   6.509 -0.7612 -2.1714  0.9248
 5559TIP3   OH238311   4.573   4.576   5.946 -0.2033  0.1175  0.1873
 5559TIP3    H138312   4.561   4.635   5.873  0.1864  0.2201  0.2033
 5559TIP3    H238313   4.574   4.488   5.907  0.3686  0.1924  0.0197
 5560TIP3   OH238314   4.765   5.099   6.842 -0.1263 -0.2480  0.5030
 5560TIP3    H138315   4.767   5.006   6.866 -1.3697  0.1031  2.1680
 5560TIP3    H238316   4.676   5.114   6.810  0.1624  0.3087 -0.0611
 5561TIP3   OH238317   6.137   1.332   7.439 -0.7428  0.2560  0.4172
 5561TIP3    H138318   6.151   1.408   7.382  0.8365 -0.1634  0.2129
 5561TIP3    H238319   6.101   1.266   7.380 -0.9893  0.4537  0.3412
 5562TIP3   OH238320   3.262   3.003   0.931  0.4538  0.1026  0.3176
 5562TIP3    H138321   3.218   2.984   0.848  0.6918  0.5311  0.0917
 5562TIP3    H238322   3.192   2.999   0.996  0.0725  0.8154 -0.0427
 5563TIP3   OH238323   0.966   6.870   2.423 -0.0395  0.2643  0.2759
 5563TIP3    H138324   0.965   6.927   2.500  1.6626  2.2182 -1.0373
 5563TIP3    H238325   0.880   6.882   2.383  0.0611  1.4495  0.3793
 5564TIP3   OH238326   4.650   5.831   1.552 -0.3804 -0.0764 -0.2236
 5564TIP3    H138327   4.578   5.876   1.508 -0.0488  0.6768 -0.0251
 5564TIP3    H238328   4.707   5.902   1.582  0.5540 -0.6624 -0.5693
 5565TIP3   OH238329   1.526   0.775   6.740 -0.3694 -0.0363 -0.5188
 5565TIP3    H138330   1.443   0.808   6.704  0.1827  0.9706 -0.9214
 5565TIP3    H238331   1.576   0.749   6.663  1.0297  2.6107 -0.6272
 5566TIP3   OH238332   6.498   2.737   0.521 -0.0662  0.1645 -0.2640
 5566TIP3    H138333   6.465   2.670   0.582 -0.0757 -0.7282 -1.2217
 5566TIP3    H238334   6.589   2.751   0.549 -0.5096  0.8895  0.8883
 5567TIP3   OH238335   6.280   0.600   7.012 -0.0298  0.3942  0.2537
 5567TIP3    H138336   6.362   0.580   7.057  0.1595  1.4724  0.4244
 5567TIP3    H238337   6.299   0.679   6.961 -0.3994 -0.4771 -1.3092
 5568TIP3   OH238338   5.565   6.727   0.602 -0.3470 -0.4174  0.0262
 5568TIP3    H138339   5.649   6.687   0.624 -0.0921  0.1739  0.1424
 5568TIP3    H238340   5.581   6.821   0.608 -0.7285 -0.2681 -1.0108
 5569TIP3   OH238341   6.919   2.635   1.015 -0.1695  0.3386 -0.4941
 5569TIP3    H138342   6.869   2.587   0.949 -1.1999 -0.1375  0.5973
 5569TIP3    H238343   6.856   2.653   1.085  1.6265 -2.4943  2.1071
 5570TIP3   OH238344   3.983   1.521   7.982  0.3113  0.3732  0.3115
 5570TIP3    H138345   4.049   1.454   7.997  0.7000  0.9581  1.3212
 5570TIP3    H238346   3.900   1.478   8.002  0.5420  0.1312  0.7499
 5571TIP3   OH238347   5.905   4.148   6.979 -0.1959  0.4958 -0.2589
 5571TIP3    H138348   5.824   4.167   7.026  1.1063 -0.9674  2.9076
 5571TIP3    H238349   5.893   4.059   6.946  0.2896 -0.0176  0.8615
 5572TIP3   OH238350   5.549   2.825   7.011 -0.2105 -0.1142 -0.3629
 5572TIP3    H138351   5.575   2.904   7.059  1.3868  0.1407 -1.5669
 5572TIP3    H238352   5.480   2.855   6.952 -1.5258 -0.2311  1.0540
 5573TIP3   OH238353   2.221   1.222   1.759 -0.1082 -0.6975 -0.0888
 5573TIP3    H138354   2.222   1.192   1.850  0.3206 -1.5707 -0.3753
 5573TIP3    H238355   2.128   1.224   1.735 -0.2163 -0.5315  0.3388
 5574TIP3   OH238356   5.013   4.307   1.544 -0.1654  0.1983  0.0254
 5574TIP3    H138357   4.928   4.282   1.582  0.3709  0.4276  1.4259
 5574TIP3    H238358   5.060   4.350   1.615  0.1546  2.4539 -1.4538
 5575TIP3   OH238359   1.956   2.035   0.190 -0.4412 -0.8556 -0.1243
 5575TIP3    H138360   1.941   1.955   0.140  0.1752  0.2318 -2.1635
 5575TIP3    H238361   2.050   2.036   0.207 -0.0834  0.3863 -1.9231
 5576TIP3   OH238362   2.895   2.373   7.550 -0.8573 -0.1078 -0.0949
 5576TIP3    H138363   2.810   2.348   7.514 -0.8614  0.2457 -0.3352
 5576TIP3    H238364   2.894   2.341   7.640 -1.2479 -0.0981 -0.0965
 5577TIP3   OH238365   1.655   2.086   7.054  0.2894  0.7151  0.0064
 5577TIP3    H138366   1.607   2.018   7.101 -2.5813  1.2644 -1.8837
 5577TIP3    H238367   1.655   2.161   7.114  0.3035  0.1707  0.7001
 5578TIP3   OH238368   6.936   0.186   7.656 -0.3614  0.3716 -0.7577
 5578TIP3    H138369   7.006   0.121   7.654  0.8050  1.5781 -0.3760
 5578TIP3    H238370   6.882   0.161   7.731  1.3307  1.0762  0.7679
 5579TIP3   OH238371   6.097   5.416   0.377  0.1882 -0.3243  0.5022
 5579TIP3    H138372   6.058   5.485   0.431  2.0469  1.1812  0.0151
 5579TIP3    H238373   6.038   5.408   0.302 -1.1682 -0.7889  1.5821
 5580TIP3   OH238374   0.324   5.298   1.273  0.5159 -0.2551 -0.1234
 5580TIP3    H138375   0.304   5.365   1.338  1.9121 -0.0641  0.1358
 5580TIP3    H238376   0.239   5.261   1.250 -0.3356  1.7472 -0.4385
 5581TIP3   OH238377   5.779   3.150   7.866 -0.2907  0.0597 -0.1209
 5581TIP3    H138378   5.866   3.110   7.859 -0.6009 -0.7177  0.3444
 5581TIP3    H238379   5.773   3.181   7.956 -0.9684 -1.0444  0.2347
 5582TIP3   OH238380   5.750   0.369   0.128  0.1678  0.5303  0.2032
 5582TIP3    H138381   5.806   0.316   0.071 -0.9030  1.1086 -1.4710
 5582TIP3    H238382   5.727   0.310   0.201  1.1611 -0.4056 -0.2122
 5583TIP3   OH238383   6.707   2.368   7.953  0.4689  0.9866 -0.8229
 5583TIP3    H138384   6.729   2.280   7.921  0.0556  0.0676  1.2618
 5583TIP3    H238385   6.792   2.407   7.975  0.5846  0.6379 -0.6341
 5584TIP3   OH238386   1.947   6.663   0.693 -0.1807 -0.1776 -0.9039
 5584TIP3    H138387   1.978   6.754   0.690  2.3968 -0.9573 -0.8499
 5584TIP3    H238388   1.979   6.631   0.778 -0.9730 -1.1608 -0.9721
 5585TIP3   OH238389   6.406   5.231   6.880 -0.0765 -0.5859 -0.0089
 5585TIP3    H138390   6.393   5.317   6.840 -0.1176 -0.5956 -0.0163
 5585TIP3    H238391   6.501   5.223   6.888 -0.0216 -0.9339 -0.8789
 5586TIP3   OH238392   5.219   6.300   1.047 -0.0510 -0.7375  0.4003
 5586TIP3    H138393   5.147   6.256   1.091 -2.5541  0.2898 -2.3234
 5586TIP3    H238394   5.230   6.382   1.095 -0.2657 -1.1832  1.2237
 5587TIP3   OH238395   1.709   4.026   7.703 -0.3107  0.0815 -0.2697
 5587TIP3    H138396   1.779   4.016   7.767 -0.0913  1.8238 -0.1813
 5587TIP3    H238397   1.732   4.106   7.655 -1.6724  0.0916 -0.9513
 5588TIP3   OH238398   0.770   3.482   2.024  0.4604  0.4995 -0.3176
 5588TIP3    H138399   0.727   3.410   1.979 -0.6534  0.7337  0.3377
 5588TIP3    H238400   0.704   3.552   2.027  1.6444  1.7225 -1.3284
 5589TIP3   OH238401   5.638   3.897   7.034 -0.1874 -0.3549  0.2298
 5589TIP3    H138402   5.564   3.885   6.975 -0.7459  0.2805  0.7865
 5589TIP3    H238403   5.626   3.985   7.069  1.0003 -0.1225  0.0907
 5590TIP3   OH238404   3.453   6.023   7.749 -0.0424 -0.2606  0.4982
 5590TIP3    H138405   3.366   6.053   7.724  0.9740  0.7467 -2.2442
 5590TIP3    H238406   3.510   6.098   7.732  1.6326 -1.5488  0.1484
 5591TIP3   OH238407   4.235   4.707   1.056 -0.6094  0.4941 -0.3643
 5591TIP3    H138408   4.271   4.632   1.103  0.3761  0.6296 -0.8520
 5591TIP3    H238409   4.172   4.746   1.116  1.1103  1.0782  1.1625
 5592TIP3   OH238410   1.196   3.548   7.307  0.6300  0.2837 -0.2265
 5592TIP3    H138411   1.132   3.562   7.377  0.2419  1.6350 -0.8136
 5592TIP3    H238412   1.277   3.525   7.353  0.0607 -0.1815  0.5851
 5593TIP3   OH238413   6.652   2.776   6.743 -0.0933  0.5057  0.8830
 5593TIP3    H138414   6.595   2.788   6.819  1.3196  0.5295  1.9816
 5593TIP3    H238415   6.666   2.682   6.738  0.0586  0.5316  0.8215
 5594TIP3   OH238416   3.685   6.809   1.393  0.9756  0.0056 -0.3747
 5594TIP3    H138417   3.681   6.716   1.372  0.5800 -0.3221  1.0671
 5594TIP3    H238418   3.767   6.818   1.443 -0.7173 -0.3079  2.6763
 5595TIP3   OH238419   2.840   1.547   7.857 -0.0810  0.1999  0.3081
 5595TIP3    H138420   2.878   1.505   7.780  0.2376  1.1961 -0.0899
 5595TIP3    H238421   2.769   1.601   7.823 -0.5923 -0.1234  0.8324
 5596TIP3   OH238422   6.466   0.217   1.775  0.2873 -0.0363  0.0277
 5596TIP3    H138423   6.480   0.125   1.797 -2.0517 -0.5141 -0.1921
 5596TIP3    H238424   6.552   0.249   1.749  1.8361 -1.2343  3.2399
 5597TIP3   OH238425   0.039   1.413   5.965 -0.2532  0.2101 -0.0988
 5597TIP3    H138426  -0.048   1.424   6.004 -0.5467  0.2638 -0.7364
 5597TIP3    H238427   0.021   1.405   5.871  0.0897 -3.4271  0.0003
 5598TIP3   OH238428   6.496   4.551   6.867  0.3077  0.1616 -0.1181
 5598TIP3    H138429   6.553   4.495   6.920 -0.0256  0.6749  0.7968
 5598TIP3    H238430   6.494   4.508   6.781  0.5981 -0.8636  0.3700
 5599TIP3   OH238431   4.366   1.021   7.891 -0.0577  0.2889 -0.2402
 5599TIP3    H138432   4.399   1.109   7.910  0.8641  0.3771 -2.0488
 5599TIP3    H238433   4.344   1.024   7.797 -2.1444 -0.7540  0.1596
 5600TIP3   OH238434   6.382   3.516   1.810 -0.1354  0.2870 -0.1390
 5600TIP3    H138435   6.344   3.429   1.800  0.5761 -0.0168 -0.3192
 5600TIP3    H238436   6.364   3.540   1.901  1.8351 -1.1435  0.7040
 5601TIP3   OH238437   0.833   0.759   0.803  0.6289 -0.1291  0.2574
 5601TIP3    H138438   0.869   0.671   0.793 -0.0592 -0.5873  1.4869
 5601TIP3    H238439   0.794   0.780   0.718  0.1130 -1.3428  0.1808
 5602TIP3   OH238440   4.635   2.002   6.068  0.3812  0.2705 -0.3080
 5602TIP3    H138441   4.678   1.921   6.094  1.2069  0.7959  0.0117
 5602TIP3    H238442   4.689   2.071   6.107 -0.2973  0.9722 -0.5880
 5603TIP3   OH238443   4.799   0.086   0.528  0.1532  0.1826 -0.2748
 5603TIP3    H138444   4.864   0.135   0.579 -0.3464 -0.1265  0.6866
 5603TIP3    H238445   4.807   0.120   0.439  0.7446  1.0480  0.0990
 5604TIP3   OH238446   3.474   3.563   1.659  0.6292  0.4447 -0.4494
 5604TIP3    H138447   3.436   3.618   1.727  1.4436  1.4140 -0.7530
 5604TIP3    H238448   3.562   3.598   1.646  1.2853 -1.1096 -0.4512
 5605TIP3   OH238449   7.023   4.537   0.580 -0.6144 -0.0940 -0.2540
 5605TIP3    H138450   7.017   4.629   0.555 -0.2889 -0.1110 -0.4020
 5605TIP3    H238451   6.932   4.509   0.591 -0.7222  0.1938 -0.4011
 5606TIP3   OH238452   2.324   5.769   6.635 -0.5066 -0.3741  0.5838
 5606TIP3    H138453   2.341   5.745   6.544  2.0522  0.9292  0.6541
 5606TIP3    H238454   2.410   5.769   6.677 -1.2155  1.9852  2.2460
 5607TIP3   OH238455   4.761   6.892   0.517  0.5441 -0.2641  0.0490
 5607TIP3    H138456   4.763   6.855   0.605  2.0413  0.2303  0.2469
 5607TIP3    H238457   4.767   6.986   0.531  0.6687 -0.1747 -0.5851
 5608TIP3   OH238458   2.294   1.250   7.132  0.6420  0.6548  0.0461
 5608TIP3    H138459   2.251   1.330   7.102  0.8590  1.4462  1.7268
 5608TIP3    H238460   2.239   1.179   7.099 -0.1475  1.5310 -0.5777
 5609TIP3   OH238461   6.617   3.136   0.371  0.1047  0.2304  0.0774
 5609TIP3    H138462   6.600   3.077   0.297  0.4905 -0.4526  0.5379
 5609TIP3    H238463   6.708   3.120   0.395 -0.0373  0.4080  0.7462
 5610TIP3   OH238464   0.205   0.820   1.065 -0.4837 -0.1825 -0.5027
 5610TIP3    H138465   0.205   0.743   1.122 -1.6368 -0.2376 -0.5561
 5610TIP3    H238466   0.120   0.818   1.022 -0.4316  0.9835 -0.6952
 5611TIP3   OH238467   1.596   0.674   7.332  0.2072  0.6872  0.0021
 5611TIP3    H138468   1.579   0.756   7.378 -1.0736  0.0706  0.6819
 5611TIP3    H238469   1.665   0.631   7.383  1.9316  1.9422 -1.1662
 5612TIP3   OH238470   3.127   4.117   2.333 -0.2248 -0.2429  0.0088
 5612TIP3    H138471   3.122   4.135   2.239  0.2190  0.6997  0.1579
 5612TIP3    H238472   3.151   4.024   2.338  1.1319  0.0369 -0.8302
 5613TIP3   OH238473   5.596   1.280   1.081  0.0199 -0.2914 -0.1624
 5613TIP3    H138474   5.562   1.289   0.992 -1.0741 -2.0545  0.0431
 5613TIP3    H238475   5.565   1.195   1.110 -1.5335  1.1301  2.7474
 5614TIP3   OH238476   4.239   3.709   7.863  0.0682 -0.1317 -0.2600
 5614TIP3    H138477   4.191   3.772   7.916 -0.5713 -1.1660  0.4198
 5614TIP3    H238478   4.304   3.762   7.816 -0.4261  1.0168  0.3092
 5615TIP3   OH238479   1.289   5.874   0.102 -0.4050  0.4680  0.2211
 5615TIP3    H138480   1.258   5.947   0.048 -1.1639 -0.4774 -0.6607
 5615TIP3    H238481   1.374   5.850   0.064  0.0951  1.2101  0.8407
 5616TIP3   OH238482   3.178   2.485   0.064 -0.2060 -0.3820 -0.0043
 5616TIP3    H138483   3.240   2.414   0.045  1.1512  1.0494 -1.1615
 5616TIP3    H238484   3.125   2.491  -0.016  1.0545  1.2249 -0.7611
 5617TIP3   OH238485   3.234   2.520   2.042  0.8341  0.1239 -0.1794
 5617TIP3    H138486   3.191   2.434   2.039  2.2609 -0.6432  0.6245
 5617TIP3    H238487   3.209   2.561   1.959 -2.4453  0.2638  0.7012
 5618TIP3   OH238488   4.039   5.678   0.818 -0.0236  0.3922  0.3884
 5618TIP3    H138489   4.121   5.629   0.828  0.1419  0.7327  0.7586
 5618TIP3    H238490   4.011   5.696   0.908 -0.5750  0.1684  0.2671
 5619TIP3   OH238491   6.510   1.622   7.814  0.1670  0.0124 -0.6675
 5619TIP3    H138492   6.581   1.685   7.805 -2.1355  2.5880 -2.7928
 5619TIP3    H238493   6.470   1.618   7.727 -1.7755 -1.9656  0.2113
 5620TIP3   OH238494   2.945   1.589   0.805 -0.0602  0.2189  0.1639
 5620TIP3    H138495   3.037   1.581   0.780 -0.1211  0.9371 -0.3178
 5620TIP3    H238496   2.937   1.535   0.885  1.0570  1.1256  0.9228
 5621TIP3   OH238497   1.276   4.461   0.817 -0.1500  0.0898 -0.3360
 5621TIP3    H138498   1.243   4.393   0.759  0.1924 -0.7289  0.4107
 5621TIP3    H238499   1.354   4.495   0.773  0.5307 -1.0333 -0.0374
 5622TIP3   OH238500   5.788   5.398   2.190 -0.0475 -0.3191  0.1841
 5622TIP3    H138501   5.699   5.408   2.223 -0.3917 -2.4877  0.0584
 5622TIP3    H238502   5.793   5.457   2.115 -2.1570 -1.7632 -1.1868
 5623TIP3   OH238503   6.696   5.594   7.814 -0.4572  0.5228 -0.5434
 5623TIP3    H138504   6.681   5.573   7.722  0.7129  1.5950 -1.0062
 5623TIP3    H238505   6.791   5.600   7.822 -0.6069  3.2419  0.0381
 5624TIP3   OH238506   4.671   3.580   7.511 -0.3720  0.1422  0.9620
 5624TIP3    H138507   4.680   3.669   7.545  1.5540  0.2925  0.1721
 5624TIP3    H238508   4.635   3.591   7.423  1.2919  0.2960  0.2659
 5625TIP3   OH238509   5.821   0.665   0.930  0.0238  0.3730 -0.5480
 5625TIP3    H138510   5.786   0.750   0.957  1.6952  0.8782  0.1587
 5625TIP3    H238511   5.861   0.629   1.009 -1.2235 -1.4040 -0.6814
 5626TIP3   OH238512   3.499   6.818   7.013 -0.5375  0.0907  0.4154
 5626TIP3    H138513   3.528   6.762   6.942 -2.0085 -1.3777  0.8883
 5626TIP3    H238514   3.572   6.878   7.029  0.6944 -1.0304 -0.8006
 5627TIP3   OH238515   4.578   4.661   8.238 -0.0795 -0.3673  0.0030
 5627TIP3    H138516   4.670   4.668   8.214  0.9323 -0.5503  3.3081
 5627TIP3    H238517   4.560   4.738   8.292 -2.0422 -0.1026 -0.9163
 5628TIP3   OH238518   7.030   4.923   6.899  0.4417 -0.3092  0.4509
 5628TIP3    H138519   6.972   4.983   6.852  1.3872 -0.1671 -0.5642
 5628TIP3    H238520   6.994   4.836   6.881 -0.4995 -0.1239  1.3225
 5629TIP3   OH238521   1.822   0.891   7.142 -0.2283 -0.1730 -0.3249
 5629TIP3    H138522   1.902   0.942   7.156 -0.5449  0.3292 -0.3133
 5629TIP3    H238523   1.853   0.801   7.130  0.3436  0.0248 -0.3932
 5630TIP3   OH238524   3.224   3.492   0.130  0.5121 -0.4306 -0.1071
 5630TIP3    H138525   3.242   3.555   0.060 -1.4568  1.2008  0.7442
 5630TIP3    H238526   3.307   3.446   0.142  1.3622  0.3593 -2.3733
 5631TIP3   OH238527   4.707   5.373   7.347 -0.0494 -0.0568 -0.3021
 5631TIP3    H138528   4.754   5.325   7.416 -0.9229 -0.6897 -0.1350
 5631TIP3    H238529   4.767   5.444   7.323  1.6505 -1.6530 -1.0956
 5632TIP3   OH238530   5.064   3.127   7.046 -0.0683  0.3476 -0.3156
 5632TIP3    H138531   5.094   3.060   6.985  0.7905  0.2667  0.1746
 5632TIP3    H238532   5.121   3.202   7.030 -0.5301  0.6978 -0.3406
 5633TIP3   OH238533   0.031   6.033   0.757  0.0173  0.4146 -0.2261
 5633TIP3    H138534   0.071   6.120   0.751 -1.3647  1.0823 -0.2977
 5633TIP3    H238535   0.094   5.980   0.805  1.8309  0.8692 -1.9445
 5634TIP3   OH238536   5.722   4.359   1.722 -0.1281  0.7660  0.3944
 5634TIP3    H138537   5.753   4.326   1.806 -0.4068 -0.4618  0.0246
 5634TIP3    H238538   5.657   4.426   1.746 -1.7968 -1.0504  1.2011
 5635TIP3   OH238539   1.703   1.297   1.304 -0.0882 -0.2816  0.2677
 5635TIP3    H138540   1.691   1.354   1.228 -1.5388 -3.0931 -1.7955
 5635TIP3    H238541   1.623   1.306   1.354  1.3009  2.4053  2.2280
 5636TIP3   OH238542   4.348   3.532   1.224 -0.2221 -0.2177  0.3346
 5636TIP3    H138543   4.273   3.495   1.271 -1.8923  2.9332  0.3733
 5636TIP3    H238544   4.414   3.547   1.292  0.0643 -1.9602  0.4860
 5637TIP3   OH238545   6.802   2.468   0.288  0.1709 -0.0498 -0.1215
 5637TIP3    H138546   6.715   2.505   0.275  0.0670 -1.1967 -3.7655
 5637TIP3    H238547   6.786   2.383   0.330 -0.3638  0.1327  0.0499
 5638TIP3   OH238548   5.715   2.110   1.358  0.0844  0.5829 -0.0050
 5638TIP3    H138549   5.669   2.036   1.316  0.6031  0.2061  0.0887
 5638TIP3    H238550   5.773   2.143   1.290  0.2367  0.5742  0.1225
 5639TIP3   OH238551   4.575   3.059   6.322 -0.1678 -0.1099 -0.1005
 5639TIP3    H138552   4.628   3.133   6.293 -1.1295  1.1553  1.2077
 5639TIP3    H238553   4.485   3.086   6.304 -0.4496 -1.8649 -1.5133
 5640TIP3   OH238554   5.568   4.147   7.843 -0.1073 -0.1782 -0.6869
 5640TIP3    H138555   5.565   4.051   7.845 -0.4522 -0.1679 -0.6050
 5640TIP3    H238556   5.482   4.174   7.875  0.1180  0.1608 -0.3588
 5641TIP3   OH238557   5.057   5.484   6.820  0.5383  0.2180  0.6426
 5641TIP3    H138558   5.043   5.515   6.731  0.0426 -0.9720  0.2941
 5641TIP3    H238559   5.045   5.562   6.875 -1.5162  0.4916 -0.1295
 5642TIP3   OH238560   0.587   0.580   7.014  0.4173  0.5955 -0.0886
 5642TIP3    H138561   0.661   0.613   7.065  0.8541 -0.1984 -0.1933
 5642TIP3    H238562   0.555   0.505   7.064 -1.2625  1.7818  0.7241
 5643TIP3   OH238563   3.897   2.540   0.280 -0.0536 -0.4753  0.2526
 5643TIP3    H138564   3.870   2.451   0.256  0.1413  0.1740 -2.7191
 5643TIP3    H238565   3.861   2.595   0.211 -3.2064  2.3729  3.7001
 5644TIP3   OH238566   4.296   5.785   7.666  0.2493  0.4412  0.1899
 5644TIP3    H138567   4.211   5.828   7.677 -0.2601 -0.0376 -1.6104
 5644TIP3    H238568   4.328   5.772   7.756 -2.8714 -1.9513  1.1502
 5645TIP3   OH238569   1.388   6.239   0.373 -0.4093  0.7821 -0.0163
 5645TIP3    H138570   1.366   6.313   0.316 -0.7990  0.5941 -0.1058
 5645TIP3    H238571   1.320   6.239   0.440 -1.3066 -0.4379 -0.8917
 5646TIP3   OH238572   2.349   3.736   6.184  0.2926  0.2097  0.8616
 5646TIP3    H138573   2.438   3.768   6.201  0.2161 -0.3743  2.5668
 5646TIP3    H238574   2.357   3.688   6.101  0.9328  2.4261 -0.4388
 5647TIP3   OH238575   6.367   2.340   2.264  0.0088  0.3824  0.2130
 5647TIP3    H138576   6.404   2.257   2.234  0.9756 -0.0054  2.2965
 5647TIP3    H238577   6.440   2.402   2.261 -0.1027  0.5526  0.8765
 5648TIP3   OH238578   6.608   4.423   0.738 -0.5232  0.0546  0.3813
 5648TIP3    H138579   6.554   4.361   0.786  0.2057 -1.1030 -0.2680
 5648TIP3    H238580   6.603   4.395   0.647  1.0407  0.0069  0.2866
 5649TIP3   OH238581   1.967   7.050   6.386  0.0269  0.1341 -0.2031
 5649TIP3    H138582   1.946   7.006   6.303 -0.1318 -0.0607 -0.0611
 5649TIP3    H238583   1.965   6.980   6.451  0.2657  0.2672 -0.0514
 5650TIP3   OH238584   6.996   5.916   1.524  0.1195  0.0200  0.3833
 5650TIP3    H138585   6.992   5.970   1.445  1.8360  0.3466  0.4805
 5650TIP3    H238586   7.006   5.979   1.596 -1.1721 -0.2892  0.8722
 5651TIP3   OH238587   3.736   1.495   1.394 -0.5898 -0.2532 -0.3890
 5651TIP3    H138588   3.805   1.463   1.336  0.0937  0.1911  0.1639
 5651TIP3    H238589   3.707   1.577   1.354 -0.9833 -0.5722 -0.7617
 5652TIP3   OH238590   1.258   2.719   7.747  0.5288 -0.0707 -0.7875
 5652TIP3    H138591   1.310   2.649   7.708  0.3846  0.0835 -1.2771
 5652TIP3    H238592   1.222   2.681   7.827  2.1112  0.1063  0.0486
 5653TIP3   OH238593   0.778   1.151   6.913  0.4841 -0.6083  0.2013
 5653TIP3    H138594   0.805   1.155   6.821  0.5347 -0.0172  0.2351
 5653TIP3    H238595   0.684   1.167   6.910  0.4587 -0.7540  0.2378
 5654TIP3   OH238596   1.492   6.018   1.456 -0.4773 -0.4076 -0.9333
 5654TIP3    H138597   1.466   6.076   1.528 -0.0384 -2.8911  1.3593
 5654TIP3    H238598   1.583   6.041   1.438  0.0487 -1.0764  0.7359
 5655TIP3   OH238599   6.043   4.669   0.415  0.3767 -0.0790 -0.3219
 5655TIP3    H138600   6.010   4.595   0.465  0.4368  0.1779  0.0972
 5655TIP3    H238601   5.989   4.671   0.336 -1.1854  0.8446  0.7233
 5656TIP3   OH238602   2.335   1.948   2.318 -0.5321  0.7384 -0.3005
 5656TIP3    H138603   2.267   1.882   2.326 -1.4635  1.6395 -0.5464
 5656TIP3    H238604   2.401   1.923   2.383  0.4863 -1.9377 -2.1984
 5657TIP3   OH238605   3.575   5.883   1.978 -0.5719 -0.6294 -0.1658
 5657TIP3    H138606   3.526   5.825   1.921  1.2868 -1.9010 -0.5934
 5657TIP3    H238607   3.554   5.853   2.067 -0.7442 -1.0173 -0.3355
 5658TIP3   OH238608   4.070   4.401   1.054 -0.0081  0.5306 -0.2281
 5658TIP3    H138609   3.996   4.422   1.111  0.3451 -0.4532  0.6331
 5658TIP3    H238610   4.037   4.411   0.965 -0.7802  1.4013  0.1430
 5659TIP3   OH238611   5.533   5.528   2.257 -0.1868 -0.0351 -0.0357
 5659TIP3    H138612   5.521   5.560   2.167 -0.4835  0.0957  0.0499
 5659TIP3    H238613   5.490   5.442   2.257  1.9458 -1.1895 -0.6992
 5660TIP3   OH238614   2.275   3.063   8.268  0.8424 -0.3751 -0.1833
 5660TIP3    H138615   2.302   3.151   8.292  0.1729 -0.0951 -0.4251
 5660TIP3    H238616   2.213   3.076   8.196  0.8113 -1.0477 -0.2848
 5661TIP3   OH238617   5.989   2.286   6.895  0.8427 -0.2508  0.0227
 5661TIP3    H138618   6.039   2.227   6.838  1.7613 -1.7679  2.2282
 5661TIP3    H238619   5.905   2.241   6.907  1.0614 -0.5004  0.6805
 5662TIP3   OH238620   0.701   0.641   8.149 -0.0230  0.0406  0.2254
 5662TIP3    H138621   0.623   0.589   8.168 -0.1137 -0.3587 -1.0878
 5662TIP3    H238622   0.753   0.638   8.229  0.4137 -2.8845 -0.0597
 5663TIP3   OH238623   1.727   3.766   1.677 -0.4291 -0.1874 -0.0676
 5663TIP3    H138624   1.745   3.858   1.656 -0.7934  0.0700  0.6976
 5663TIP3    H238625   1.759   3.756   1.767 -0.8470 -0.6763  0.0314
 5664TIP3   OH238626   5.092   6.464   0.203 -0.2426  0.1485 -0.1184
 5664TIP3    H138627   5.000   6.474   0.229  0.1745 -1.7898  2.5165
 5664TIP3    H238628   5.088   6.438   0.112 -2.1342  2.3749 -0.7846
 5665TIP3   OH238629   3.149   6.959   7.706  0.3691 -0.3835 -0.4842
 5665TIP3    H138630   3.229   6.968   7.655  0.6891  1.5160  0.2793
 5665TIP3    H238631   3.079   6.971   7.643  0.7095 -0.4703 -0.8816
 5666TIP3   OH238632   2.242   1.638   0.483 -0.6905 -0.0510  0.0697
 5666TIP3    H138633   2.328   1.650   0.524 -1.4605  1.0786  1.4470
 5666TIP3    H238634   2.229   1.544   0.483  1.9864 -0.6491 -3.3773
 5667TIP3   OH238635   6.119   1.046   0.070 -0.0260 -0.3627  0.5978
 5667TIP3    H138636   6.202   1.008   0.042 -0.2982 -0.6090  0.1118
 5667TIP3    H238637   6.104   1.010   0.157  1.0027  0.6832  1.2312
 5668TIP3   OH238638   2.745   0.934   0.651  0.4141 -0.0228 -0.1740
 5668TIP3    H138639   2.833   0.962   0.677  1.5766 -1.5378 -2.2518
 5668TIP3    H238640   2.741   0.949   0.557 -1.4093 -0.4645 -0.2121
 5669TIP3   OH238641   3.215   2.755   0.490  0.2664 -0.2124 -0.0254
 5669TIP3    H138642   3.212   2.666   0.454  0.1394  0.2921 -1.3020
 5669TIP3    H238643   3.186   2.811   0.418  0.8986  0.9269  0.5866
 5670TIP3   OH238644   3.910   1.683   6.052  0.1630 -0.0481  0.1562
 5670TIP3    H138645   3.852   1.649   5.984 -0.4855  1.2996  0.0015
 5670TIP3    H238646   3.913   1.614   6.118 -0.6520 -0.6280 -0.3917
 5671TIP3   OH238647   0.156   0.250   1.174 -0.2336 -0.5218 -0.1740
 5671TIP3    H138648   0.092   0.204   1.120  1.3985 -1.0635 -1.7799
 5671TIP3    H238649   0.141   0.343   1.154  0.1990 -0.7022 -1.4614
 5672TIP3   OH238650   2.585   0.114   0.512 -0.5309  0.1687 -0.8758
 5672TIP3    H138651   2.619   0.196   0.548  0.6515 -0.9186  0.6032
 5672TIP3    H238652   2.634   0.101   0.431  1.7433 -0.7057  0.5575
 5673TIP3   OH238653   4.794   6.385   0.979 -0.5072  0.2425 -0.2905
 5673TIP3    H138654   4.733   6.419   1.045 -0.4320  0.1369 -0.1651
 5673TIP3    H238655   4.763   6.422   0.897 -1.3042 -0.5339 -0.3672
 5674TIP3   OH238656   3.113   1.074   1.298 -0.1146  0.0883 -0.0618
 5674TIP3    H138657   3.180   1.010   1.319 -0.4656 -0.8493 -1.6816
 5674TIP3    H238658   3.031   1.035   1.330  0.1530  1.8863  3.3240
 5675TIP3   OH238659   1.072   5.405   1.600  0.0967 -0.4331  0.2153
 5675TIP3    H138660   1.008   5.427   1.668 -0.1190 -1.4338  0.3521
 5675TIP3    H238661   1.107   5.319   1.627  0.1644 -0.7403 -0.8275
 5676TIP3   OH238662   3.357   1.914   1.475 -0.0347  0.7787 -0.0973
 5676TIP3    H138663   3.408   1.992   1.498  1.6825 -0.5199  0.7220
 5676TIP3    H238664   3.337   1.873   1.559 -0.4777  0.0568 -0.5453
 5677TIP3   OH238665   4.310   3.901   1.400  0.0245 -0.1382  0.6281
 5677TIP3    H138666   4.257   3.903   1.480  1.2134 -0.2661  1.4371
 5677TIP3    H238667   4.300   3.989   1.364 -2.8055 -0.8553 -0.6806
 5678TIP3   OH238668   4.203   6.675   1.245 -0.0768 -0.1485  0.8297
 5678TIP3    H138669   4.138   6.712   1.305  0.4596  0.1835  1.2143
 5678TIP3    H238670   4.187   6.580   1.249 -1.3835 -0.0007 -0.0799
 5679TIP3   OH238671   3.161   2.076   6.701 -0.7076  0.2093 -0.0115
 5679TIP3    H138672   3.135   2.063   6.610 -2.2251 -0.7649  0.5188
 5679TIP3    H238673   3.084   2.049   6.752  0.7027 -0.9600  1.6187
 5680TIP3   OH238674   6.024   2.652   7.154  0.5186  1.0425  0.8304
 5680TIP3    H138675   5.975   2.642   7.073  2.5970  4.0388 -1.0114
 5680TIP3    H238676   6.003   2.574   7.205 -2.0092 -0.2793 -1.9544
 5681TIP3   OH238677   0.397   5.509   6.668  0.1205  0.0245 -0.8878
 5681TIP3    H138678   0.324   5.569   6.678 -1.5073 -2.0229  0.3703
 5681TIP3    H238679   0.449   5.519   6.748 -0.6585 -0.8226 -0.2526
 5682TIP3   OH238680   6.426   3.331   0.378 -0.2785  0.3275  0.0773
 5682TIP3    H138681   6.500   3.270   0.379 -1.0382 -0.7373  3.3692
 5682TIP3    H238682   6.354   3.280   0.342 -0.4590 -0.1382  1.0714
 5683TIP3   OH238683   5.408   7.080   7.692  0.3455  0.6084 -0.5646
 5683TIP3    H138684   5.343   7.016   7.663  0.4200  0.5121 -0.5205
 5683TIP3    H238685   5.356   7.156   7.719  0.2854  0.7474 -1.0655
 5684TIP3   OH238686   5.990   2.101   0.881  0.2094 -0.2233  0.2580
 5684TIP3    H138687   6.032   2.187   0.886  0.7839 -0.3675 -1.3764
 5684TIP3    H238688   5.896   2.121   0.874  0.3738  0.3083 -0.5843
 5685TIP3   OH238689   1.538   5.778   0.050 -0.2913  0.4246 -0.0768
 5685TIP3    H138690   1.611   5.722   0.078 -0.7860 -0.8775 -1.2838
 5685TIP3    H238691   1.569   5.867   0.067  1.1639 -0.1393  0.4098
 5686TIP3   OH238692   2.218   0.794   2.216  0.0823 -0.2508 -0.4560
 5686TIP3    H138693   2.147   0.762   2.271  0.5373 -0.8060 -0.1857
 5686TIP3    H238694   2.211   0.890   2.222 -1.3006 -0.2586 -1.2884
 5687TIP3   OH238695   5.023   4.838   1.468 -0.5226 -0.1322 -0.0171
 5687TIP3    H138696   4.997   4.928   1.486  1.1016  0.3588  0.0228
 5687TIP3    H238697   5.056   4.805   1.551  1.3272  0.1397 -0.5868
 5688TIP3   OH238698   0.373   6.785   6.432 -0.4342 -0.8889 -0.2985
 5688TIP3    H138699   0.373   6.788   6.336 -0.2830 -1.8991 -0.3428
 5688TIP3    H238700   0.439   6.720   6.454 -0.6929 -0.9014  0.4868
 5689TIP3   OH238701   5.457   5.724   6.919  0.1283  0.4598  0.2029
 5689TIP3    H138702   5.516   5.799   6.908 -0.5278  1.1212  1.0390
 5689TIP3    H238703   5.407   5.721   6.838 -1.9974  2.8923  1.2682
 5690TIP3   OH238704   4.527   2.502   0.061  0.4326  0.3535 -0.3066
 5690TIP3    H138705   4.603   2.478   0.113 -0.6416  0.7123  1.5184
 5690TIP3    H238706   4.475   2.421   0.056  0.7610  0.1934 -1.2653
 5691TIP3   OH238707   2.559   6.892   7.824 -0.0495  0.4438  0.2872
 5691TIP3    H138708   2.572   6.947   7.746  3.1573  1.8394  1.6212
 5691TIP3    H238709   2.530   6.953   7.892 -1.4280 -0.5029  0.5774
 5692TIP3   OH238710   6.797   4.338   0.011 -0.2973  0.3292  0.4654
 5692TIP3    H138711   6.889   4.333   0.037 -0.8212  0.0963  2.4872
 5692TIP3    H238712   6.749   4.332   0.094 -2.0891  2.5095 -0.3071
 5693TIP3   OH238713   4.539   4.797   6.603  0.0784  0.2808 -0.2492
 5693TIP3    H138714   4.544   4.855   6.680 -0.6464 -0.8107  0.6578
 5693TIP3    H238715   4.601   4.835   6.540  1.5931  0.5505  1.3182
 5694TIP3   OH238716   3.310   0.560   1.876  1.2118 -0.2071  0.0234
 5694TIP3    H138717   3.290   0.594   1.964 -0.3762 -0.0003 -0.3944
 5694TIP3    H238718   3.391   0.509   1.888  2.7571  2.2989  0.9889
 5695TIP3   OH238719   5.867   0.675   0.431 -0.8448  0.1501 -0.1623
 5695TIP3    H138720   5.841   0.717   0.513 -2.1824 -1.8537  0.5046
 5695TIP3    H238721   5.814   0.719   0.364 -1.6993  0.0172  0.4199
 5696TIP3   OH238722   6.934   2.905   8.117 -0.4787  0.6602 -0.1814
 5696TIP3    H138723   6.989   2.935   8.045 -2.3911  0.0943 -1.9405
 5696TIP3    H238724   6.917   2.983   8.169  0.3517  1.2113 -0.7200
 5697TIP3   OH238725   1.209   1.973   6.300  0.4142 -0.3284  0.1723
 5697TIP3    H138726   1.203   2.063   6.269  0.8289 -0.2281  0.3666
 5697TIP3    H238727   1.225   1.921   6.221  0.2906 -0.2169  0.0740
 5698TIP3   OH238728   5.727   1.341   6.821  0.0404 -0.1514  0.0226
 5698TIP3    H138729   5.706   1.402   6.891  1.4721 -1.0668  1.3209
 5698TIP3    H238730   5.823   1.343   6.816  0.1202 -2.0118 -0.1070
 5699TIP3   OH238731   0.351   5.567   0.021  0.5206  0.2608  0.7418
 5699TIP3    H138732   0.416   5.599  -0.042 -1.3574  1.4413 -0.7466
 5699TIP3    H238733   0.350   5.633   0.090  1.4698 -0.2031  1.2105
 5700TIP3   OH238734   2.592   4.016   7.656  0.3112  0.0145 -0.5650
 5700TIP3    H138735   2.552   4.010   7.569  0.9762 -0.4104 -0.8503
 5700TIP3    H238736   2.522   3.994   7.717 -0.2709  0.7212 -0.9669
 5701TIP3   OH238737   4.509   2.900   6.540 -0.5002 -0.3356 -0.2090
 5701TIP3    H138738   4.513   2.968   6.472  0.7446 -0.4422 -0.2574
 5701TIP3    H238739   4.459   2.940   6.611 -1.1199  0.0670 -0.8611
 5702TIP3   OH238740   6.814   4.518   6.106  0.5508  0.7485 -0.3327
 5702TIP3    H138741   6.776   4.456   6.044 -0.2927  0.1389  0.7677
 5702TIP3    H238742   6.907   4.520   6.085  0.4611 -0.3281 -0.8578
 5703TIP3   OH238743   0.769   3.338   7.475  0.4493  0.5628 -0.1431
 5703TIP3    H138744   0.838   3.401   7.494 -0.7136  2.3148 -1.4592
 5703TIP3    H238745   0.688   3.379   7.507 -0.4293  0.0695 -1.6163
 5704TIP3   OH238746   1.177   6.115   7.228  0.0466  0.1874 -0.0883
 5704TIP3    H138747   1.229   6.188   7.196 -0.5116 -0.0825 -1.7216
 5704TIP3    H238748   1.241   6.052   7.261  0.5273  1.3880  1.3639
 5705TIP3   OH238749   1.668   4.576   1.192  0.5828 -0.5052  0.1275
 5705TIP3    H138750   1.683   4.611   1.280 -0.9841  1.0595 -0.1733
 5705TIP3    H238751   1.717   4.635   1.135 -0.2201 -0.1283 -0.1967
 5706TIP3   OH238752   2.121   5.553   8.027 -0.0665  0.3219  0.3507
 5706TIP3    H138753   2.189   5.617   8.005 -1.1300  1.7431  1.0654
 5706TIP3    H238754   2.040   5.603   8.028 -1.5956 -1.7272 -2.8963
 5707TIP3   OH238755   2.072   4.373   6.338 -0.2422  0.4316  0.7065
 5707TIP3    H138756   2.154   4.357   6.292  0.1496  0.8354  1.2416
 5707TIP3    H238757   2.099   4.406   6.424 -0.9662  1.3329  0.6099
 5708TIP3   OH238758   4.447   1.872   6.843 -0.3258  0.1867  0.3370
 5708TIP3    H138759   4.442   1.943   6.779 -1.7403  1.1106  1.4205
 5708TIP3    H238760   4.530   1.887   6.888  0.2269  0.0851 -0.6185
 5709TIP3   OH238761   1.100   4.343   6.560 -0.1434  0.0427 -0.4499
 5709TIP3    H138762   1.184   4.390   6.566 -0.1898  0.1146 -0.3719
 5709TIP3    H238763   1.107   4.294   6.478  0.8769 -1.7043  0.6260
 5710TIP3   OH238764   2.792   4.448   1.400 -0.7540  0.1535  0.4335
 5710TIP3    H138765   2.783   4.519   1.463 -0.7386 -0.1596  0.7935
 5710TIP3    H238766   2.769   4.487   1.316  2.9063  1.6332 -0.0603
 5711TIP3   OH238767   0.320   1.052   7.653 -0.0829 -0.7710  0.7379
 5711TIP3    H138768   0.407   1.076   7.683  0.1981 -1.0019  0.1390
 5711TIP3    H238769   0.274   1.135   7.640  0.0660 -0.6488  0.9960
 5712TIP3   OH238770   0.378   6.660   2.274  0.2081  0.9598  0.1654
 5712TIP3    H138771   0.383   6.720   2.348 -0.8197  0.1875  0.8971
 5712TIP3    H238772   0.356   6.575   2.313  2.1284 -0.0380 -0.7788
 5713TIP3   OH238773   6.272   6.218   0.120  0.3196  0.1218 -0.1710
 5713TIP3    H138774   6.310   6.228   0.207  1.0578  3.3808 -0.7386
 5713TIP3    H238775   6.346   6.196   0.064 -0.0935 -1.6040 -0.0902
 5714TIP3   OH238776   4.641   0.278   7.006  0.2121  0.4363  0.1472
 5714TIP3    H138777   4.624   0.347   7.071  1.7176  0.4628  0.5460
 5714TIP3    H238778   4.660   0.326   6.925  1.1001  0.4912  0.3849
 5715TIP3   OH238779   1.558   0.044   2.077 -0.0932 -0.2230 -0.0092
 5715TIP3    H138780   1.491   0.037   2.008 -1.0481  0.7687  0.7889
 5715TIP3    H238781   1.611   0.119   2.051 -0.8778  0.5830  0.6699
 5716TIP3   OH238782   0.104   4.553   0.814 -0.2477  0.0313  0.4134
 5716TIP3    H138783   0.088   4.489   0.884  0.6813 -0.5572  0.1045
 5716TIP3    H238784   0.045   4.527   0.744 -0.3228 -0.1007  0.5244
 5717TIP3   OH238785   1.805   3.306   0.759  0.0450 -0.6395 -0.5937
 5717TIP3    H138786   1.877   3.294   0.820 -1.1533 -0.8250  0.8479
 5717TIP3    H238787   1.846   3.340   0.680  1.6395 -0.3177  0.3267
 5718TIP3   OH238788   4.074   3.365   6.646 -0.0241 -0.0405 -0.3385
 5718TIP3    H138789   4.026   3.396   6.569  1.1051  1.6080 -0.4461
 5718TIP3    H238790   4.155   3.417   6.646  0.8561 -1.3350  0.9239
 5719TIP3   OH238791   5.530   2.748   0.551  0.4723  0.4531 -1.0875
 5719TIP3    H138792   5.453   2.693   0.536 -1.4917  2.9424 -0.9545
 5719TIP3    H238793   5.504   2.805   0.624  2.1960  1.8295 -1.4893
 5720TIP3   OH238794   4.203   4.469   7.043 -0.5580 -0.0491 -0.6172
 5720TIP3    H138795   4.250   4.506   7.118  0.9392 -1.1026 -0.9870
 5720TIP3    H238796   4.228   4.524   6.969 -0.5944 -0.0956 -0.6645
 5721TIP3   OH238797   1.471   3.136   0.423  0.3084 -0.3513  0.2167
 5721TIP3    H138798   1.461   3.048   0.460 -1.1676  0.9751  3.3209
 5721TIP3    H238799   1.405   3.140   0.354  0.6592 -1.7609 -0.2422
 5722TIP3   OH238800   2.914   4.063   1.401  0.2224 -0.0206 -0.0018
 5722TIP3    H138801   2.908   4.034   1.492  1.5791 -0.6562 -0.0949
 5722TIP3    H238802   2.951   4.150   1.406 -0.1340  0.1307  0.0655
 5723TIP3   OH238803   2.158   6.523   1.400 -0.3640  0.1788 -0.2305
 5723TIP3    H138804   2.208   6.559   1.474  0.4724  0.0577 -0.7284
 5723TIP3    H238805   2.069   6.511   1.435 -0.2021  0.9708  0.4859
 5724TIP3   OH238806   5.280   6.516   7.962  0.1615  0.2997 -0.2808
 5724TIP3    H138807   5.215   6.536   8.029 -1.4762  1.8287 -2.2039
 5724TIP3    H238808   5.362   6.547   7.999 -0.2497 -0.8936  1.8664
 5725TIP3   OH238809   1.369   0.538   7.231 -0.0875 -0.3952  0.2820
 5725TIP3    H138810   1.458   0.536   7.267 -0.1077 -1.2821  0.2949
 5725TIP3    H238811   1.325   0.464   7.271 -1.1164  0.5379  0.9418
 5726TIP3   OH238812   1.842   2.475   6.995  0.6347 -0.2073 -0.0462
 5726TIP3    H138813   1.791   2.418   6.937  0.2286  0.0977  0.0085
 5726TIP3    H238814   1.847   2.427   7.078 -0.2308  0.0953  0.1954
 5727TIP3   OH238815   3.173   1.341   6.779 -0.3239 -0.0328  0.4157
 5727TIP3    H138816   3.120   1.387   6.715 -0.0632 -2.6910 -1.8757
 5727TIP3    H238817   3.258   1.387   6.778 -0.4941  0.2832 -0.7650
 5728TIP3   OH238818   2.213   6.469   0.281  0.6674  0.2348 -0.2505
 5728TIP3    H138819   2.298   6.441   0.314  0.3425  1.5832  1.8788
 5728TIP3    H238820   2.215   6.564   0.286 -0.5633  0.3352 -1.2509
 5729TIP3   OH238821   3.543   2.605   2.317  0.0555  0.7810 -0.1132
 5729TIP3    H138822   3.454   2.639   2.324 -0.1005  0.2723  0.4690
 5729TIP3    H238823   3.536   2.529   2.259  0.1791  0.9799 -0.3879
 5730TIP3   OH238824   3.334   0.754   6.501 -0.0389  0.0121 -0.0492
 5730TIP3    H138825   3.243   0.734   6.521  0.1467 -0.0236  0.8039
 5730TIP3    H238826   3.383   0.680   6.536  0.3561  0.2356 -0.1252
 5731TIP3   OH238827   5.878   2.615   6.290  0.1461  0.2159  0.0410
 5731TIP3    H138828   5.879   2.664   6.208 -0.1832  1.0076  0.4986
 5731TIP3    H238829   5.873   2.523   6.263 -2.5869  0.5447 -0.8468
 5732TIP3   OH238830   2.012   2.145   2.195  0.0855 -0.6693  0.2481
 5732TIP3    H138831   2.104   2.146   2.222  0.1485 -1.1967  0.0551
 5732TIP3    H238832   1.998   2.058   2.159 -0.2566 -0.3004 -0.5388
 5733TIP3   OH238833   0.005   2.363   7.194  0.3551 -0.1030 -0.2470
 5733TIP3    H138834   0.088   2.383   7.151  1.0686  0.4880  1.3387
 5733TIP3    H238835  -0.008   2.269   7.177  1.2524 -0.1699 -0.6554
 5734TIP3   OH238836   3.190   5.129   7.094 -0.2761 -0.4715  0.8037
 5734TIP3    H138837   3.180   5.065   7.024 -0.0760 -0.4269  0.7322
 5734TIP3    H238838   3.235   5.081   7.164  1.0439 -0.0816  0.2633
 5735TIP3   OH238839   1.823   0.577   0.118 -0.4210 -0.4364  0.6426
 5735TIP3    H138840   1.805   0.635   0.192 -1.8494 -1.1113  0.8507
 5735TIP3    H238841   1.767   0.609   0.047 -0.0223 -0.5813  0.2543
 5736TIP3   OH238842   0.588   4.091   0.382  0.1167  0.0755  0.5490
 5736TIP3    H138843   0.646   4.167   0.390  0.2867  0.0317 -0.2561
 5736TIP3    H238844   0.536   4.092   0.463 -1.1910  2.1295 -0.2589
 5737TIP3   OH238845   5.798   6.827   6.713  0.2097  0.1698  0.1815
 5737TIP3    H138846   5.725   6.804   6.771 -0.0077 -0.2202 -0.2406
 5737TIP3    H238847   5.776   6.786   6.630 -0.2651  1.9942 -0.6554
 5738TIP3   OH238848   1.039   1.636   2.016 -0.0392 -0.0982 -0.9187
 5738TIP3    H138849   0.991   1.710   2.053  1.2624 -0.3377  1.4586
 5738TIP3    H238850   1.129   1.667   2.008 -0.0678 -0.4052 -3.0837
 5739TIP3   OH238851   1.527   0.001   7.371 -0.0897 -0.3095 -0.1140
 5739TIP3    H138852   1.570   0.081   7.340  0.0655 -0.8502 -1.3717
 5739TIP3    H238853   1.599  -0.061   7.385 -0.4051 -1.4781 -2.9970
 5740TIP3   OH238854   6.628   5.063   1.716  0.2873  0.4616 -0.0606
 5740TIP3    H138855   6.613   5.132   1.781 -1.6954 -0.0947  0.1213
 5740TIP3    H238856   6.660   4.989   1.767 -0.5233  0.2789  0.2002
 5741TIP3   OH238857   3.770   4.726   7.498 -0.0790 -0.1053 -0.1171
 5741TIP3    H138858   3.812   4.811   7.489 -0.1984 -0.0865 -0.4959
 5741TIP3    H238859   3.782   4.683   7.413  0.3973 -0.6573  0.2173
 5742TIP3   OH238860   1.709   3.406   0.345 -0.5636  0.2664  0.4285
 5742TIP3    H138861   1.634   3.383   0.291 -0.5084  1.2088 -0.0608
 5742TIP3    H238862   1.743   3.322   0.376 -1.8780 -0.1590  0.7520
 5743TIP3   OH238863   6.648   1.424   6.184 -0.2420 -0.2221 -0.3683
 5743TIP3    H138864   6.585   1.493   6.164  0.8486  0.9709  0.1804
 5743TIP3    H238865   6.728   1.471   6.206  1.1433 -1.7060 -2.0051
 5744TIP3   OH238866   3.978   4.154   0.336 -0.1414  0.1852  0.3566
 5744TIP3    H138867   3.977   4.085   0.402 -2.3678  0.6757  0.9320
 5744TIP3    H238868   4.002   4.233   0.385  2.4427 -0.1051 -0.3058
 5745TIP3   OH238869   6.897   3.799   0.989  0.1444  0.0548 -0.0454
 5745TIP3    H138870   6.954   3.738   1.037 -1.4149 -1.0519  0.5155
 5745TIP3    H238871   6.839   3.741   0.939 -1.9286  1.0197  1.1344
 5746TIP3   OH238872   5.997   4.910   1.951  0.4114 -0.1192 -0.3231
 5746TIP3    H138873   6.000   4.886   2.044  0.1880 -0.1381 -0.3215
 5746TIP3    H238874   6.039   4.997   1.948  1.3464 -0.5564 -0.3526
 5747TIP3   OH238875   6.168   5.240   1.400  0.1823  0.0898 -0.1670
 5747TIP3    H138876   6.261   5.223   1.414  0.2451  1.2084  0.9102
 5747TIP3    H238877   6.131   5.154   1.380  1.0859 -0.7203  1.4720
 5748TIP3   OH238878   1.752   5.236   7.326 -0.3048  0.1766 -0.5734
 5748TIP3    H138879   1.812   5.264   7.395 -0.9845  0.8443 -0.2371
 5748TIP3    H238880   1.809   5.214   7.252  0.3305  1.8459 -0.6301
 5749TIP3   OH238881   5.549   2.145   6.268 -0.2246 -0.2933 -0.8250
 5749TIP3    H138882   5.503   2.069   6.303 -0.6159  0.1354 -0.3901
 5749TIP3    H238883   5.480   2.199   6.230 -0.1277  0.4502  0.0087
 5750TIP3   OH238884   5.778   5.948   0.530  0.1591 -0.0633  0.1832
 5750TIP3    H138885   5.755   6.021   0.587 -1.2471 -0.2238 -0.1204
 5750TIP3    H238886   5.820   5.988   0.454 -1.4971  0.5819 -0.4492
 5751TIP3   OH238887   1.262   5.773   0.691  0.1327 -0.0615 -0.0738
 5751TIP3    H138888   1.333   5.781   0.628 -0.6103  0.5427 -0.8657
 5751TIP3    H238889   1.305   5.762   0.775  1.1625 -1.8271 -0.7731
 5752TIP3   OH238890   1.093   6.150   0.150  0.3045 -0.8127  0.3785
 5752TIP3    H138891   1.046   6.214   0.096  1.5632 -0.3475 -0.2135
 5752TIP3    H238892   1.080   6.179   0.240 -1.0426 -1.0559  0.2791
 5753TIP3   OH238893   2.954   5.099   6.462 -0.3454  0.0058 -0.0352
 5753TIP3    H138894   2.886   5.136   6.406  1.2343 -1.0400 -2.8361
 5753TIP3    H238895   2.985   5.174   6.514 -3.3913  0.5494  1.2507
 5754TIP3   OH238896   4.935   4.143   6.809  0.4506  0.3498 -0.0162
 5754TIP3    H138897   4.879   4.084   6.759  0.9717 -0.2003  0.0368
 5754TIP3    H238898   4.876   4.190   6.868  0.1239 -0.6707  0.4795
 5755TIP3   OH238899   3.236   4.738   8.204  0.1109 -0.0376  0.0785
 5755TIP3    H138900   3.203   4.789   8.130 -1.2953 -0.3543  0.4558
 5755TIP3    H238901   3.228   4.647   8.176 -1.3343 -0.2054  0.9470
 5756TIP3   OH238902   3.172   4.903   1.488 -0.0867  0.4990  0.4062
 5756TIP3    H138903   3.169   4.888   1.393 -1.6597 -0.1709  0.5251
 5756TIP3    H238904   3.184   4.997   1.497  1.5841  0.3934 -0.4432
 5757TIP3   OH238905   6.031   3.032   7.870 -0.0509 -0.4847  0.0488
 5757TIP3    H138906   6.108   3.068   7.825  0.8053 -1.0227  1.0305
 5757TIP3    H238907   6.055   3.034   7.962 -1.2316 -0.6710  0.3703
 5758TIP3   OH238908   5.472   2.430   5.457 -0.2331  0.2709  0.0542
 5758TIP3    H138909   5.546   2.472   5.502 -0.7758  2.7334 -1.1787
 5758TIP3    H238910   5.394   2.468   5.499 -0.7552  0.3419 -0.9488
 5759TIP3   OH238911   1.228   0.936   0.609 -0.1163  0.2479 -0.8599
 5759TIP3    H138912   1.180   0.855   0.589  0.0820 -0.0972  0.0067
 5759TIP3    H238913   1.308   0.906   0.653 -0.9228  0.9601  1.2289
 5760TIP3   OH238914   3.308   1.268   2.422 -0.0388 -0.1807  0.1669
 5760TIP3    H138915   3.213   1.254   2.414 -0.3279  1.4118  0.5071
 5760TIP3    H238916   3.321   1.292   2.514  0.1559  2.9616 -0.5686
 5761TIP3   OH238917   3.921   2.150   1.222  0.2832  0.2649 -0.2892
 5761TIP3    H138918   3.832   2.168   1.254 -0.4663 -2.9992 -0.1408
 5761TIP3    H238919   3.963   2.101   1.293  1.2245 -0.6042 -1.3994
 5762TIP3   OH238920   5.058   2.118   6.728 -0.5817 -0.1805 -0.8042
 5762TIP3    H138921   5.077   2.204   6.691 -1.7324  0.2243 -0.5021
 5762TIP3    H238922   5.082   2.057   6.659 -0.1902  0.4093 -1.2051
 5763TIP3   OH238923   6.597   0.785   7.385 -0.1225  0.2080 -0.3215
 5763TIP3    H138924   6.666   0.788   7.318  2.2585 -0.0258  1.9327
 5763TIP3    H238925   6.563   0.875   7.388  0.1158  0.3475 -1.4672
 5764TIP3   OH238926   0.393   2.992   6.148  0.2669 -0.2945 -0.2496
 5764TIP3    H138927   0.399   3.085   6.172 -0.1432 -0.0722 -0.9829
 5764TIP3    H238928   0.313   2.962   6.190  0.0788 -0.1576 -0.5047
 5765TIP3   OH238929   4.232   5.197   5.929 -0.5843 -0.0930 -0.3377
 5765TIP3    H138930   4.258   5.276   5.977 -1.4854  0.3051 -0.4711
 5765TIP3    H238931   4.153   5.167   5.974 -0.2736 -0.8996 -0.3188
 5766TIP3   OH238932   6.075   0.707   0.789  0.0251  0.0851 -0.2254
 5766TIP3    H138933   6.095   0.630   0.736  1.3572  0.3375 -0.1296
 5766TIP3    H238934   6.023   0.674   0.862  0.8074 -0.7632 -0.0451
 5767TIP3   OH238935   4.090   3.715   0.674 -0.4550  0.5089 -0.2279
 5767TIP3    H138936   4.179   3.716   0.638 -1.1642  2.7394 -2.1694
 5767TIP3    H238937   4.038   3.669   0.609 -1.1755  1.5880 -0.4364
 5768TIP3   OH238938   3.135   4.011   1.092  0.5835 -0.2571 -0.0533
 5768TIP3    H138939   3.079   3.934   1.078 -1.3185  0.8073  1.2769
 5768TIP3    H238940   3.149   4.046   1.004 -0.4142 -0.8595 -0.4746
 5769TIP3   OH238941   3.739   6.040   0.304  1.0266  0.2871 -0.6919
 5769TIP3    H138942   3.800   6.103   0.342  0.0851  1.0039 -0.3029
 5769TIP3    H238943   3.665   6.094   0.276 -0.6973 -0.7884  1.4285
 5770TIP3   OH238944   0.818   6.917   0.852 -0.6629 -0.3058  0.3466
 5770TIP3    H138945   0.899   6.870   0.833  0.4778  1.6172  0.2113
 5770TIP3    H238946   0.835   6.960   0.936 -0.9029  1.4073 -0.4458
 5771TIP3   OH238947   6.437   3.733   6.118  0.0614 -0.4385  0.4990
 5771TIP3    H138948   6.382   3.783   6.058  1.9633  1.5041  0.2270
 5771TIP3    H238949   6.511   3.704   6.065  2.8397  3.0222  2.0246
 5772TIP3   OH238950   6.463   7.070   0.006 -0.5487 -0.5130  0.0749
 5772TIP3    H138951   6.393   7.071  -0.060 -0.9453 -1.1832  0.4694
 5772TIP3    H238952   6.543   7.085  -0.044 -1.0517  1.4387 -0.2467
 5773TIP3   OH238953   1.891   2.964   0.331  0.9836  0.1353 -0.1513
 5773TIP3    H138954   1.810   3.006   0.360  1.0209 -0.6714  1.1769
 5773TIP3    H238955   1.950   3.037   0.313  0.3102  0.7039 -0.1123
 5774TIP3   OH238956   2.286   3.938   0.249  0.0562  0.2202 -0.5581
 5774TIP3    H138957   2.365   3.892   0.220  0.4933  1.4779 -1.4327
 5774TIP3    H238958   2.319   4.018   0.290 -0.7730  1.0420 -1.4625
 5775TIP3   OH238959   2.071   2.153   6.955  0.1938  0.1009  0.8807
 5775TIP3    H138960   2.095   2.068   6.918  0.0152  0.3083  0.2788
 5775TIP3    H238961   2.002   2.185   6.898 -0.3653  0.2549  1.6308
 5776TIP3   OH238962   1.932   0.834   7.732 -0.1443 -0.4841  0.2933
 5776TIP3    H138963   1.847   0.805   7.764 -0.5733  0.0178 -0.3668
 5776TIP3    H238964   1.912   0.895   7.661  0.7693 -1.7483 -1.1067
 5777TIP3   OH238965   2.465   3.956   6.519 -0.6158 -0.0027  0.4935
 5777TIP3    H138966   2.557   3.966   6.497 -0.1508  0.5425  2.4944
 5777TIP3    H238967   2.460   3.972   6.613 -2.9165  1.1098  0.2689
 5778TIP3   OH238968   3.495   6.870   1.669 -0.0762  0.6420  0.2139
 5778TIP3    H138969   3.564   6.870   1.735  0.2231 -0.6082 -0.0795
 5778TIP3    H238970   3.423   6.917   1.710  0.4751  0.7888  1.0339
 5779TIP3   OH238971   0.238   3.367   0.891  0.1354 -0.2749  0.2193
 5779TIP3    H138972   0.149   3.402   0.897  0.4263  0.2645  1.9512
 5779TIP3    H238973   0.228   3.273   0.905 -0.2155 -0.2951 -0.1504
 5780TIP3   OH238974   7.041   2.232   0.679  0.1613  0.1987  0.6819
 5780TIP3    H138975   6.947   2.248   0.690 -0.1525 -0.4151 -0.8776
 5780TIP3    H238976   7.081   2.319   0.689 -0.9687  1.1938 -2.2649
 5781TIP3   OH238977   4.237   3.384   5.839  0.0482  0.2225 -0.0486
 5781TIP3    H138978   4.180   3.418   5.908 -2.0873 -2.7848 -0.1015
 5781TIP3    H238979   4.294   3.322   5.884  1.1607  0.9062 -0.4896
 5782TIP3   OH238980   6.108   1.249   0.499  0.3164 -0.2386 -0.2695
 5782TIP3    H138981   6.083   1.301   0.423 -0.7064  0.4776  0.5415
 5782TIP3    H238982   6.189   1.205   0.472  0.2514  0.4043 -1.5777
 5783TIP3   OH238983   2.303   7.000   7.567  0.5001  0.0856  0.3599
 5783TIP3    H138984   2.241   6.995   7.640  2.3078  0.0359  1.9488
 5783TIP3    H238985   2.278   7.079   7.520 -2.4042 -1.2841 -0.6570
 5784TIP3   OH238986   1.635   4.256   6.297 -0.2763  0.2944 -0.1457
 5784TIP3    H138987   1.545   4.222   6.291  0.1709 -0.9637 -0.1377
 5784TIP3    H238988   1.690   4.179   6.278  0.7824  1.6340 -3.1693
 5785TIP3   OH238989   5.049   2.840   7.609 -0.4768 -0.5956 -0.2550
 5785TIP3    H138990   5.009   2.757   7.582  1.1514 -0.6589 -2.8794
 5785TIP3    H238991   5.078   2.880   7.527 -1.3880  2.7403  0.8712
 5786TIP3   OH238992   0.054   1.134   6.763  0.2784 -1.3458  0.2970
 5786TIP3    H138993   0.079   1.055   6.715 -0.2629 -1.2065 -0.2171
 5786TIP3    H238994  -0.014   1.175   6.710  1.3092  0.0670 -0.0222
 5787TIP3   OH238995   3.794   3.679   6.387 -0.1413 -0.3862 -0.2719
 5787TIP3    H138996   3.809   3.772   6.370 -0.9325 -0.4424 -1.4211
 5787TIP3    H238997   3.820   3.667   6.478 -0.3065  1.0240 -0.0080
 5788TIP3   OH238998   4.574   5.081   1.608  0.3164  0.0728  1.2497
 5788TIP3    H138999   4.499   5.021   1.615 -0.6841  0.8463 -1.3360
 5788TIP3    H239000   4.538   5.159   1.565  2.2530  1.2059  1.5850
 5789TIP3   OH239001   6.130   5.445   0.803  0.0908  0.4041 -0.5804
 5789TIP3    H139002   6.068   5.454   0.731  2.3455  0.2051 -2.6641
 5789TIP3    H239003   6.165   5.533   0.816 -1.2495  0.7143  1.2510
 5790TIP3   OH239004   6.671   5.765   8.022  0.0640  0.4137  0.2742
 5790TIP3    H139005   6.667   5.694   7.959  2.5318 -0.3903  0.8963
 5790TIP3    H239006   6.726   5.731   8.093 -0.2635  2.2706  1.4912
 5791TIP3   OH239007   2.977   6.863   7.929  0.6182  0.4098 -0.5255
 5791TIP3    H139008   3.037   6.903   7.866  1.4596  0.0788  0.0400
 5791TIP3    H239009   3.025   6.865   8.012 -0.6259  1.2044  0.2023
 5792TIP3   OH239010   0.474   3.200   7.940  0.1841  0.0065  0.2951
 5792TIP3    H139011   0.521   3.148   7.875  1.9204 -0.1693  1.6309
 5792TIP3    H239012   0.526   3.280   7.950 -1.1837  0.9702 -0.0024
 5793TIP3   OH239013   4.708   0.440   1.610 -0.1280  0.7671 -0.5883
 5793TIP3    H139014   4.766   0.459   1.684  0.7932 -0.9032 -0.8482
 5793TIP3    H239015   4.767   0.431   1.535 -0.7211 -0.8003 -0.8940
 5794TIP3   OH239016   3.839   2.801   6.450  0.6133  0.4030 -0.2817
 5794TIP3    H139017   3.812   2.883   6.409 -2.8160  0.5791  1.8576
 5794TIP3    H239018   3.823   2.734   6.384  1.4160  1.2408 -1.3462
 5795TIP3   OH239019   4.685   1.165   6.533 -0.1374 -0.4094 -0.1859
 5795TIP3    H139020   4.619   1.141   6.598 -0.7568  1.3530 -0.1156
 5795TIP3    H239021   4.688   1.090   6.474 -0.5631 -1.4668  1.0652
 5796TIP3   OH239022   3.199   1.804   1.043 -0.4242 -0.4080  0.2835
 5796TIP3    H139023   3.211   1.898   1.054 -2.2633 -0.0637 -0.3644
 5796TIP3    H239024   3.213   1.767   1.130 -2.2871  0.7928  1.1483
 5797TIP3   OH239025   5.754   2.128   2.006  0.2643  0.1789  0.1409
 5797TIP3    H139026   5.697   2.143   2.081 -1.0880  0.0567 -0.8165
 5797TIP3    H239027   5.798   2.045   2.025 -1.3533 -0.7361  0.0593
 5798TIP3   OH239028   2.247   6.597   0.593 -0.1678 -0.2866 -0.5201
 5798TIP3    H139029   2.253   6.667   0.657  0.5202 -0.4559 -0.3986
 5798TIP3    H239030   2.200   6.636   0.519 -1.8806 -0.3811  0.4625
 5799TIP3   OH239031   1.295   5.948   7.374 -0.0791  0.1100  0.1681
 5799TIP3    H139032   1.338   5.950   7.460 -0.3551  1.6516  0.2921
 5799TIP3    H239033   1.209   5.910   7.391 -0.9905  2.3887  1.0295
 5800TIP3   OH239034   3.357   4.249   6.893  0.7184  0.3797  0.3756
 5800TIP3    H139035   3.340   4.326   6.947 -0.2185  0.1468  0.4324
 5800TIP3    H239036   3.443   4.265   6.853 -0.1586  2.2075 -0.8863
 5801TIP3   OH239037   1.850   4.763   6.604  0.5103 -0.1337 -0.2121
 5801TIP3    H139038   1.859   4.669   6.621  2.3700 -0.1644 -1.1136
 5801TIP3    H239039   1.855   4.804   6.691 -0.0535 -0.8514  0.1631
 5802TIP3   OH239040   3.052   5.542   0.626 -0.2380  0.1010  0.5933
 5802TIP3    H139041   2.964   5.534   0.662 -1.1231 -1.3929 -1.6708
 5802TIP3    H239042   3.094   5.459   0.645 -0.5916 -0.5675 -1.2896
 5803TIP3   OH239043   5.087   4.596   0.836  0.6836  0.5370 -0.0333
 5803TIP3    H139044   5.015   4.623   0.893 -0.1617  1.2242 -1.3468
 5803TIP3    H239045   5.126   4.679   0.807  2.1210  0.1671  0.7678
 5804TIP3   OH239046   0.244   6.551   1.473 -0.1564  0.3620 -0.4420
 5804TIP3    H139047   0.203   6.469   1.447 -0.9963  0.5450  0.2653
 5804TIP3    H239048   0.277   6.589   1.392 -1.2497  0.1248 -1.0165
 5805TIP3   OH239049   4.879   2.948   1.357  0.5965 -0.2834 -0.8512
 5805TIP3    H139050   4.958   2.895   1.345  1.9607  1.4006  0.2533
 5805TIP3    H239051   4.885   2.979   1.447 -2.1656 -1.3361 -0.1947
 5806TIP3   OH239052   5.238   3.935   1.012  0.1520 -0.4730 -0.1392
 5806TIP3    H139053   5.283   3.857   1.046 -1.2339 -1.8073 -1.1787
 5806TIP3    H239054   5.260   4.005   1.074  1.7040 -1.6132  0.6632
 5807TIP3   OH239055   4.611   2.519   1.695 -0.2328  0.2763  0.1822
 5807TIP3    H139056   4.649   2.487   1.777 -0.4660  0.3703  0.3307
 5807TIP3    H239057   4.683   2.562   1.650 -0.3535  1.1955  0.8463
 5808TIP3   OH239058   0.528   3.778   8.202 -0.2596 -0.1178 -0.1375
 5808TIP3    H139059   0.587   3.810   8.270  1.4028 -3.1177 -0.0167
 5808TIP3    H239060   0.442   3.773   8.245  0.1948  0.5761  0.8863
 5809TIP3   OH239061   1.155   0.814   7.672  0.2782  0.3028 -0.2063
 5809TIP3    H139062   1.110   0.881   7.724  1.4993  0.8424  0.1945
 5809TIP3    H239063   1.140   0.840   7.581  0.8261  1.1910 -0.0522
 5810TIP3   OH239064   0.367   6.650   7.682  0.6275 -0.0934  0.0097
 5810TIP3    H139065   0.322   6.668   7.765 -0.9746  0.8541 -1.0139
 5810TIP3    H239066   0.436   6.716   7.678 -0.0488  0.6429  0.0697
 5811TIP3   OH239067   3.953   6.672   7.229 -0.4813  0.3474  0.2343
 5811TIP3    H139068   3.865   6.635   7.226 -0.0427 -0.6935 -1.2990
 5811TIP3    H239069   4.011   6.598   7.209  0.5954  1.4020 -0.7605
 5812TIP3   OH239070   1.184   0.197   8.116  0.0309 -0.3352 -0.5704
 5812TIP3    H139071   1.128   0.122   8.097 -0.0472  0.2332 -2.9078
 5812TIP3    H239072   1.215   0.226   8.030 -0.1620  2.4856  0.2186
 5813TIP3   OH239073   5.889   6.101   0.867  0.0008 -0.1349 -0.0394
 5813TIP3    H139074   5.806   6.103   0.820  0.0751  0.7497 -0.1452
 5813TIP3    H239075   5.875   6.158   0.943  0.3834 -0.2983  0.1589
 5814TIP3   OH239076   2.935   3.304   7.280  0.0192 -0.1193  0.3567
 5814TIP3    H139077   2.972   3.357   7.209 -1.1168 -0.6928 -0.6916
 5814TIP3    H239078   2.968   3.216   7.264 -1.1458 -0.4820 -0.1459
 5815TIP3   OH239079   6.008   2.992   1.893  0.3186  0.5398 -0.9635
 5815TIP3    H139080   6.003   2.898   1.878 -0.3883  0.4877 -0.4361
 5815TIP3    H239081   6.082   3.021   1.839 -0.9378  0.0841 -3.0540
 5816TIP3   OH239082   5.771   0.798   2.060  0.3040 -0.6803 -0.0168
 5816TIP3    H139083   5.851   0.761   2.024  0.1663  0.0611 -1.1430
 5816TIP3    H239084   5.777   0.892   2.042 -0.4940 -0.5144  0.5029
 5817TIP3   OH239085   0.908   2.270   0.758 -0.1977  0.0974 -0.0552
 5817TIP3    H139086   0.841   2.295   0.821  1.1714 -0.1356  1.5615
 5817TIP3    H239087   0.917   2.175   0.768  0.4047  0.1333 -0.2005
 5818TIP3   OH239088   1.405   2.691   1.423  0.1303  0.0375 -0.1208
 5818TIP3    H139089   1.429   2.599   1.410  0.7862  0.3211 -0.9797
 5818TIP3    H239090   1.442   2.713   1.508 -0.4289 -0.6225  0.3003
 5819TIP3   OH239091   4.077   6.792   6.652 -0.2833 -0.1495 -0.2152
 5819TIP3    H139092   4.010   6.741   6.608 -1.4595  0.2425  1.0491
 5819TIP3    H239093   4.137   6.818   6.583  0.1665 -2.8979 -0.9676
 5820TIP3   OH239094   1.237   2.883   0.357 -0.2051 -0.3779  0.0548
 5820TIP3    H139095   1.141   2.879   0.355 -0.2606  0.7654 -0.2357
 5820TIP3    H239096   1.258   2.905   0.448 -0.1881 -1.0779  0.2256
 5821TIP3   OH239097   4.276   5.744   1.567 -0.1953  0.3102 -0.5796
 5821TIP3    H139098   4.265   5.822   1.621  1.5668 -0.6485  1.3233
 5821TIP3    H239099   4.320   5.775   1.488 -0.1099  1.3482 -0.1404
 5822TIP3   OH239100   4.959   1.182   1.095 -0.1665  0.2986  0.4105
 5822TIP3    H139101   4.893   1.115   1.076  0.8963 -0.7889  0.4435
 5822TIP3    H239102   5.040   1.147   1.058  0.3004  1.8686 -0.1436
 5823TIP3   OH239103   0.447   6.846   8.112 -0.0251  0.0726  0.1885
 5823TIP3    H139104   0.355   6.866   8.097 -0.7485 -2.2200  1.1200
 5823TIP3    H239105   0.446   6.772   8.173  2.4414  0.1385  0.4207
 5824TIP3   OH239106   1.075   1.480   1.062  0.2898 -0.0642 -0.5352
 5824TIP3    H139107   0.990   1.510   1.031  0.8132  1.1394 -0.8821
 5824TIP3    H239108   1.107   1.421   0.993 -0.4200 -0.8510 -0.2100
 5825TIP3   OH239109   0.716   3.689   0.169  0.4882 -0.7722 -0.1076
 5825TIP3    H139110   0.723   3.636   0.248  0.0116  0.1950  0.6091
 5825TIP3    H239111   0.622   3.703   0.157  0.6064  2.0533  1.2636
 5826TIP3   OH239112   6.530   6.486   0.044  0.1740  0.2175 -0.2360
 5826TIP3    H139113   6.498   6.469  -0.045 -2.7118 -2.4982  1.1432
 5826TIP3    H239114   6.493   6.572   0.066 -0.2746  0.2760 -1.1504
 5827TIP3   OH239115   1.753   4.125   0.889 -0.6136  0.3296  0.6158
 5827TIP3    H139116   1.766   4.080   0.973  1.0939 -0.2448  0.0879
 5827TIP3    H239117   1.773   4.059   0.823  0.5081  1.4287 -0.2019
 5828TIP3   OH239118   4.597   0.984   7.136  0.4867  0.0903 -0.1246
 5828TIP3    H139119   4.663   1.047   7.166  1.2058 -1.2814  1.2676
 5828TIP3    H239120   4.610   0.980   7.041  0.7270  1.6833 -0.1906
 5829TIP3   OH239121   4.665   0.153   1.900 -0.2560 -0.6742 -0.2909
 5829TIP3    H139122   4.647   0.237   1.943  0.4964 -1.2142  1.1607
 5829TIP3    H239123   4.579   0.117   1.879 -0.6422 -0.2352  0.5091
 5830TIP3   OH239124   7.010   3.523   7.669  0.4182 -0.4571 -0.0188
 5830TIP3    H139125   6.966   3.580   7.732  1.3828 -0.4044  0.6363
 5830TIP3    H239126   6.939   3.481   7.620 -0.3473 -0.2042  0.8474
 5831TIP3   OH239127   2.631   3.099   0.578 -0.0455  0.1984 -0.3828
 5831TIP3    H139128   2.677   3.151   0.512  1.7365 -0.2834  0.4201
 5831TIP3    H239129   2.698   3.075   0.641 -1.3289 -0.9555  0.6155
 5832TIP3   OH239130   1.135   1.095   0.390  0.1666 -0.3148 -0.2377
 5832TIP3    H139131   1.045   1.099   0.422 -0.0006 -0.1712 -0.7132
 5832TIP3    H239132   1.184   1.054   0.461  0.1787  1.6702  0.9941
 5833TIP3   OH239133   6.498   1.796   1.328 -0.8131  0.6920 -0.1743
 5833TIP3    H139134   6.431   1.809   1.395  0.7026  1.0640  1.3198
 5833TIP3    H239135   6.548   1.877   1.327  1.3700 -0.5397  0.8078
 5834TIP3   OH239136   4.758   2.903   6.861  0.0248 -0.3863 -0.7762
 5834TIP3    H139137   4.752   2.848   6.782 -1.8439 -0.0718 -0.9131
 5834TIP3    H239138   4.670   2.898   6.899 -0.2871  2.6356 -0.8982
 5835TIP3   OH239139   3.280   5.067   0.602  0.5232  0.5123  0.0043
 5835TIP3    H139140   3.296   5.024   0.518 -1.1354  2.3658 -1.3611
 5835TIP3    H239141   3.271   4.995   0.665  0.7376 -0.9771 -1.6004
 5836TIP3   OH239142   7.042   2.783   0.068  0.2382  0.0146 -0.0982
 5836TIP3    H139143   7.114   2.722   0.055 -0.1422 -0.5657  0.4381
 5836TIP3    H239144   7.018   2.811  -0.020 -0.8453 -2.1194 -0.5483
 5837TIP3   OH239145   0.245   4.676   1.197 -0.5080  0.3801 -0.0860
 5837TIP3    H139146   0.242   4.616   1.272 -3.2328  0.1582 -0.2648
 5837TIP3    H239147   0.224   4.762   1.235 -2.7511  0.1300 -0.6206
 5838TIP3   OH239148   5.748   4.909   7.207 -0.4806 -0.3103  0.2553
 5838TIP3    H139149   5.718   4.999   7.212  0.2940 -0.0442  0.2230
 5838TIP3    H239150   5.708   4.866   7.283 -3.9466 -0.9369 -1.6842
 5839TIP3   OH239151   1.034   0.843   7.398  0.0098 -0.4172 -0.2759
 5839TIP3    H139152   0.983   0.907   7.348  0.0549 -0.5607 -0.5037
 5839TIP3    H239153   1.117   0.837   7.352  0.2005 -0.2551  0.0438
 5840TIP3   OH239154   5.644   4.761   1.804 -0.4837 -0.5822 -0.0708
 5840TIP3    H139155   5.636   4.821   1.879 -1.7795  0.5971 -1.0967
 5840TIP3    H239156   5.640   4.674   1.843  0.3832 -0.0160  1.3697
 5841TIP3   OH239157   0.340   4.747   0.068  0.0268 -0.5476  0.1246
 5841TIP3    H139158   0.372   4.804  -0.001 -0.5528 -0.4794 -0.0924
 5841TIP3    H239159   0.326   4.804   0.143 -1.4722 -0.2238 -0.3830
 5842TIP3   OH239160   0.134   3.495   6.516  0.1851  0.2590 -0.0360
 5842TIP3    H139161   0.064   3.430   6.516 -0.7056  1.1988  0.1387
 5842TIP3    H239162   0.195   3.464   6.583 -0.7977  0.2102  0.8559
 5843TIP3   OH239163   2.541   3.942   1.796  0.0604 -1.1242  0.0656
 5843TIP3    H139164   2.580   3.855   1.802  0.4586 -1.0173 -0.7735
 5843TIP3    H239165   2.600   3.998   1.845  0.2325 -1.1971 -0.0546
 5844TIP3   OH239166   2.613   6.137   1.836  0.3251 -0.3223  0.4897
 5844TIP3    H139167   2.572   6.211   1.879  0.3748 -0.2457  0.4051
 5844TIP3    H239168   2.599   6.064   1.896  1.3181  0.0028  1.1532
 5845TIP3   OH239169   2.640   3.506   7.458  0.1211  0.1366 -0.3305
 5845TIP3    H139170   2.660   3.456   7.379  4.1992 -0.1058  0.6177
 5845TIP3    H239171   2.703   3.474   7.523 -0.3093  3.1338  1.7759
 5846TIP3   OH239172   4.800   0.946   1.157  0.5304 -0.1569 -0.0189
 5846TIP3    H139173   4.841   0.894   1.227  1.3634 -0.0362 -0.4027
 5846TIP3    H239174   4.713   0.965   1.190  0.8842 -0.1643  0.9678
 5847TIP3   OH239175   0.054   1.125   0.735  0.1323 -0.1966  0.3592
 5847TIP3    H139176   0.089   1.042   0.704  0.7360 -0.1115  0.7928
 5847TIP3    H239177   0.070   1.125   0.829 -0.7112  0.0084  0.5111
 5848TIP3   OH239178   1.152   1.867   6.549  0.3422  0.0804  0.5602
 5848TIP3    H139179   1.173   1.890   6.459 -0.7847  0.6477  0.4264
 5848TIP3    H239180   1.122   1.776   6.544 -0.6623  0.4188  0.1953
 5849TIP3   OH239181   3.449   5.374   1.808 -0.6534 -0.4787  0.3522
 5849TIP3    H139182   3.417   5.349   1.895 -0.9962  1.7229  0.9072
 5849TIP3    H239183   3.524   5.431   1.826 -0.1192 -0.7834 -0.8336
 5850TIP3   OH239184   2.378   6.700   1.126 -0.4394  0.0924 -0.5169
 5850TIP3    H139185   2.395   6.712   1.033 -0.2040  0.1513 -0.4669
 5850TIP3    H239186   2.290   6.662   1.130  0.1560 -1.3828 -0.8437
 5851TIP3   OH239187   3.416   6.740   1.107 -0.2234 -0.3405  0.3442
 5851TIP3    H139188   3.361   6.711   1.180 -0.9688  1.1097  0.3838
 5851TIP3    H239189   3.433   6.832   1.124  0.6891 -0.3033 -0.6445
 5852TIP3   OH239190   5.760   2.969   5.528 -0.2533 -0.1310 -0.1849
 5852TIP3    H139191   5.807   3.040   5.571 -0.7811 -0.1058  0.3646
 5852TIP3    H239192   5.671   2.976   5.560 -0.5097 -0.5222 -0.7874
 5853TIP3   OH239193   3.005   5.545   0.352 -0.0054  0.0933  0.5285
 5853TIP3    H139194   2.919   5.503   0.354 -0.5811  1.0623 -1.3352
 5853TIP3    H239195   3.027   5.559   0.444 -0.2504 -3.2028  1.2339
 5854TIP3   OH239196   5.586   3.647   0.677 -0.6260 -0.1454  0.2822
 5854TIP3    H139197   5.620   3.673   0.763  2.8906  1.5423 -1.4256
 5854TIP3    H239198   5.649   3.581   0.646 -1.1050  0.1701 -1.4721
 5855TIP3   OH239199   5.791   0.147   7.342  0.0531  0.4596  0.0227
 5855TIP3    H139200   5.881   0.133   7.369  0.5093  0.5244 -1.3540
 5855TIP3    H239201   5.784   0.241   7.327 -0.8547  0.7618  2.0792
 5856TIP3   OH239202   5.362   2.964   6.567 -0.2626  0.1998 -0.2208
 5856TIP3    H139203   5.373   3.010   6.484  0.3653  0.4060 -0.0350
 5856TIP3    H239204   5.452   2.943   6.594 -0.4292  0.4690  0.5822
 5857TIP3   OH239205   6.158   5.307   6.368  0.0926 -0.9162 -0.0924
 5857TIP3    H139206   6.104   5.355   6.307 -1.5410  0.2786  2.1359
 5857TIP3    H239207   6.243   5.297   6.324 -0.4076  1.4998 -1.7685
 5858TIP3   OH239208   6.212   1.712   5.950  0.1736 -0.1954  0.1540
 5858TIP3    H139209   6.297   1.750   5.928  1.2303 -2.4535  0.1093
 5858TIP3    H239210   6.196   1.741   6.040  0.9526  0.2534  0.1555
 5859TIP3   OH239211   3.640   6.181   0.635 -0.1390  0.8447  0.1481
 5859TIP3    H139212   3.585   6.259   0.634 -1.3889  0.0002  1.0429
 5859TIP3    H239213   3.678   6.178   0.547  0.2043  2.6168  0.1871
 5860TIP3   OH239214   5.172   4.027   7.266 -0.1719  0.0654 -0.2694
 5860TIP3    H139215   5.165   3.991   7.177 -4.8495  0.3676 -0.2887
 5860TIP3    H239216   5.168   3.950   7.323  1.5261 -0.0404 -0.2478
 5861TIP3   OH239217   0.596   1.745   6.078 -0.0063 -0.1517 -0.2022
 5861TIP3    H139218   0.578   1.797   5.999 -1.1562  1.3931  1.0270
 5861TIP3    H239219   0.521   1.686   6.084 -0.4933  0.5113  0.3362
 5862TIP3   OH239220   5.009   5.195   8.025 -0.1192  0.6148  0.4581
 5862TIP3    H139221   5.100   5.172   8.041  0.2698  1.8282  0.0807
 5862TIP3    H239222   4.960   5.145   8.090  0.5893 -1.7390 -0.7138
 5863TIP3   OH239223   2.017   5.747   0.199  0.7904  0.6867 -0.3497
 5863TIP3    H139224   1.994   5.789   0.283 -0.2481  0.0764 -0.3115
 5863TIP3    H239225   2.061   5.816   0.150 -1.7878  2.2060 -0.6922
 5864TIP3   OH239226   0.190   3.825   1.511 -0.5506  0.5107  0.1189
 5864TIP3    H139227   0.282   3.799   1.507 -0.4036  0.4030  2.5965
 5864TIP3    H239228   0.152   3.788   1.431  1.0560 -1.4927  0.1752
 5865TIP3   OH239229   1.496   4.460   7.123  0.3460  0.0683 -0.4731
 5865TIP3    H139230   1.534   4.506   7.197  1.7783 -0.1740 -1.0298
 5865TIP3    H239231   1.423   4.516   7.095  0.5951  0.8026  0.3071
 5866TIP3   OH239232   1.682   4.683   1.574 -0.0373 -0.0029  0.2212
 5866TIP3    H139233   1.713   4.616   1.634  0.0181 -0.2931 -0.1276
 5866TIP3    H239234   1.723   4.764   1.605 -0.5931 -0.0124  1.0128
 5867TIP3   OH239235   4.602   0.131   0.887 -0.6437  0.3749 -0.0150
 5867TIP3    H139236   4.533   0.160   0.827 -0.4131 -2.4789 -1.8792
 5867TIP3    H239237   4.683   0.160   0.846 -0.5742  0.5029  0.2108
 5868TIP3   OH239238   3.687   1.979   0.307  0.0455  0.2345 -0.4468
 5868TIP3    H139239   3.593   1.993   0.318  0.1834  0.0576  1.2642
 5868TIP3    H239240   3.697   1.884   0.304 -0.0013  0.2476 -2.8308
 5869TIP3   OH239241   5.343   1.328   6.391  0.7030 -0.1235  0.1376
 5869TIP3    H139242   5.329   1.252   6.448  2.2593 -0.9947 -0.5836
 5869TIP3    H239243   5.257   1.370   6.385 -0.3259 -2.1586  0.0780
 5870TIP3   OH239244   2.188   4.314   7.397 -0.1470  0.3509 -0.1261
 5870TIP3    H139245   2.213   4.384   7.337 -0.3137  0.6053  0.0985
 5870TIP3    H239246   2.150   4.359   7.472  1.3138  0.1037  0.7942
 5871TIP3   OH239247   4.133   6.188   6.148 -0.5956  0.3794 -0.1086
 5871TIP3    H139248   4.205   6.163   6.206 -0.4907 -0.2094 -0.4816
 5871TIP3    H239249   4.173   6.240   6.079 -1.0611  3.2937  1.6393
 5872TIP3   OH239250   5.712   2.362   6.213  0.0089  0.6111  0.2074
 5872TIP3    H139251   5.747   2.305   6.144  2.7750 -1.3827  2.9430
 5872TIP3    H239252   5.646   2.308   6.257 -1.5276  1.7544 -0.6320
 5873TIP3   OH239253   0.889   0.994   7.233  0.1733 -0.3116 -0.4090
 5873TIP3    H139254   0.915   1.085   7.247 -0.6187 -0.2024  0.4438
 5873TIP3    H239255   0.942   0.965   7.158 -0.8223  1.3800 -1.8637
 5874TIP3   OH239256   2.000   0.212   6.951  0.5758  0.1832  0.5011
 5874TIP3    H139257   1.915   0.203   6.908 -0.1791  0.2322  1.9051
 5874TIP3    H239258   2.055   0.144   6.911 -0.2688 -0.1720 -0.0768
 5875TIP3   OH239259   6.109   1.137   0.731 -0.2308 -0.2673 -0.5551
 5875TIP3    H139260   6.111   1.161   0.638  0.1136  3.2933  0.2414
 5875TIP3    H239261   6.064   1.210   0.774 -0.2225 -1.7118  2.1254
 5876TIP3   OH239262   4.775   2.680   2.348  0.3859  0.5273 -0.7057
 5876TIP3    H139263   4.684   2.706   2.365  0.2991  0.5384 -1.1754
 5876TIP3    H239264   4.827   2.753   2.379  0.2585  0.3375 -0.0294
 5877TIP3   OH239265   2.096   0.920   6.645  0.3325 -0.1994  0.1071
 5877TIP3    H139266   2.150   0.850   6.610 -0.0979  0.4454 -2.0124
 5877TIP3    H239267   2.129   0.999   6.603 -1.5773  0.3305 -0.5122
 5878TIP3   OH239268   3.984   6.465   0.835  0.5077  0.0611 -0.1356
 5878TIP3    H139269   3.951   6.495   0.919 -0.1584  2.0684 -1.0523
 5878TIP3    H239270   3.927   6.507   0.770  2.5224  0.6280 -1.6494
 5879TIP3   OH239271   4.723   4.578   0.700  0.1868  0.6006  0.4060
 5879TIP3    H139272   4.703   4.510   0.765  1.0983  0.6674  0.7684
 5879TIP3    H239273   4.680   4.657   0.734 -0.2152  0.3966  0.3822
 5880TIP3   OH239274   0.086   0.942   6.310 -0.0097  0.1613  0.3169
 5880TIP3    H139275   0.084   0.925   6.405  3.0448  1.3300  0.7139
 5880TIP3    H239276   0.079   1.037   6.303  0.2677  0.1233 -0.5940
 5881TIP3   OH239277   1.839   1.082   1.365 -0.0541  0.0523  0.1175
 5881TIP3    H139278   1.792   1.162   1.340  1.4609  1.0207  0.1953
 5881TIP3    H239279   1.845   1.031   1.285  0.8366  1.0496 -0.4824
 5882TIP3   OH239280   4.538   3.573   1.404 -0.4648  0.4555 -0.7682
 5882TIP3    H139281   4.503   3.618   1.482  1.9641  3.0022 -0.9577
 5882TIP3    H239282   4.566   3.487   1.436 -2.2274  0.2861  0.4368
 5883TIP3   OH239283   5.931   1.724   1.590  0.1372 -0.4988  0.2845
 5883TIP3    H139284   6.014   1.758   1.621 -0.7794  1.8058  0.3662
 5883TIP3    H239285   5.902   1.786   1.524 -0.3380 -2.6411 -1.6581
 5884TIP3   OH239286   0.108   0.570   6.387 -0.0945  0.0264 -0.7390
 5884TIP3    H139287   0.060   0.640   6.343 -0.1689  0.3408 -0.1576
 5884TIP3    H239288   0.064   0.489   6.359 -2.0201  0.3744  1.0290
 5885TIP3   OH239289   2.850   6.647   6.213 -0.6340 -0.1316 -0.1844
 5885TIP3    H139290   2.873   6.675   6.124 -2.4566  0.9572 -0.3724
 5885TIP3    H239291   2.758   6.621   6.207 -0.5192 -0.9522  1.1986
 5886TIP3   OH239292   3.344   1.175   1.531  0.2763 -0.0817  0.0482
 5886TIP3    H139293   3.379   1.086   1.540  0.2624 -0.2894 -1.5491
 5886TIP3    H239294   3.418   1.232   1.552  0.5613 -0.4811  0.1556
 5887TIP3   OH239295   5.393   5.888   0.331  0.2066  0.3968  0.2846
 5887TIP3    H139296   5.384   5.795   0.355  0.1754  0.4965  0.6697
 5887TIP3    H239297   5.468   5.891   0.272 -0.8245 -0.1284 -1.1270
 5888TIP3   OH239298   0.454   6.329   0.370 -0.2140  0.2043  0.3518
 5888TIP3    H139299   0.478   6.273   0.444 -0.2629  0.2709  0.4179
 5888TIP3    H239300   0.375   6.289   0.334  0.0084 -0.0333  0.1159
 5889TIP3   OH239301   3.434   7.046   0.865  0.4675 -0.7842 -0.4307
 5889TIP3    H139302   3.415   6.953   0.861 -0.1710 -0.6878  0.1587
 5889TIP3    H239303   3.410   7.079   0.778 -2.4965 -0.6210  0.3290
 5890TIP3   OH239304   3.919   1.599   1.122  0.6520  0.0887 -0.1761
 5890TIP3    H139305   4.010   1.625   1.137  0.2622  0.5391  1.7551
 5890TIP3    H239306   3.919   1.505   1.138  0.4434  0.4030  1.9201
 5891TIP3   OH239307   4.903   0.572   0.904  0.3038 -0.0889 -0.2962
 5891TIP3    H139308   4.994   0.567   0.876  0.1509  1.1606 -1.0995
 5891TIP3    H239309   4.864   0.639   0.848 -0.9598 -0.1650  0.4438
 5892TIP3   OH239310   3.935   2.700   1.722  0.7697  0.0050  0.5283
 5892TIP3    H139311   3.991   2.650   1.780  0.1359  0.0075  1.1570
 5892TIP3    H239312   3.875   2.747   1.780  0.1604  0.0536 -0.1144
 5893TIP3   OH239313   1.729   2.034   2.012  0.3274 -0.3107  0.3045
 5893TIP3    H139314   1.740   1.997   2.100  1.9774 -1.3321 -0.2710
 5893TIP3    H239315   1.643   2.003   1.984 -0.7912  1.0845  2.0024
 5894TIP3   OH239316   4.890   4.466   0.284  0.5229  0.0638 -0.4941
 5894TIP3    H139317   4.953   4.479   0.354  1.3598 -1.3233 -0.9566
 5894TIP3    H239318   4.890   4.549   0.237  0.7335  0.6507  0.5068
 5895TIP3   OH239319   1.387   2.729   0.662  0.4123  0.0961  0.2677
 5895TIP3    H139320   1.376   2.824   0.652 -1.6436 -0.1173  0.1113
 5895TIP3    H239321   1.298   2.695   0.670  1.0361 -1.9728 -0.9000
 5896TIP3   OH239322   7.061   6.706   1.382  0.7862  0.0586 -0.1774
 5896TIP3    H139323   7.060   6.801   1.369  0.7696 -0.0863 -1.2737
 5896TIP3    H239324   7.118   6.672   1.314  1.4365 -0.6650  0.7050
 5897TIP3   OH239325   0.994   5.429   1.018  0.6320 -0.0258 -0.3895
 5897TIP3    H139326   1.074   5.469   0.983  0.1915  0.3133 -1.0276
 5897TIP3    H239327   0.924   5.490   0.993  0.0925 -0.6404 -0.4006
 5898TIP3   OH239328   2.875   4.546   7.077  0.2881  0.6905  0.1890
 5898TIP3    H139329   2.914   4.594   7.003 -0.5199  1.7822  0.4348
 5898TIP3    H239330   2.852   4.614   7.140 -1.6754  0.0920  0.1919
 5899TIP3   OH239331   2.799   1.584   6.730 -0.3993  0.4291  0.3756
 5899TIP3    H139332   2.706   1.587   6.708 -0.1482  0.6108 -0.6706
 5899TIP3    H239333   2.841   1.541   6.656  0.4413  0.9641  0.5232
 5900TIP3   OH239334   0.653   5.129   6.342  0.3503 -0.0036 -0.1414
 5900TIP3    H139335   0.627   5.157   6.430 -1.4016 -3.1277  0.5036
 5900TIP3    H239336   0.602   5.185   6.283 -0.6231  0.2792  0.9275
 5901TIP3   OH239337   6.728   6.886   8.204 -0.3256 -0.6829 -0.1638
 5901TIP3    H139338   6.780   6.806   8.203  2.4551  0.8866  1.7524
 5901TIP3    H239339   6.710   6.901   8.297 -0.4313  1.0636 -0.4349
 5902TIP3   OH239340   2.866   3.116   0.107 -0.4594  0.1624  0.0934
 5902TIP3    H139341   2.829   3.100   0.020  1.7282 -0.8664 -0.7214
 5902TIP3    H239342   2.890   3.030   0.139 -0.5163  0.6155  1.4128
 5903TIP3   OH239343   3.642   5.398   0.499  0.5289  0.2979 -0.2764
 5903TIP3    H139344   3.602   5.339   0.435 -0.2555  0.3464  0.1498
 5903TIP3    H239345   3.597   5.482   0.485 -0.0609  0.1578  0.7111
 5904TIP3   OH239346   1.672   4.570   0.745 -0.3176 -0.3851  0.4060
 5904TIP3    H139347   1.681   4.481   0.712  1.3579  0.1711 -0.7385
 5904TIP3    H239348   1.580   4.592   0.732 -0.5086 -1.5687 -0.3132
 5905TIP3   OH239349   0.807   1.987   6.900  0.1377  0.2420 -0.7279
 5905TIP3    H139350   0.818   1.961   6.808  1.2903  1.3299 -0.9348
 5905TIP3    H239351   0.725   2.037   6.901 -0.2956 -0.4450 -0.9920
 5906TIP3   OH239352   0.714   4.292   2.075  0.0140  0.4070  0.6210
 5906TIP3    H139353   0.719   4.276   2.169 -1.7817  1.6058  0.9822
 5906TIP3    H239354   0.662   4.372   2.067 -1.9925 -0.9712 -1.4499
 5907TIP3   OH239355   3.330   5.197   8.275 -0.1782  0.2429 -0.4011
 5907TIP3    H139356   3.316   5.115   8.322 -1.1944  0.7689  0.2636
 5907TIP3    H239357   3.379   5.252   8.337  1.0492 -0.0600 -1.0750
 5908TIP3   OH239358   5.331   4.540   7.868  1.0645  1.0086  0.2633
 5908TIP3    H139359   5.414   4.501   7.898  0.7005 -0.4838 -0.5389
 5908TIP3    H239360   5.330   4.627   7.906  3.0238  1.0703  0.2787
 5909TIP3   OH239361   3.620   0.174   6.199  0.0333  1.1325 -0.0636
 5909TIP3    H139362   3.659   0.181   6.111 -0.3104  0.5288 -0.2719
 5909TIP3    H239363   3.527   0.189   6.185 -0.3153 -0.8010 -0.1163
 5910TIP3   OH239364   1.930   2.375   2.099  0.1876 -0.0600  0.4781
 5910TIP3    H139365   1.874   2.420   2.163  1.1853  0.0906  1.2582
 5910TIP3    H239366   1.945   2.289   2.137  0.2771 -0.1948  0.1388
 5911TIP3   OH239367   6.482   5.778   6.685 -0.1943  0.0468 -0.3020
 5911TIP3    H139368   6.518   5.713   6.624 -0.1611  1.1463 -1.5106
 5911TIP3    H239369   6.559   5.816   6.728  0.0112  1.0238 -1.4579
 5912TIP3   OH239370   1.010   4.776   1.001  0.6092  0.1412 -0.8295
 5912TIP3    H139371   0.983   4.684   1.010 -1.5725  0.8042 -0.0066
 5912TIP3    H239372   1.046   4.782   0.912  2.7808 -1.9307 -0.1860
 5913TIP3   OH239373   0.371   3.599   0.856  0.7935 -0.3418 -0.6938
 5913TIP3    H139374   0.384   3.620   0.764  2.0399 -0.8674 -0.6507
 5913TIP3    H239375   0.343   3.508   0.856 -2.1429  0.4622 -0.7120
 5914TIP3   OH239376   5.948   3.684   7.834  0.4975  0.2733 -0.1330
 5914TIP3    H139377   6.017   3.666   7.769  0.8116  2.2664 -0.4056
 5914TIP3    H239378   5.945   3.779   7.840 -0.4747  0.1682  1.7974
 5915TIP3   OH239379   1.725   4.305   6.552 -0.2333 -0.0019  0.1262
 5915TIP3    H139380   1.757   4.222   6.517  2.2741  0.4458  1.1753
 5915TIP3    H239381   1.681   4.348   6.478  1.0376 -0.9805 -1.2300
 5916TIP3   OH239382   0.508   4.034   6.255  0.2956  0.2228 -0.1195
 5916TIP3    H139383   0.556   4.038   6.172 -0.5532  0.4309 -0.6070
 5916TIP3    H239384   0.498   3.940   6.272 -1.9344  0.0894 -1.7012
 5917TIP3   OH239385   6.294   0.800   1.336  0.1357 -0.2040 -0.0349
 5917TIP3    H139386   6.364   0.756   1.286 -0.5194 -1.0379 -0.2409
 5917TIP3    H239387   6.274   0.879   1.286  1.3337  0.3573  0.3356
 5918TIP3   OH239388   4.703   4.379   6.367  0.0898 -0.6302  0.2346
 5918TIP3    H139389   4.658   4.296   6.353  1.4786 -1.5709  1.1325
 5918TIP3    H239390   4.717   4.383   6.462 -0.6754  1.0462  0.3197
 5919TIP3   OH239391   4.369   5.034   0.550  0.3109 -0.6665  0.4148
 5919TIP3    H139392   4.336   5.121   0.572  0.1799 -0.3565 -0.9149
 5919TIP3    H239393   4.465   5.044   0.550  0.2837 -0.2682 -0.6200
 5920TIP3   OH239394   2.357   5.486   1.319 -0.5895  0.0514 -0.3581
 5920TIP3    H139395   2.417   5.557   1.342  1.0338 -0.3502 -3.0123
 5920TIP3    H239396   2.288   5.529   1.268 -1.0830  0.0841  0.3181
 5921TIP3   OH239397   3.950   6.202   2.071 -0.0626 -0.3618  0.3523
 5921TIP3    H139398   3.979   6.267   2.134 -1.3979  0.6525 -0.0376
 5921TIP3    H239399   3.920   6.253   1.996  0.6020 -1.5076 -0.7222
 5922TIP3   OH239400   4.166   2.155   7.936  0.4341 -0.0872 -0.2050
 5922TIP3    H139401   4.188   2.216   7.865 -1.9061 -0.4737 -1.3666
 5922TIP3    H239402   4.085   2.189   7.972  0.0753 -1.4797  0.3745
 5923TIP3   OH239403   6.396   6.350   7.584 -0.0481  0.2320  0.7508
 5923TIP3    H139404   6.439   6.427   7.621  1.2796 -0.9028  1.6551
 5923TIP3    H239405   6.467   6.290   7.563 -1.0378 -0.6756 -0.1242
 5924TIP3   OH239406   0.418   5.985   0.029  0.2196 -0.2595 -0.2757
 5924TIP3    H139407   0.502   6.020   0.060  1.1077  1.8579 -4.3816
 5924TIP3    H239408   0.441   5.906  -0.019 -0.7064 -1.7419  1.6151
 5925TIP3   OH239409   1.978   5.837   0.903 -0.3867  0.5717  0.1864
 5925TIP3    H139410   1.889   5.851   0.871 -1.4133 -0.4091  2.4104
 5925TIP3    H239411   2.015   5.925   0.912 -0.5165  0.9342 -2.2051
 5926TIP3   OH239412   0.267   5.149   6.890  0.4915  0.2867  0.1335
 5926TIP3    H139413   0.254   5.082   6.957  1.5515 -0.5490 -0.4759
 5926TIP3    H239414   0.270   5.231   6.940 -0.2636 -0.1535  0.9420
 5927TIP3   OH239415   2.648   2.867   1.173 -0.4602  0.0190 -0.2307
 5927TIP3    H139416   2.576   2.925   1.147 -0.4962  0.3742  0.6372
 5927TIP3    H239417   2.726   2.921   1.166 -0.6022  0.5304  1.5755
 5928TIP3   OH239418   4.537   3.720   1.042 -0.2935 -0.0650 -0.4552
 5928TIP3    H139419   4.539   3.811   1.011  0.2955  0.7989  1.8722
 5928TIP3    H239420   4.543   3.728   1.137 -0.3992 -2.5687 -0.1847
 5929TIP3   OH239421   0.881   2.008   0.766 -0.0436 -0.3250  0.7452
 5929TIP3    H139422   0.801   1.958   0.746 -1.0729  1.8799 -1.1292
 5929TIP3    H239423   0.938   1.994   0.691 -0.2884  1.1138  0.2545
 5930TIP3   OH239424   0.476   5.116   1.455 -0.2901 -0.4551 -0.0808
 5930TIP3    H139425   0.552   5.175   1.459  0.1152 -0.9926  0.6367
 5930TIP3    H239426   0.417   5.156   1.392  0.7811 -0.2407 -0.9915
 5931TIP3   OH239427   1.952   4.116   6.811  0.3975  0.5078 -0.2969
 5931TIP3    H139428   1.970   4.026   6.838 -0.1613 -0.0089 -1.5626
 5931TIP3    H239429   2.015   4.134   6.742 -1.8215 -0.2806 -2.6919
 5932TIP3   OH239430   5.782   2.695   1.191  0.1653  0.1302  0.5814
 5932TIP3    H139431   5.723   2.622   1.208  1.2701 -1.4442 -1.8470
 5932TIP3    H239432   5.725   2.772   1.187 -1.4332 -1.0412  0.2880
 5933TIP3   OH239433   5.107   2.360   7.062  0.5382  0.5575 -0.5629
 5933TIP3    H139434   5.123   2.418   6.988  1.2029  0.2251 -0.6825
 5933TIP3    H239435   5.124   2.272   7.029 -1.4866  0.1698 -0.6796
 5934TIP3   OH239436   4.617   6.606   6.624 -0.2166 -0.0791 -0.4247
 5934TIP3    H139437   4.584   6.517   6.611  0.6649 -0.4404 -0.2493
 5934TIP3    H239438   4.607   6.648   6.538 -0.3886 -0.4271 -0.5777
 5935TIP3   OH239439   3.880   4.026   0.562  0.1670  0.4353  0.5946
 5935TIP3    H139440   3.796   4.033   0.607 -0.2551  1.8113 -0.3394
 5935TIP3    H239441   3.943   4.006   0.630 -0.8869 -0.4871  1.3375
 5936TIP3   OH239442   1.132   1.886   1.196  0.6812  0.6669  0.0846
 5936TIP3    H139443   1.179   1.960   1.236  0.5531 -0.1008  1.7613
 5936TIP3    H239444   1.197   1.816   1.194 -0.2690 -0.3969  2.4048
 5937TIP3   OH239445   6.980   0.671   0.131  0.4007  0.4025  0.5822
 5937TIP3    H139446   6.948   0.719   0.055 -0.0532  0.4478  0.8017
 5937TIP3    H239447   6.922   0.697   0.202 -1.1601 -2.0084  0.2838
 5938TIP3   OH239448   2.332   2.698   1.200  0.0672  0.2043  0.2989
 5938TIP3    H139449   2.405   2.679   1.141 -0.7911  0.4403 -0.8920
 5938TIP3    H239450   2.361   2.772   1.253  0.0236  1.5685 -1.4958
 5939TIP3   OH239451   1.592   3.441   7.997  0.0738 -0.8834 -0.6616
 5939TIP3    H139452   1.533   3.516   7.992 -0.3174 -1.2686 -2.0828
 5939TIP3    H239453   1.632   3.435   7.911  0.9263 -1.6651 -0.2320
 5940TIP3   OH239454   0.610   6.522   2.416  0.2137  0.5309 -0.2183
 5940TIP3    H139455   0.585   6.534   2.507  0.5259  1.5263 -0.2543
 5940TIP3    H239456   0.565   6.442   2.389  1.2081 -0.5725  1.2081
 5941TIP3   OH239457   2.758   3.850   7.778  0.4479  0.1374  0.0128
 5941TIP3    H139458   2.727   3.763   7.751 -0.2448 -0.3529  2.1527
 5941TIP3    H239459   2.696   3.911   7.739 -0.0837 -0.4743 -0.1243
 5942TIP3   OH239460   1.136   0.329   6.098 -0.0002 -0.4028 -0.0177
 5942TIP3    H139461   1.066   0.286   6.049 -1.2563  0.5862  0.8282
 5942TIP3    H239462   1.160   0.405   6.044  0.0984 -0.4955 -0.1029
 5943TIP3   OH239463   4.574   0.382   1.028 -0.5768  0.0029 -0.5243
 5943TIP3    H139464   4.597   0.296   0.993  0.4130 -0.9162  2.1546
 5943TIP3    H239465   4.481   0.392   1.007 -0.2266 -0.7443 -2.6934
 5944TIP3   OH239466   1.826   1.476   7.068  0.2235 -0.1416 -0.2157
 5944TIP3    H139467   1.850   1.385   7.049 -1.7077 -0.3038 -2.3415
 5944TIP3    H239468   1.802   1.476   7.160 -0.7851 -2.0957 -0.4169
 5945TIP3   OH239469   5.182   6.008   7.249 -0.0926  0.0096 -0.1481
 5945TIP3    H139470   5.156   6.080   7.306 -0.6636 -1.5221  1.6145
 5945TIP3    H239471   5.105   5.992   7.195  0.4522  1.4695 -1.4435
 5946TIP3   OH239472   3.242   4.142   1.543 -0.4321  0.4557  0.2631
 5946TIP3    H139473   3.182   4.202   1.498 -0.3688  0.7451  0.5540
 5946TIP3    H239474   3.303   4.200   1.589 -0.1652  0.1638  0.2759
 5947TIP3   OH239475   5.374   3.756   1.649 -0.5216 -0.1813  0.4950
 5947TIP3    H139476   5.415   3.807   1.580 -1.2052 -0.3874 -0.0772
 5947TIP3    H239477   5.350   3.820   1.716  0.9693 -0.0932  0.9759
 5948TIP3   OH239478   4.467   6.060   6.101 -0.4558  0.1614 -0.4713
 5948TIP3    H139479   4.526   6.125   6.063  0.0338 -0.5697 -0.9794
 5948TIP3    H239480   4.398   6.050   6.036 -0.5885  0.2464 -0.3443
 5949TIP3   OH239481   0.402   4.125   8.244  0.5371  0.6136  0.3764
 5949TIP3    H139482   0.345   4.088   8.176  1.3463  1.5169 -0.8432
 5949TIP3    H239483   0.491   4.106   8.214  0.9218 -0.3764  2.0284
 5950TIP3   OH239484   0.197   2.512   7.024  0.1679 -0.2647  0.6151
 5950TIP3    H139485   0.240   2.517   6.939  0.0078  0.1303  0.5558
 5950TIP3    H239486   0.268   2.518   7.088  0.0729  2.7146  0.5735
 5951TIP3   OH239487   2.762   6.291   0.114 -0.0651 -0.1830  0.3716
 5951TIP3    H139488   2.781   6.369   0.166 -1.7223  0.5486 -0.0321
 5951TIP3    H239489   2.692   6.247   0.163 -0.2538 -0.5524 -0.2205
 5952TIP3   OH239490   1.442   2.807   6.830  0.5261 -0.2787  0.0520
 5952TIP3    H139491   1.414   2.748   6.900 -1.6488 -0.4171 -0.8521
 5952TIP3    H239492   1.513   2.859   6.868 -0.0774 -0.8757  2.0789
 5953TIP3   OH239493   6.088   6.538   0.834 -0.1966  0.1961 -0.1498
 5953TIP3    H139494   6.038   6.464   0.799  0.2713 -1.2508  2.0609
 5953TIP3    H239495   6.024   6.609   0.840 -1.0976 -0.5448 -0.6709
 5954TIP3   OH239496   0.338   6.706   0.770 -0.4389  0.0824  0.2336
 5954TIP3    H139497   0.327   6.784   0.824  0.5983  0.5414 -0.2074
 5954TIP3    H239498   0.373   6.738   0.687 -1.0957 -0.7268 -0.3837
 5955TIP3   OH239499   6.761   6.291   7.962 -0.2443 -0.0539 -0.3548
 5955TIP3    H139500   6.726   6.211   7.921 -1.4037  0.3910 -0.2635
 5955TIP3    H239501   6.755   6.274   8.056 -0.3618  0.0840 -0.3372
 5956TIP3   OH239502   0.441   4.515   1.068  0.3695 -0.5350 -0.5382
 5956TIP3    H139503   0.373   4.579   1.089  1.0580  0.1984 -0.5074
 5956TIP3    H239504   0.414   4.435   1.114  0.6403  0.3584  1.2812
 5957TIP3   OH239505   3.614   2.468   7.868  0.4216  0.2760 -0.2413
 5957TIP3    H139506   3.657   2.383   7.860  2.5109  1.1901  0.4903
 5957TIP3    H239507   3.574   2.482   7.782 -0.6274 -1.7452 -0.1313
 5958TIP3   OH239508   4.744   1.061   1.479  0.1522  0.4900 -0.2480
 5958TIP3    H139509   4.660   1.061   1.432  0.2813  1.3029 -0.4987
 5958TIP3    H239510   4.755   1.152   1.508  0.5284  0.1949  0.5489
 5959TIP3   OH239511   3.904   7.036   7.146  1.0265  0.5111  0.4841
 5959TIP3    H139512   3.862   7.011   7.228 -0.1726 -0.7409 -0.4565
 5959TIP3    H239513   3.970   7.101   7.171  1.4449 -0.6274  2.5628
 5960TIP3   OH239514   2.528   5.602   1.851 -0.4817  0.1694  0.2765
 5960TIP3    H139515   2.522   5.507   1.855  0.4248 -0.0191 -1.6643
 5960TIP3    H239516   2.608   5.619   1.802 -1.4747  1.8936 -0.8499
 5961TIP3   OH239517   0.300   3.562   7.362  0.2059 -0.0334 -0.1679
 5961TIP3    H139518   0.224   3.537   7.310 -0.1540  0.3182  0.1877
 5961TIP3    H239519   0.324   3.649   7.330  0.2818 -0.0220 -0.0815
 5962TIP3   OH239520   1.708   0.341   7.657 -0.4853 -0.0080  0.8702
 5962TIP3    H139521   1.773   0.357   7.725  0.8459 -0.5304 -0.2250
 5962TIP3    H239522   1.700   0.245   7.653 -0.6230  0.0225  0.3575
 5963TIP3   OH239523   2.261   1.466   7.577 -0.5915 -0.3488 -0.3063
 5963TIP3    H139524   2.315   1.515   7.515  1.5951 -1.8802  0.2735
 5963TIP3    H239525   2.250   1.380   7.538  0.6577 -1.2823  1.2474
 5964TIP3   OH239526   0.500   2.824   7.065  0.3963  0.3940 -1.1778
 5964TIP3    H139527   0.410   2.834   7.034 -1.0327 -1.7268  1.8195
 5964TIP3    H239528   0.507   2.887   7.137  0.2723 -1.3216  0.4088
 5965TIP3   OH239529   6.621   6.034   0.455  0.6222 -0.7418 -0.4892
 5965TIP3    H139530   6.653   6.123   0.468 -0.2701 -0.4463 -0.2285
 5965TIP3    H239531   6.672   5.981   0.516  0.3569 -0.2265  0.1878
 5966TIP3   OH239532   3.779   2.369   7.195 -0.0256 -0.1063  0.0432
 5966TIP3    H139533   3.695   2.409   7.173 -1.1565 -2.0134  0.6767
 5966TIP3    H239534   3.787   2.295   7.134  1.3469  0.2115 -0.2003
 5967TIP3   OH239535   5.056   2.139   1.384  0.2108  0.6029 -0.3790
 5967TIP3    H139536   4.969   2.120   1.420 -0.7081  1.3015 -2.0858
 5967TIP3    H239537   5.100   2.190   1.452  0.3133 -1.9075  1.5884
 5968TIP3   OH239538   4.566   6.825   7.675 -0.2796 -0.5830 -0.3229
 5968TIP3    H139539   4.554   6.784   7.761  0.1925  1.0009  0.5653
 5968TIP3    H239540   4.644   6.782   7.639  2.3870  1.7085  2.1137
 5969TIP3   OH239541   2.473   2.557   7.268 -0.4438 -0.1243 -0.5581
 5969TIP3    H139542   2.547   2.576   7.210 -1.5131  1.5439 -1.4694
 5969TIP3    H239543   2.435   2.642   7.287 -2.0868 -0.9201 -0.0593
 5970TIP3   OH239544   2.254   0.099   6.179 -0.2018  0.0432 -0.1135
 5970TIP3    H139545   2.210   0.144   6.251 -0.2309 -0.1945  0.0182
 5970TIP3    H239546   2.186   0.085   6.113  0.1758  1.7984 -0.9436
 5971TIP3   OH239547   4.006   2.306   0.655 -0.1168 -0.3823 -0.3643
 5971TIP3    H139548   3.942   2.321   0.586 -1.1040  0.6711  0.7343
 5971TIP3    H239549   3.967   2.346   0.733  0.6330 -2.1644  0.9861
 5972TIP3   OH239550   4.419   2.067   6.648 -0.3964 -0.5168  0.3531
 5972TIP3    H139551   4.486   2.104   6.592 -0.5999  0.7270  0.8903
 5972TIP3    H239552   4.395   2.139   6.707 -0.6793 -1.5678  1.5626
 5973TIP3   OH239553   4.841   2.065   7.864 -0.0671 -0.7529 -0.2917
 5973TIP3    H139554   4.919   2.119   7.847  1.1270 -2.5844 -0.8463
 5973TIP3    H239555   4.774   2.102   7.807  0.5732  0.4153 -0.3397
 5974TIP3   OH239556   6.606   2.871   0.286 -0.5074  0.1982 -0.0746
 5974TIP3    H139557   6.580   2.807   0.353 -0.2427 -0.0992 -0.2559
 5974TIP3    H239558   6.608   2.821   0.205  2.9136 -0.3944  0.2431
 5975TIP3   OH239559   5.722   2.656   6.742  0.1762  0.8871  1.1362
 5975TIP3    H139560   5.728   2.560   6.734  0.5843  1.0400 -0.7845
 5975TIP3    H239561   5.811   2.684   6.761  0.3726  0.9922  0.1101
 5976TIP3   OH239562   6.694   3.981   6.950 -0.2096 -0.5426 -0.7171
 5976TIP3    H139563   6.707   4.060   7.003 -0.5075  0.4655 -2.0883
 5976TIP3    H239564   6.739   4.000   6.868 -0.5450 -1.6909 -1.1807
 5977TIP3   OH239565   4.266   1.660   6.877  0.4914  0.2481  0.4257
 5977TIP3    H139566   4.295   1.751   6.884 -1.7117  1.0214  0.1201
 5977TIP3    H239567   4.248   1.648   6.784  1.4418 -0.7614  0.3469
 5978TIP3   OH239568   3.545   3.923   0.107 -0.4947  0.5680 -0.2830
 5978TIP3    H139569   3.535   3.854   0.042 -0.6800  0.6034 -0.2930
 5978TIP3    H239570   3.632   3.908   0.145  0.0352  1.1362 -1.2302
 5979TIP3   OH239571   6.838   3.071   7.846  0.1581  0.3653  0.0666
 5979TIP3    H139572   6.843   3.094   7.754 -1.9307 -0.9651 -0.4457
 5979TIP3    H239573   6.925   3.037   7.867  0.2976 -0.5440 -1.7788
 5980TIP3   OH239574   6.791   6.337   7.649 -0.0934 -0.2713 -0.2023
 5980TIP3    H139575   6.874   6.291   7.647  1.2190  1.9629 -1.7866
 5980TIP3    H239576   6.776   6.358   7.741  1.0471 -0.8000  0.1109
 5981TIP3   OH239577   6.976   4.710   8.170 -0.1039  0.2611  0.4215
 5981TIP3    H139578   6.931   4.630   8.143  0.4989  0.3290 -0.8193
 5981TIP3    H239579   7.058   4.680   8.208 -0.1619  0.2574  0.5437
 5982TIP3   OH239580   2.592   4.222   0.555  0.6809 -0.0424 -0.0146
 5982TIP3    H139581   2.626   4.202   0.642 -0.6079  0.2390  0.5772
 5982TIP3    H239582   2.594   4.139   0.509 -1.6659 -0.9899  1.3843
 5983TIP3   OH239583   5.190   3.282   0.762 -0.4214  0.4392 -0.0232
 5983TIP3    H139584   5.242   3.359   0.786  0.5193 -0.6909  1.8742
 5983TIP3    H239585   5.243   3.238   0.696 -1.5175  1.9552 -1.9986
 5984TIP3   OH239586   0.261   7.052   0.487  0.8107 -0.0322  0.3873
 5984TIP3    H139587   0.200   6.984   0.458 -1.1974  0.5237  2.9683
 5984TIP3    H239588   0.348   7.013   0.474 -0.1311 -1.6919 -1.4116
 5985TIP3   OH239589   4.977   2.960   1.647 -0.1831 -0.3174  0.3430
 5985TIP3    H139590   5.054   2.922   1.690 -0.7557 -1.2682  0.5547
 5985TIP3    H239591   4.969   3.047   1.686  0.4390 -0.4275  0.7413
 5986TIP3   OH239592   3.399   4.829   1.321 -0.4820 -0.0498  0.8068
 5986TIP3    H139593   3.404   4.804   1.414  0.0975 -0.3826  0.6851
 5986TIP3    H239594   3.380   4.748   1.275  0.8332 -0.1720  0.4709
 5987TIP3   OH239595   0.598   2.527   6.291 -0.8449  0.4825  0.2529
 5987TIP3    H139596   0.639   2.564   6.369 -2.5393  1.4658  0.7427
 5987TIP3    H239597   0.588   2.602   6.232 -1.8258  0.2720  0.1329
 5988TIP3   OH239598   2.278   1.395   8.148  0.0053 -0.1470  0.0139
 5988TIP3    H139599   2.239   1.405   8.062 -1.2588 -0.3316  0.5382
 5988TIP3    H239600   2.302   1.303   8.154 -2.5585 -0.8582  0.8705
 5989TIP3   OH239601   6.208   1.072   7.723 -0.4871 -0.1037  0.0751
 5989TIP3    H139602   6.219   1.095   7.631 -1.3480  1.0842  0.2454
 5989TIP3    H239603   6.127   1.116   7.749 -0.3276 -0.5367  1.3652
 5990TIP3   OH239604   4.686   5.926   0.926  0.0658 -0.3050  0.5708
 5990TIP3    H139605   4.758   5.871   0.893  0.3678 -0.8332  2.0520
 5990TIP3    H239606   4.612   5.904   0.869  0.5836 -1.1445  0.2001
 5991TIP3   OH239607   2.219   6.812   2.053 -0.4601 -0.4126  0.6167
 5991TIP3    H139608   2.216   6.897   2.009 -0.2535 -0.1006  1.2053
 5991TIP3    H239609   2.272   6.826   2.131 -1.8204 -0.6612  1.6265
 5992TIP3   OH239610   4.325   5.296   1.913  0.2057  0.1943  0.8389
 5992TIP3    H139611   4.384   5.341   1.973 -0.9218 -0.5091  2.5338
 5992TIP3    H239612   4.332   5.346   1.831  3.0195  0.1995  0.9782
 5993TIP3   OH239613   3.889   1.478   0.234 -0.0498 -0.3936 -0.1021
 5993TIP3    H139614   3.980   1.485   0.265 -0.0372  0.1740 -0.2626
 5993TIP3    H239615   3.847   1.559   0.264 -0.2656 -0.2424 -0.8035
 5994TIP3   OH239616   2.042   1.326   1.305 -0.1840 -0.0192 -0.8353
 5994TIP3    H139617   1.950   1.351   1.316 -0.8877 -2.4478 -0.7191
 5994TIP3    H239618   2.042   1.231   1.310  2.3243 -0.1001 -1.1510
 5995TIP3   OH239619   7.014   4.390   1.463  0.5422  0.0426  0.2579
 5995TIP3    H139620   7.097   4.357   1.498  0.7629  0.8246  0.4869
 5995TIP3    H239621   7.013   4.483   1.486  0.6120  0.5504 -1.6601
 5996TIP3   OH239622   0.400   0.878   0.849  0.1553 -0.2866 -0.2081
 5996TIP3    H139623   0.434   0.796   0.813 -0.2092 -0.1199 -0.9491
 5996TIP3    H239624   0.363   0.853   0.934  1.8202 -0.5244  0.4841
 5997TIP3   OH239625   5.481   2.819   6.103  0.2318 -0.1200 -0.0637
 5997TIP3    H139626   5.561   2.828   6.051  0.1477  1.5037  0.0383
 5997TIP3    H239627   5.411   2.843   6.043 -0.1125 -0.7649  0.0765
 5998TIP3   OH239628   5.254   2.957   1.732 -0.3325  0.2902  0.3915
 5998TIP3    H139629   5.335   3.004   1.750 -0.3466 -0.7528  3.9296
 5998TIP3    H239630   5.277   2.865   1.739 -1.5630 -0.0683  0.0908
 5999TIP3   OH239631   0.901   2.356   2.068  0.3648  0.0026  0.2312
 5999TIP3    H139632   0.979   2.362   2.124  0.3134  0.3749  0.2671
 5999TIP3    H239633   0.856   2.277   2.098  1.1642 -0.6934 -0.3540
 6000TIP3   OH239634   5.907   6.933   0.638 -0.0873  0.1731 -0.0335
 6000TIP3    H139635   5.857   6.855   0.661  0.4154  0.2089  1.2851
 6000TIP3    H239636   5.931   6.971   0.723  1.4506  0.5952 -0.6311
 6001TIP3   OH239637   1.855   5.617   8.088  0.0652 -0.3758 -0.0726
 6001TIP3    H139638   1.813   5.696   8.054  2.1463 -0.0442 -2.0752
 6001TIP3    H239639   1.862   5.632   8.182  3.8671  3.7239 -0.7324
 6002TIP3   OH239640   4.144   3.057   2.115  0.1389 -0.2660 -0.4423
 6002TIP3    H139641   4.054   3.029   2.133  0.2136 -0.8227 -0.8967
 6002TIP3    H239642   4.138   3.152   2.105 -0.1673 -0.1248  0.8777
 6003TIP3   OH239643   3.903   6.773   6.943 -0.1997  0.4069 -0.3645
 6003TIP3    H139644   3.865   6.860   6.935 -0.5286  0.3709  0.6391
 6003TIP3    H239645   3.899   6.754   7.037 -0.1372 -0.6899 -0.5754
 6004TIP3   OH239646   3.592   1.575   7.425  0.3689  0.2739 -0.6070
 6004TIP3    H139647   3.669   1.556   7.372  0.9478  0.3968  0.1901
 6004TIP3    H239648   3.522   1.589   7.360  0.8041 -0.6785 -1.3034
 6005TIP3   OH239649   2.444   2.102   6.199  0.1144 -0.2922  0.2353
 6005TIP3    H139650   2.367   2.159   6.199  0.3220 -0.0126 -0.1692
 6005TIP3    H239651   2.409   2.014   6.215 -0.2987 -0.1853 -0.0782
 6006TIP3   OH239652   5.054   0.161   1.420  0.3902 -0.7252 -0.2186
 6006TIP3    H139653   5.037   0.255   1.420 -1.6395 -1.0343  1.1068
 6006TIP3    H239654   5.098   0.144   1.503  0.8265 -0.9403 -0.4914
 6007TIP3   OH239655   0.575   1.933   0.564 -0.2096  0.5405  0.4901
 6007TIP3    H139656   0.585   1.891   0.650 -1.6230  0.7398  0.7709
 6007TIP3    H239657   0.587   2.026   0.582 -0.1383  0.5475  0.4050
 6008TIP3   OH239658   2.504   2.244   0.202 -0.4288  0.0762 -0.2987
 6008TIP3    H139659   2.535   2.331   0.178  1.9369 -0.6209 -0.0114
 6008TIP3    H239660   2.497   2.196   0.119 -2.6612  0.7656 -0.5595
 6009TIP3   OH239661   6.606   3.120   6.962 -0.2596 -0.4279 -0.2231
 6009TIP3    H139662   6.588   3.047   7.022 -0.0311  0.7887  1.3868
 6009TIP3    H239663   6.701   3.131   6.967 -0.4623  1.0369  0.8660
 6010TIP3   OH239664   3.391   5.457   6.316  0.1026 -1.0006 -0.1900
 6010TIP3    H139665   3.328   5.501   6.259 -0.3096 -1.8579 -0.4195
 6010TIP3    H239666   3.344   5.442   6.397  0.9665  1.0198  0.7569
 6011TIP3   OH239667   4.710   2.267   0.108  0.4723  0.3813 -0.1428
 6011TIP3    H139668   4.632   2.214   0.121  0.9350  0.1217  1.8242
 6011TIP3    H239669   4.749   2.232   0.028 -0.9489 -0.0512 -0.6796
 6012TIP3   OH239670   1.633   6.672   7.941  0.0620  0.3676 -0.4039
 6012TIP3    H139671   1.655   6.733   8.011 -2.0461  0.5948  0.1505
 6012TIP3    H239672   1.662   6.715   7.861  2.6513  0.0372  0.2919
 6013TIP3   OH239673   0.329   3.825   7.796  0.2500 -0.1357 -0.7060
 6013TIP3    H139674   0.268   3.771   7.747  0.5202 -0.6845 -0.4488
 6013TIP3    H239675   0.374   3.877   7.730  0.9970 -1.2578 -1.1011
 6014TIP3   OH239676   4.040   4.531   0.203 -0.3833  0.0148  0.3542
 6014TIP3    H139677   4.020   4.482   0.283 -1.5537  0.6020  0.4473
 6014TIP3    H239678   3.986   4.488   0.136  0.0539 -0.0295  0.0296
 6015TIP3   OH239679   2.248   2.606   1.561  0.4448  0.0297  0.2124
 6015TIP3    H139680   2.220   2.685   1.515 -1.0869 -0.4550  0.2635
 6015TIP3    H239681   2.332   2.630   1.600 -0.8625  2.3109  1.8734
 6016TIP3   OH239682   1.716   2.372   2.273  0.1463  0.6071  0.1835
 6016TIP3    H139683   1.665   2.291   2.277 -0.5693  1.0532  0.1625
 6016TIP3    H239684   1.740   2.389   2.364 -0.6393  0.9556  0.3335
 6017TIP3   OH239685   5.122   2.354   0.181 -0.1009 -0.2613  0.4351
 6017TIP3    H139686   5.035   2.353   0.221  0.4521 -0.2838  1.6970
 6017TIP3    H239687   5.106   2.349   0.087 -1.6229  2.6893  0.4055
 6018TIP3   OH239688   1.014   5.349   6.942  0.1798 -0.7215 -0.0819
 6018TIP3    H139689   1.076   5.410   6.902  0.3257 -0.4138  0.6132
 6018TIP3    H239690   0.986   5.391   7.022 -0.6504 -1.0341 -0.1998
 6019TIP3   OH239691   3.822   1.595   8.178 -0.5255  0.1355 -0.2569
 6019TIP3    H139692   3.883   1.629   8.113 -2.0800  0.9896 -1.3238
 6019TIP3    H239693   3.854   1.629   8.261  1.7714 -1.3559 -0.4386
 6020TIP3   OH239694   1.279   2.440   7.180  0.2637 -0.1550  0.7781
 6020TIP3    H139695   1.216   2.377   7.213  0.2674 -0.8019 -0.3754
 6020TIP3    H239696   1.358   2.425   7.231 -0.4927  0.6885  2.2589
 6021TIP3   OH239697   0.241   3.462   5.928  0.2357  0.0434  0.1060
 6021TIP3    H139698   0.153   3.478   5.895 -0.1592  0.6669  1.3987
 6021TIP3    H239699   0.238   3.373   5.963 -0.1612  0.4036  1.0021
 6022TIP3   OH239700   4.988   6.474   1.534  0.8277 -0.0829  0.6916
 6022TIP3    H139701   4.901   6.512   1.540  1.5104  1.4125  1.7379
 6022TIP3    H239702   4.980   6.388   1.576 -0.3110 -0.3153  0.0261
 6023TIP3   OH239703   4.188   3.111   7.069  0.0634 -1.1191 -0.2451
 6023TIP3    H139704   4.284   3.114   7.071  0.0371  0.8004 -0.1609
 6023TIP3    H239705   4.160   3.162   7.145 -1.0593 -2.6847  0.4504
 6024TIP3   OH239706   5.847   6.494   7.341 -0.0471 -0.0089 -0.7220
 6024TIP3    H139707   5.907   6.540   7.282  1.9588  0.5592  1.5884
 6024TIP3    H239708   5.768   6.548   7.342  0.8787  1.4050 -0.9207
 6025TIP3   OH239709   2.683   4.293   7.821 -0.2691  0.7294  0.1314
 6025TIP3    H139710   2.719   4.326   7.739  0.9309  0.4324  0.5301
 6025TIP3    H239711   2.630   4.217   7.795 -0.2924  0.9277 -0.4099
 6026TIP3   OH239712   2.831   2.747   5.846  0.5749  0.7033 -0.8468
 6026TIP3    H139713   2.881   2.773   5.923 -0.4633  1.2978 -0.3477
 6026TIP3    H239714   2.871   2.665   5.818  1.1970  0.6589  0.1178
 6027TIP3   OH239715   4.112   5.933   7.341  0.1476  0.1950  0.1148
 6027TIP3    H139716   4.163   5.862   7.380 -0.5790 -0.4483 -0.0810
 6027TIP3    H239717   4.049   5.889   7.284  0.8883  1.0926 -1.4581
 6028TIP3   OH239718   5.698   1.467   1.282 -0.2107 -0.6563  0.5013
 6028TIP3    H139719   5.632   1.535   1.267  0.7406  0.1399 -0.1885
 6028TIP3    H239720   5.658   1.387   1.249 -1.0888 -0.3229  0.7117
 6029TIP3   OH239721   2.816   2.996   0.809  0.3213 -0.0623 -0.4330
 6029TIP3    H139722   2.911   2.989   0.812  0.3029 -0.7617 -1.1102
 6029TIP3    H239723   2.793   3.045   0.888  1.3875  1.7771 -1.2030
 6030TIP3   OH239724   5.602   6.323   1.675  0.0934  0.2348  0.1011
 6030TIP3    H139725   5.514   6.295   1.700 -0.2215 -1.2782 -2.3721
 6030TIP3    H239726   5.643   6.349   1.757 -2.4729  0.5327  1.3966
 6031TIP3   OH239727   2.619   3.530   6.813 -0.0738  0.1545  0.0215
 6031TIP3    H139728   2.556   3.506   6.881  1.2892 -0.5385  1.0951
 6031TIP3    H239729   2.690   3.467   6.823  0.1534  0.0114 -2.1010
 6032TIP3   OH239730   4.430   2.837   1.483  0.2865 -0.0314  0.1145
 6032TIP3    H139731   4.472   2.888   1.552  0.9728  0.9199 -0.9689
 6032TIP3    H239732   4.350   2.884   1.464 -0.4605 -0.9016  0.9891
 6033TIP3   OH239733   6.931   5.191   0.797 -0.4076 -0.8225 -0.2813
 6033TIP3    H139734   7.017   5.166   0.829 -0.2962 -0.2449 -0.1144
 6033TIP3    H239735   6.891   5.109   0.768  0.5751 -0.9619 -1.2920
 6034TIP3   OH239736   2.665   3.146   1.263 -0.4472 -0.1083  0.0094
 6034TIP3    H139737   2.586   3.197   1.278 -0.2536  0.5176 -1.0174
 6034TIP3    H239738   2.713   3.150   1.347 -0.1854  1.8468 -0.1850
 6035TIP3   OH239739   1.148   1.641   8.053  0.0630 -0.1663 -0.2201
 6035TIP3    H139740   1.143   1.716   7.994  2.6495 -1.4516 -2.2970
 6035TIP3    H239741   1.203   1.671   8.125 -0.3653  0.4180 -0.1282
 6036TIP3   OH239742   5.249   4.689   7.465 -0.2502  0.1538  0.0590
 6036TIP3    H139743   5.173   4.722   7.512 -2.1797  0.6165 -3.0933
 6036TIP3    H239744   5.253   4.743   7.386  1.5498 -1.8022 -1.2917
 6037TIP3   OH239745   1.061   0.968   1.078  0.1877 -0.4796  0.3824
 6037TIP3    H139746   1.127   1.036   1.064 -1.7659  2.0588  2.4650
 6037TIP3    H239747   1.081   0.932   1.165 -0.2542 -0.7904  0.3615
 6038TIP3   OH239748   5.254   3.286   6.114  0.1817  0.0645 -0.5927
 6038TIP3    H139749   5.208   3.265   6.196 -0.0176 -1.1409 -0.9926
 6038TIP3    H239750   5.216   3.226   6.050  0.1939  1.1429 -1.6295
 6039TIP3   OH239751   0.798   6.754   7.647  0.0006 -0.1800  0.4079
 6039TIP3    H139752   0.844   6.830   7.612 -0.0019 -0.0218  0.7513
 6039TIP3    H239753   0.849   6.679   7.616  0.9002  0.0218  1.3738
 6040TIP3   OH239754   4.748   5.814   7.575 -0.1661  0.6282  0.1754
 6040TIP3    H139755   4.777   5.727   7.547 -0.2132  0.7537 -0.2765
 6040TIP3    H239756   4.737   5.806   7.669  1.4504  0.6110  0.3856
 6041TIP3   OH239757   1.092   2.328   7.394 -0.2865  0.1468  0.0715
 6041TIP3    H139758   1.041   2.306   7.316 -1.7112 -0.0628  1.0316
 6041TIP3    H239759   1.079   2.253   7.453  2.2313 -0.5546 -0.1369
 6042TIP3   OH239760   1.458   3.782   7.764  0.3930 -0.2746  0.2759
 6042TIP3    H139761   1.538   3.773   7.714  0.6603 -2.0473  0.9322
 6042TIP3    H239762   1.464   3.714   7.831 -1.8915 -0.8195  0.0077
 6043TIP3   OH239763   0.726   5.628   0.011 -0.1336 -0.0552  0.4294
 6043TIP3    H139764   0.817   5.658  -0.000 -0.0422  0.2958  1.9260
 6043TIP3    H239765   0.700   5.663   0.096 -1.8510  0.2560 -0.1863
 6044TIP3   OH239766   0.012   2.039   6.772 -0.7069  0.6086  0.0196
 6044TIP3    H139767   0.085   1.991   6.733 -1.2272  1.7079 -2.5417
 6044TIP3    H239768   0.045   2.129   6.780 -0.7724  0.4958  1.8114
 6045TIP3   OH239769   6.732   3.675   1.444  0.1068 -0.2617 -0.0837
 6045TIP3    H139770   6.717   3.636   1.357 -0.4008  0.6944 -0.4371
 6045TIP3    H239771   6.650   3.664   1.490  0.9472 -2.4872  1.0022
 6046TIP3   OH239772   2.322   6.276   2.372  0.2661  0.1721  0.1536
 6046TIP3    H139773   2.348   6.368   2.380 -0.7614  0.4796  0.0168
 6046TIP3    H239774   2.264   6.274   2.296  0.9500 -0.7507 -0.3725
 6047TIP3   OH239775   2.321   1.861   6.234  0.5966  1.0066 -0.4815
 6047TIP3    H139776   2.313   1.818   6.319  1.4810  0.4316 -0.6769
 6047TIP3    H239777   2.230   1.870   6.204  0.3483 -0.1657 -0.1485
 6048TIP3   OH239778   3.363   1.168   7.673 -0.1930 -0.2909  0.2895
 6048TIP3    H139779   3.421   1.125   7.611 -0.2208 -1.2527  0.9171
 6048TIP3    H239780   3.356   1.258   7.641  2.2171  0.0689  0.5701
 6049TIP3   OH239781   5.876   4.555   7.902 -0.7207  0.6717 -0.2608
 6049TIP3    H139782   5.797   4.609   7.899 -1.0442  0.5078  2.3951
 6049TIP3    H239783   5.939   4.608   7.951  0.0992 -0.0184 -0.5521
 6050TIP3   OH239784   3.879   2.940   1.614 -0.3047 -0.1745  0.1400
 6050TIP3    H139785   3.827   2.951   1.534  0.3141 -0.8219 -0.3629
 6050TIP3    H239786   3.890   2.845   1.622  1.0355 -0.0394  0.0776
 6051TIP3   OH239787   0.642   1.785   0.787  0.1358  0.1313  0.3628
 6051TIP3    H139788   0.719   1.737   0.818  0.1129  0.0154  0.2424
 6051TIP3    H239789   0.568   1.737   0.824  0.0797 -0.4508 -0.4733
 6052TIP3   OH239790   1.298   4.416   5.557 -0.3038 -0.2360  0.6698
 6052TIP3    H139791   1.360   4.381   5.620 -0.2507  1.4882  1.6493
 6052TIP3    H239792   1.246   4.341   5.529  0.5009 -1.2521  1.8306
 6053TIP3   OH239793   5.867   3.431   6.936 -0.0212  0.4987 -0.0370
 6053TIP3    H139794   5.944   3.486   6.940  0.2858  0.1816 -1.2276
 6053TIP3    H239795   5.799   3.487   6.898 -0.4403  0.8187  1.1281
 6054TIP3   OH239796   0.675   5.725   6.145  0.5879  0.0218 -0.0710
 6054TIP3    H139797   0.660   5.694   6.056 -0.7368  1.1892 -0.2853
 6054TIP3    H239798   0.761   5.766   6.142  1.7888 -2.3197 -0.1067
 6055TIP3   OH239799   0.054   6.624   0.516  0.3751 -0.3730  0.5821
 6055TIP3    H139800   0.134   6.579   0.543  2.1889  2.3473  0.1613
 6055TIP3    H239801   0.024   6.671   0.594  0.2675  0.0981  0.2648
 6056TIP3   OH239802   0.895   4.266   1.692 -0.7593 -0.7055  0.2361
 6056TIP3    H139803   0.822   4.230   1.743 -0.2365 -2.4328 -0.1717
 6056TIP3    H239804   0.967   4.205   1.708  0.4145  0.6079  0.0987
 6057TIP3   OH239805   3.446   3.517   7.260  0.2876  0.2201 -0.0454
 6057TIP3    H139806   3.541   3.511   7.267  0.3393  1.3336  0.4650
 6057TIP3    H239807   3.412   3.473   7.338  0.3026 -1.6256 -1.0288
 6058TIP3   OH239808   2.456   2.835   6.161 -0.3515 -0.4528 -0.0063
 6058TIP3    H139809   2.536   2.796   6.128 -0.7368  0.0177 -1.6323
 6058TIP3    H239810   2.408   2.763   6.202 -0.1544 -1.2448 -1.1404
 6059TIP3   OH239811   4.477   2.329   6.784  0.1098 -0.7740 -0.2039
 6059TIP3    H139812   4.485   2.414   6.826  1.6728 -1.1380  0.2968
 6059TIP3    H239813   4.544   2.329   6.716 -1.4877 -0.7141 -1.8755
 6060TIP3   OH239814   5.413   5.588   1.398  0.8469 -0.2909 -0.2752
 6060TIP3    H139815   5.459   5.627   1.325 -1.2795 -0.1835 -1.6557
 6060TIP3    H239816   5.393   5.662   1.456  2.8331 -0.4256  0.6559
 6061TIP3   OH239817   0.661   5.349   7.428 -0.0531 -0.3979  0.3422
 6061TIP3    H139818   0.609   5.355   7.508  2.4075 -0.6451  2.0581
 6061TIP3    H239819   0.717   5.426   7.431  2.6197 -2.2339  0.8329
 6062TIP3   OH239820   1.343   4.773   0.138  0.1886  0.1439 -0.1659
 6062TIP3    H139821   1.335   4.692   0.088 -0.7225 -0.0982  0.3468
 6062TIP3    H239822   1.421   4.815   0.104  0.0755 -0.4413 -1.1733
 6063TIP3   OH239823   0.612   4.165   1.394  0.2263 -0.3814  0.5254
 6063TIP3    H139824   0.608   4.115   1.476  1.5379 -0.1424  0.7543
 6063TIP3    H239825   0.695   4.211   1.398 -0.5560  1.1516 -0.0879
 6064TIP3   OH239826   1.703   2.529   6.589  0.3340  0.1262  0.2064
 6064TIP3    H139827   1.645   2.460   6.621  1.4678 -1.1662 -0.4059
 6064TIP3    H239828   1.757   2.552   6.664  0.4169 -0.1696  0.2417
 6065TIP3   OH239829   2.554   3.330   1.684  0.0860 -0.1199  0.4583
 6065TIP3    H139830   2.467   3.312   1.647 -0.3300  1.3404  0.6475
 6065TIP3    H239831   2.554   3.425   1.700  1.7744 -0.0576  0.3165
 6066TIP3   OH239832   5.407   0.371   1.907 -0.3869  0.5401  0.1638
 6066TIP3    H139833   5.347   0.296   1.902  0.6733 -0.4270  1.3451
 6066TIP3    H239834   5.469   0.348   1.976  0.5488  2.1063 -0.1003
 6067TIP3   OH239835   0.599   1.198   7.950  0.5001  0.1453  0.8268
 6067TIP3    H139836   0.578   1.173   7.861 -0.1886  0.5255  0.8710
 6067TIP3    H239837   0.519   1.180   8.000  1.4245 -1.7206  1.7298
 6068TIP3   OH239838   6.014   6.582   8.115 -0.3622  0.0474 -0.0700
 6068TIP3    H139839   5.990   6.624   8.033 -1.6835 -0.7402 -0.1126
 6068TIP3    H239840   5.999   6.488   8.099 -1.8449 -0.0174  1.4202
 6069TIP3   OH239841   4.015   1.087   7.095 -0.0357  0.2865  0.0180
 6069TIP3    H139842   3.998   1.136   7.014  0.6399  1.5545  0.6363
 6069TIP3    H239843   4.100   1.046   7.081  0.0704  0.4865  0.0862
 6070TIP3   OH239844   1.716   5.836   1.250  0.3933 -0.2167  0.0028
 6070TIP3    H139845   1.702   5.928   1.230  0.6771  0.0432  0.9370
 6070TIP3    H239846   1.810   5.830   1.269  0.2836 -0.6024  0.4315
 6071TIP3   OH239847   2.111   4.173   6.587  0.8452  0.0812 -0.5776
 6071TIP3    H139848   2.182   4.159   6.524  2.6999  1.3606  1.0914
 6071TIP3    H239849   2.112   4.268   6.602  0.8233 -0.2469  1.7405
 6072TIP3   OH239850   2.832   1.653   6.979  0.2139 -0.3223  0.1748
 6072TIP3    H139851   2.827   1.600   6.900  1.9400 -2.2825  1.2694
 6072TIP3    H239852   2.914   1.701   6.971 -0.7467  1.3065 -0.2465
 6073TIP3   OH239853   3.217   5.414   1.351 -0.2739 -0.2300 -0.5212
 6073TIP3    H139854   3.224   5.421   1.256 -2.8820 -0.2346 -0.7603
 6073TIP3    H239855   3.125   5.397   1.368 -0.1728  1.3368  2.1266
 6074TIP3   OH239856   4.350   5.376   0.025  0.0722 -0.1476  0.2344
 6074TIP3    H139857   4.381   5.387  -0.065  2.0733  0.2278  0.9175
 6074TIP3    H239858   4.256   5.358   0.016  0.1863  0.0492 -1.9015
 6075TIP3   OH239859   6.028   0.871   7.875  0.3548 -0.4019  0.0442
 6075TIP3    H139860   5.955   0.881   7.814  0.5606 -1.1203 -0.3339
 6075TIP3    H239861   6.001   0.919   7.953  0.4064  1.1977 -0.8662
 6076TIP3   OH239862   3.462   6.767   0.796 -0.0154 -0.3140  0.3201
 6076TIP3    H139863   3.490   6.729   0.712 -1.7958 -2.3991  0.5712
 6076TIP3    H239864   3.367   6.755   0.796 -0.0026 -0.7826  2.8394
 6077TIP3   OH239865   1.719   6.137   1.727 -0.3198 -0.4822  0.2834
 6077TIP3    H139866   1.753   6.115   1.640 -0.3647 -1.4556  0.5093
 6077TIP3    H239867   1.641   6.083   1.737 -0.7419  0.1715  0.6397
 6078TIP3   OH239868   3.435   1.467   6.736 -0.1093  0.2462 -0.3406
 6078TIP3    H139869   3.456   1.560   6.726 -1.6794  0.6653  0.0302
 6078TIP3    H239870   3.418   1.437   6.646  1.3910  0.0311 -0.5843
 6079TIP3   OH239871   5.125   1.590   7.098 -0.1547  0.0694  0.3013
 6079TIP3    H139872   5.086   1.533   7.164  0.6678  1.4156  2.0394
 6079TIP3    H239873   5.190   1.536   7.054 -0.6543 -0.8332  0.6540
 6080TIP3   OH239874   5.203   2.566   1.393  0.1920 -0.2827  0.3274
 6080TIP3    H139875   5.256   2.488   1.378  1.0654  0.6198 -1.8053
 6080TIP3    H239876   5.116   2.544   1.360  0.9838  0.2400 -2.3805
 6081TIP3   OH239877   2.170   1.377   6.826  0.2170 -0.0587 -0.1252
 6081TIP3    H139878   2.156   1.471   6.810 -0.9887 -0.1285  0.4477
 6081TIP3    H239879   2.129   1.361   6.911 -0.3757 -1.2988 -0.6322
 6082TIP3   OH239880   6.866   3.127   8.274  0.4679 -0.2843  0.5272
 6082TIP3    H139881   6.877   3.079   8.356 -0.1445 -1.1686  0.1091
 6082TIP3    H239882   6.943   3.184   8.269  0.8523 -0.7127  1.3850
 6083TIP3   OH239883   6.767   6.749   6.587  0.3402  0.1867 -0.4574
 6083TIP3    H139884   6.721   6.751   6.503 -0.9785  0.9190  0.2422
 6083TIP3    H239885   6.853   6.785   6.567  0.6871 -1.2572 -1.8160
 6084TIP3   OH239886   1.807   1.534   2.027 -0.3885  0.4221  0.0657
 6084TIP3    H139887   1.836   1.592   2.098 -0.2773  0.6627 -0.1750
 6084TIP3    H239888   1.818   1.446   2.062 -0.7227  0.5480  0.5024
 6085TIP3   OH239889   3.873   2.250   8.074 -0.0841 -0.5784  0.3904
 6085TIP3    H139890   3.819   2.206   8.139  1.4232 -2.6290  0.3592
 6085TIP3    H239891   3.953   2.275   8.122  0.3791 -0.6823 -0.3063
 6086TIP3   OH239892   2.828   3.113   7.516  0.3129 -0.1170  0.0944
 6086TIP3    H139893   2.845   3.194   7.467 -1.2052 -0.0253 -0.3498
 6086TIP3    H239894   2.733   3.102   7.510  0.5323 -2.1801 -0.2441
 6087TIP3   OH239895   5.420   3.617   5.825 -0.1101 -0.1992  0.1427
 6087TIP3    H139896   5.442   3.625   5.918  1.2575  2.0699 -0.3024
 6087TIP3    H239897   5.503   3.633   5.779 -0.7593 -1.2526 -1.5090
 6088TIP3   OH239898   5.972   5.697   0.277  0.4600 -0.2456  0.7192
 6088TIP3    H139899   6.061   5.731   0.275  0.6326 -0.7377 -0.2663
 6088TIP3    H239900   5.977   5.614   0.228 -0.2609 -0.9399  1.7729
 6089TIP3   OH239901   1.915   4.351   8.146  0.4287 -0.1648 -0.6448
 6089TIP3    H139902   2.000   4.392   8.162 -0.8000  2.0544  0.5928
 6089TIP3    H239903   1.915   4.275   8.204  0.1048  2.0436  2.5305
 6090TIP3   OH239904   1.182   5.928   7.827 -0.4941 -0.2608  1.1658
 6090TIP3    H139905   1.253   5.893   7.882 -0.7491 -0.5303  1.3257
 6090TIP3    H239906   1.148   5.851   7.781  0.1584  0.0665  0.1167
 6091TIP3   OH239907   7.016   0.336   8.255 -1.0503 -0.3559 -0.2600
 6091TIP3    H139908   7.026   0.407   8.317 -2.6073  0.4368 -0.8579
 6091TIP3    H239909   7.080   0.355   8.186 -1.3187  0.3602 -0.3181
 6092TIP3   OH239910   1.507   3.581   1.879  0.6160  0.3125 -1.0318
 6092TIP3    H139911   1.532   3.579   1.787  1.1925  0.3735 -0.8807
 6092TIP3    H239912   1.525   3.492   1.910  0.4176  0.2910 -0.9782
 6093TIP3   OH239913   0.178   0.219   0.542  0.3141  0.9138 -0.2694
 6093TIP3    H139914   0.106   0.197   0.601 -1.7360  1.0761 -2.5361
 6093TIP3    H239915   0.215   0.134   0.517  0.8704  0.8225  0.8230
 6094TIP3   OH239916   0.384   2.772   2.249 -0.0637 -0.7508  0.7985
 6094TIP3    H139917   0.467   2.804   2.215 -2.3469  1.9587 -3.1519
 6094TIP3    H239918   0.391   2.676   2.244  3.1534 -0.6586  1.8751
 6095TIP3   OH239919   6.939   6.951   7.105  0.3119  0.4896  0.3611
 6095TIP3    H139920   7.005   7.021   7.101  0.0050  0.8059  0.7097
 6095TIP3    H239921   6.955   6.908   7.188  0.1472  0.5009  0.3991
 6096TIP3   OH239922   0.881   2.100   1.081 -0.2022 -0.2684 -0.3182
 6096TIP3    H139923   0.791   2.071   1.097  0.1853 -0.9365  0.7645
 6096TIP3    H239924   0.892   2.178   1.135 -0.9746  1.5239 -2.5862
 6097TIP3   OH239925   3.191   2.070   0.833 -0.1593  0.0453 -0.2430
 6097TIP3    H139926   3.158   2.093   0.746  1.9738 -1.2588 -1.4652
 6097TIP3    H239927   3.276   2.113   0.839  1.0600 -2.2600 -0.0495
 6098TIP3   OH239928   1.432   2.919   0.927  0.3095  0.2568 -0.0325
 6098TIP3    H139929   1.519   2.887   0.905 -0.4366 -0.5581 -2.0702
 6098TIP3    H239930   1.390   2.845   0.971  0.0501 -0.0347 -0.7508
 6099TIP3   OH239931   6.105   5.524   7.655  0.2783 -0.5554 -0.1587
 6099TIP3    H139932   6.116   5.613   7.620 -0.2052  0.0986  1.2926
 6099TIP3    H239933   6.057   5.477   7.586  1.5043 -0.0404 -1.4212
 6100TIP3   OH239934   3.735   3.198   6.799 -0.0699  0.1171  0.4931
 6100TIP3    H139935   3.799   3.161   6.738 -0.5783 -1.3786  0.8332
 6100TIP3    H239936   3.764   3.169   6.885 -0.4000  0.6612  0.7970
 6101TIP3   OH239937   6.463   1.588   7.496  0.1156 -0.3738  0.0006
 6101TIP3    H139938   6.543   1.616   7.450 -0.1441 -0.7716 -0.7184
 6101TIP3    H239939   6.400   1.657   7.478  0.5061  0.3188  1.2047
 6102TIP3   OH239940   3.643   6.305   8.270  0.7133 -0.4934 -0.2036
 6102TIP3    H139941   3.585   6.267   8.336 -0.1166  0.3666 -0.4288
 6102TIP3    H239942   3.618   6.263   8.188  0.0552  0.2642 -0.3884
 6103TIP3   OH239943   0.946   4.937   0.382 -0.1264 -0.5448  0.4671
 6103TIP3    H139944   0.989   4.910   0.301  0.3960  0.6822  0.3117
 6103TIP3    H239945   1.015   4.981   0.432 -0.4157 -1.3433  1.6324
 6104TIP3   OH239946   0.042   6.451   7.852 -0.8165  0.2151  0.4908
 6104TIP3    H139947   0.016   6.422   7.765 -1.0278 -1.9034  1.2003
 6104TIP3    H239948   0.047   6.547   7.845  0.2995  0.0507 -2.1149
 6105TIP3   OH239949   3.722   1.391   7.156 -0.3404  0.0134  0.1634
 6105TIP3    H139950   3.771   1.428   7.230 -1.2953  0.3075  0.6680
 6105TIP3    H239951   3.786   1.385   7.085 -0.0036  2.0857  0.2379
 6106TIP3   OH239952   3.833   3.342   6.030  0.5589 -0.1580 -0.1642
 6106TIP3    H139953   3.742   3.320   6.048  0.3569  0.6479 -0.1653
 6106TIP3    H239954   3.829   3.402   5.956  1.0502  0.2960  0.1667
 6107TIP3   OH239955   5.643   4.092   6.833  0.0450 -0.3784 -0.0406
 6107TIP3    H139956   5.730   4.130   6.817 -0.0440 -0.8067 -1.8231
 6107TIP3    H239957   5.617   4.125   6.919  0.9216  1.7535 -0.5355
 6108TIP3   OH239958   1.235   6.187   0.614 -0.0277  0.2364  0.0176
 6108TIP3    H139959   1.206   6.104   0.651 -3.8395  1.5031  0.2514
 6108TIP3    H239960   1.269   6.236   0.689  2.0548 -0.9240 -0.0907
 6109TIP3   OH239961   5.441   4.114   7.264  0.3711  0.1665  0.0872
 6109TIP3    H139962   5.348   4.097   7.248  0.9455 -1.5567 -1.8055
 6109TIP3    H239963   5.442   4.168   7.343 -2.1490 -1.1853  1.1581
 6110TIP3   OH239964   6.031   4.767   7.574  0.1347  0.0353  0.4602
 6110TIP3    H139965   6.076   4.698   7.622 -2.2891 -1.0173  1.3975
 6110TIP3    H239966   5.978   4.721   7.509 -1.7116  0.8987  1.2591
 6111TIP3   OH239967   1.192   5.268   0.763  0.0555 -0.1700 -0.3532
 6111TIP3    H139968   1.150   5.215   0.830 -0.1084 -0.0161 -0.3310
 6111TIP3    H239969   1.254   5.323   0.810 -0.2484  0.1272 -0.2891
 6112TIP3   OH239970   2.366   1.644   8.246 -0.6404 -0.2369  0.4854
 6112TIP3    H139971   2.282   1.672   8.209 -0.5544 -0.6234 -0.0123
 6112TIP3    H239972   2.360   1.549   8.251 -0.6461 -0.1873  1.4813
 6113TIP3   OH239973   3.186   1.805   6.589 -0.3046 -0.5101 -0.1523
 6113TIP3    H139974   3.164   1.890   6.551  0.4686 -1.0411 -1.8980
 6113TIP3    H239975   3.254   1.825   6.654 -0.3142  0.2344 -0.3586
 6114TIP3   OH239976   5.285   1.367   1.161 -0.7292 -0.0091  0.2344
 6114TIP3    H139977   5.324   1.315   1.231 -0.7873 -0.7365 -0.2658
 6114TIP3    H239978   5.213   1.413   1.203 -1.0512 -0.7944  0.5582
 6115TIP3   OH239979   6.751   1.566   0.524 -0.4334 -0.2567 -0.2278
 6115TIP3    H139980   6.709   1.499   0.577 -1.2136 -0.4937 -1.1197
 6115TIP3    H239981   6.828   1.522   0.487 -0.0621 -0.1818  0.4330
 6116TIP3   OH239982   3.315   4.263   0.597 -0.3046 -0.1326  0.1459
 6116TIP3    H139983   3.346   4.266   0.506  0.5503 -2.6588  0.2720
 6116TIP3    H239984   3.377   4.317   0.645  0.7713 -0.7974 -0.4444
 6117TIP3   OH239985   3.597   3.907   0.422  0.0668 -0.1797  0.6350
 6117TIP3    H139986   3.507   3.900   0.389  0.1873  1.3558 -0.0995
 6117TIP3    H239987   3.590   3.885   0.515 -1.1189  0.1555  0.6450
 6118TIP3   OH239988   6.234   2.938   1.363  0.0574 -0.4019 -0.1039
 6118TIP3    H139989   6.170   2.973   1.426 -0.0836  1.5043 -1.2058
 6118TIP3    H239990   6.181   2.890   1.300 -0.2598  0.5901 -0.6272
 6119TIP3   OH239991   2.706   6.945   6.602  0.4039  0.2022  0.0909
 6119TIP3    H139992   2.623   6.980   6.568  1.5678  1.7264 -1.3623
 6119TIP3    H239993   2.725   6.870   6.545  0.2179  0.0858  0.1810
 6120TIP3   OH239994   2.798   3.222   6.573 -0.0721 -0.2448  0.1570
 6120TIP3    H139995   2.716   3.261   6.541 -1.3149  0.4224  3.6694
 6120TIP3    H239996   2.770   3.161   6.641  2.3362 -0.7901  0.7551
 6121TIP3   OH239997   2.290   0.739   6.537 -0.7257 -0.3533  0.1315
 6121TIP3    H139998   2.350   0.685   6.588 -0.8337 -0.6297 -0.0353
 6121TIP3    H239999   2.236   0.677   6.489 -0.7211 -0.0982 -0.2100
 6122TIP3   OH240000   0.048   6.057   7.052 -1.0391 -0.0956 -0.2675
 6122TIP3    H140001   0.028   6.139   7.008  0.1237  0.5940  0.4300
 6122TIP3    H240002   0.011   5.989   6.996 -1.9355  0.8964 -0.8976
 6123TIP3   OH240003   5.854   3.744   1.081 -0.6511  0.0905  0.4474
 6123TIP3    H140004   5.764   3.749   1.113 -0.9540  0.9939 -0.5024
 6123TIP3    H240005   5.890   3.831   1.094 -0.3259  0.0828 -0.3376
 6124TIP3   OH240006   1.027   2.729   6.880 -0.6379 -0.1571  0.6047
 6124TIP3    H140007   0.991   2.765   6.961  0.2990  0.9283  0.5739
 6124TIP3    H240008   1.122   2.729   6.894 -0.4767 -0.1763 -0.3949
 6125TIP3   OH240009   3.255   1.116   6.537 -0.1277  0.5362 -0.0052
 6125TIP3    H140010   3.283   1.207   6.544  0.2684  0.3445  0.9665
 6125TIP3    H240011   3.294   1.072   6.612 -1.0120 -0.2593  0.0168
 6126TIP3   OH240012   3.601   2.783   0.454  0.0932 -0.0748  0.1197
 6126TIP3    H140013   3.592   2.717   0.385 -0.1089  0.6401 -0.5494
 6126TIP3    H240014   3.528   2.764   0.514  0.1038 -0.5236 -0.0028
 6127TIP3   OH240015   1.595   6.214   0.167 -0.2725 -0.0790 -0.5001
 6127TIP3    H140016   1.561   6.246   0.250  0.3881 -1.5900  0.3873
 6127TIP3    H240017   1.519   6.180   0.121 -0.2000 -2.8868  1.2177
 6128TIP3   OH240018   5.193   6.073   0.265  0.0934  0.6437  0.2123
 6128TIP3    H140019   5.260   6.007   0.280  1.5931  1.7334 -1.2515
 6128TIP3    H240020   5.228   6.153   0.304 -0.2635  1.2624 -0.6816
 6129TIP3   OH240021   6.054   0.592   0.105  0.5478 -0.0066  0.5107
 6129TIP3    H140022   6.080   0.623   0.192  3.0772  0.1450 -0.2225
 6129TIP3    H240023   6.086   0.502   0.101  0.0563 -0.1583 -0.1197
 6130TIP3   OH240024   6.142   0.432   0.738  0.1082  0.3635  0.1978
 6130TIP3    H140025   6.101   0.367   0.682  0.7080  0.5029 -0.4149
 6130TIP3    H240026   6.182   0.382   0.808  0.1264  0.1170  0.0117
 6131TIP3   OH240027   3.555   3.076   0.037 -0.4501  0.6154 -0.4331
 6131TIP3    H140028   3.598   3.115  -0.039 -0.8654  0.4546 -0.7561
 6131TIP3    H240029   3.622   3.075   0.105  0.4408 -0.8238 -1.3050
 6132TIP3   OH240030   5.448   2.123   0.274 -0.0114 -0.4212  0.1701
 6132TIP3    H140031   5.439   2.216   0.252  0.3278 -0.5206 -0.3971
 6132TIP3    H240032   5.523   2.093   0.223 -0.4349 -1.1339 -0.0486
 6133TIP3   OH240033   2.923   5.004   2.258 -0.5793 -0.0796 -0.2154
 6133TIP3    H140034   2.893   5.091   2.234 -0.3573  0.0809  0.0846
 6133TIP3    H240035   3.015   5.016   2.282 -0.1566 -0.6157 -1.4446
 6134TIP3   OH240036   2.556   3.456   2.002 -0.3182  1.1206  0.3404
 6134TIP3    H140037   2.547   3.541   1.958  2.1933  0.5163 -1.6125
 6134TIP3    H240038   2.488   3.401   1.961 -0.7639  1.6945  0.2928
 6135TIP3   OH240039   5.718   7.033   1.541  0.3221  0.2382 -0.0329
 6135TIP3    H140040   5.739   7.090   1.616 -0.4367  3.9301 -2.3702
 6135TIP3    H240041   5.631   6.999   1.561  0.8475 -0.3272  1.4962
 6136TIP3   OH240042   7.009   1.653   8.260 -0.2419 -0.1385  0.1594
 6136TIP3    H140043   7.089   1.601   8.267 -0.2380  0.1290  3.6346
 6136TIP3    H240044   6.949   1.596   8.211  1.4923 -1.0148 -1.0726
 6137TIP3   OH240045   2.745   0.869   1.436  0.0334 -0.1426  0.0138
 6137TIP3    H140046   2.758   0.964   1.442 -0.2035 -0.1597  1.0064
 6137TIP3    H240047   2.685   0.857   1.363 -1.8563  0.6813  1.3526
 6138TIP3   OH240048   1.630   0.845   7.600 -0.5497 -0.6599  0.1729
 6138TIP3    H140049   1.579   0.925   7.585 -0.9442 -1.1903 -1.6234
 6138TIP3    H240050   1.570   0.786   7.645 -0.3620 -0.0872  1.2098
 6139TIP3   OH240051   0.433   3.319   7.338 -0.0460  0.3177  0.6024
 6139TIP3    H140052   0.381   3.302   7.260  0.2286 -0.2068  0.5304
 6139TIP3    H240053   0.401   3.403   7.371 -0.0213  0.6376 -0.1843
 6140TIP3   OH240054   4.329   3.765   0.567 -0.0876 -1.0319  0.0356
 6140TIP3    H140055   4.350   3.722   0.484  0.4781 -1.1920  0.2548
 6140TIP3    H240056   4.382   3.844   0.568 -1.9606  0.3211 -0.8749
 6141TIP3   OH240057   0.469   0.758   0.156 -0.0256 -0.0319 -0.0010
 6141TIP3    H140058   0.382   0.717   0.151  0.8791 -2.0370 -0.1769
 6141TIP3    H240059   0.493   0.775   0.064 -0.3116  0.7454  0.0605
 6142TIP3   OH240060   1.590   1.648   1.586 -0.1167  0.3230  0.6921
 6142TIP3    H140061   1.657   1.704   1.625 -0.6909  1.8671 -0.4731
 6142TIP3    H240062   1.549   1.702   1.519  0.4331 -2.0039 -1.6911
 6143TIP3   OH240063   6.886   3.365   6.709  0.0228  1.0517  0.2100
 6143TIP3    H140064   6.811   3.376   6.768  0.1199  1.4269  0.2605
 6143TIP3    H240065   6.906   3.271   6.715  1.5541  1.4359  2.6360
 6144TIP3   OH240066   2.329   2.988   5.644  0.1812  0.4674  0.0677
 6144TIP3    H140067   2.240   3.020   5.662  1.4673  3.0553  2.6116
 6144TIP3    H240068   2.329   2.899   5.678 -1.9318 -0.3995 -1.8941
 6145TIP3   OH240069   0.941   3.563   1.366 -0.0047  0.9391  0.4900
 6145TIP3    H140070   0.853   3.574   1.329  0.6484  1.6360 -0.9437
 6145TIP3    H240071   0.927   3.551   1.460 -1.6500  0.6537  0.2274
 6146TIP3   OH240072   5.602   5.696   0.618 -0.4719  0.0717 -0.3831
 6146TIP3    H140073   5.653   5.693   0.538  0.1199 -0.5184  0.0105
 6146TIP3    H240074   5.568   5.786   0.622  1.4105  0.8152 -0.1075
 6147TIP3   OH240075   3.037   4.177   0.649 -0.3152 -0.1947  0.0570
 6147TIP3    H140076   2.991   4.181   0.565 -2.9129  0.3061  1.4231
 6147TIP3    H240077   3.120   4.222   0.632 -1.2065  0.8441 -1.9754
 6148TIP3   OH240078   2.271   2.706   0.309 -0.2435 -0.1523 -0.1169
 6148TIP3    H140079   2.297   2.614   0.308 -1.0615 -0.3969 -1.1221
 6148TIP3    H240080   2.187   2.706   0.356 -0.3909  0.0341 -0.3788
 6149TIP3   OH240081   1.006   4.833   0.729 -0.0798 -0.5879  0.6059
 6149TIP3    H140082   1.095   4.867   0.720 -0.0544 -0.5935  0.8180
 6149TIP3    H240083   0.951   4.912   0.729  0.0432 -0.4845  1.8699
 6150TIP3   OH240084   2.876   4.803   6.868 -0.1731 -0.1986 -0.0592
 6150TIP3    H140085   2.913   4.857   6.798 -0.5476 -0.1993 -0.2623
 6150TIP3    H240086   2.889   4.855   6.948  0.4749 -0.3063 -0.0926
 6151TIP3   OH240087   6.168   2.803   1.663 -0.0083  0.1381  0.3477
 6151TIP3    H140088   6.083   2.811   1.619 -0.6605  1.4733  1.7276
 6151TIP3    H240089   6.198   2.894   1.673  0.8224 -0.2236  1.3135
 6152TIP3   OH240090   5.219   3.231   0.194 -0.3016 -0.6735 -0.0827
 6152TIP3    H140091   5.253   3.224   0.105 -1.7446 -1.5077 -0.6108
 6152TIP3    H240092   5.280   3.289   0.239  0.9336 -0.9256 -1.3702
 6153TIP3   OH240093   1.289   1.166   1.122  0.1149  0.9650 -0.0099
 6153TIP3    H140094   1.362   1.116   1.158  2.2211  0.5410 -4.2881
 6153TIP3    H240095   1.303   1.255   1.154  0.4585  0.2364  1.9907
 6154TIP3   OH240096   1.463   0.455   7.626 -0.0204 -0.3148 -1.2742
 6154TIP3    H140097   1.448   0.538   7.672 -0.3272 -0.8614 -0.3595
 6154TIP3    H240098   1.553   0.432   7.648 -0.2201 -0.6585 -0.8009
 6155TIP3   OH240099   2.068   6.627   0.929 -0.0407 -0.6073  0.2704
 6155TIP3    H140100   2.065   6.680   1.009 -2.0015  3.0756 -1.9446
 6155TIP3    H240101   2.148   6.656   0.884  0.1186 -1.3181  0.0850
 6156TIP3   OH240102   5.966   1.017   8.092  0.1119 -0.1604 -0.2495
 6156TIP3    H140103   6.018   1.027   8.171 -0.7567  0.6156  0.2322
 6156TIP3    H240104   5.886   1.066   8.108 -0.0068  0.1804 -1.6800
 6157TIP3   OH240105   1.650   1.964   8.174 -0.2544  0.2240 -0.3378
 6157TIP3    H140106   1.731   1.934   8.133 -0.5003  0.6458 -1.1763
 6157TIP3    H240107   1.676   2.034   8.233 -0.1457  1.4843 -1.8125
 6158TIP3   OH240108   5.364   5.774   6.655  0.0534 -0.2572  0.3461
 6158TIP3    H140109   5.346   5.854   6.704 -0.3310  0.4961 -0.9886
 6158TIP3    H240110   5.360   5.800   6.563 -2.6202 -2.2964 -0.2346
 6159TIP3   OH240111   5.108   3.249   7.304  0.0333 -0.1797  0.1366
 6159TIP3    H140112   5.071   3.222   7.220  0.3876  0.9416 -0.4058
 6159TIP3    H240113   5.037   3.298   7.346 -0.0208 -0.4237  0.3309
 6160TIP3   OH240114   6.950   5.258   1.240 -0.1972  0.3930 -0.1974
 6160TIP3    H140115   6.931   5.166   1.222 -0.4070  0.9636 -3.6489
 6160TIP3    H240116   6.890   5.306   1.182  0.7747  2.6493  0.5807
 6161TIP3   OH240117   6.747   0.533   8.012 -0.3519 -0.5761 -0.0125
 6161TIP3    H140118   6.659   0.547   7.976  0.1017  0.3171 -0.8220
 6161TIP3    H240119   6.736   0.546   8.106 -1.0443 -0.1834 -0.1378
 6162TIP3   OH240120   4.545   0.593   0.025  0.6078  0.4453 -0.1700
 6162TIP3    H140121   4.453   0.603   0.001  0.6673 -0.2518 -0.7069
 6162TIP3    H240122   4.586   0.554  -0.052  1.4161  1.0210 -0.0472
 6163TIP3   OH240123   1.055   2.448   7.726 -0.0717 -0.1919  0.0256
 6163TIP3    H140124   1.045   2.508   7.800 -2.3531 -1.7755  1.1693
 6163TIP3    H240125   1.071   2.363   7.768  0.5297 -0.8186 -1.4191
 6164TIP3   OH240126   3.547   2.011   7.832 -0.0598  0.6846  0.2888
 6164TIP3    H140127   3.542   2.046   7.743  0.8754  0.7434  0.2475
 6164TIP3    H240128   3.483   1.941   7.833  0.6950 -0.0656 -0.7959
 6165TIP3   OH240129   4.904   2.441   6.042  0.1573  0.6235 -0.0035
 6165TIP3    H140130   4.995   2.416   6.026  0.3488  0.7795  0.7731
 6165TIP3    H240131   4.910   2.509   6.109 -0.5721  0.0150  0.7115
 6166TIP3   OH240132   3.947   5.856   1.047  0.3286  0.2911  0.0809
 6166TIP3    H140133   3.927   5.946   1.020 -0.0873 -0.2358 -1.4672
 6166TIP3    H240134   3.862   5.813   1.050  0.7214 -0.8702 -2.4308
 6167TIP3   OH240135   0.783   0.651   6.707  0.1236  0.0206 -0.3246
 6167TIP3    H140136   0.845   0.716   6.674  0.9342  0.0424  1.1726
 6167TIP3    H240137   0.705   0.663   6.652  1.3151  0.1892 -2.0541
 6168TIP3   OH240138   0.001   3.622   0.407  0.7791  0.3513  0.6193
 6168TIP3    H140139  -0.027   3.533   0.389 -1.3658  1.1499 -0.3318
 6168TIP3    H240140   0.022   3.623   0.500 -2.2068 -0.4552  1.3845
 6169TIP3   OH240141   5.652   2.246   8.173 -0.3555 -0.3933 -0.7407
 6169TIP3    H140142   5.561   2.217   8.185 -0.3909  0.2122  0.6776
 6169TIP3    H240143   5.647   2.310   8.102 -1.4978  1.3691  0.8102
 6170TIP3   OH240144   0.506   2.614   0.094  0.6305 -0.2853  0.0525
 6170TIP3    H140145   0.416   2.621   0.063 -0.7197  0.4773  3.6920
 6170TIP3    H240146   0.545   2.700   0.077  0.3182 -0.2481 -0.4878
 6171TIP3   OH240147   2.629   6.899   0.841  0.3196 -0.9409  0.2317
 6171TIP3    H140148   2.541   6.864   0.851 -0.0694  0.1027  0.6570
 6171TIP3    H240149   2.625   6.986   0.882  1.3780 -0.6219 -0.2997
 6172TIP3   OH240150   1.947   3.186   7.256 -0.2671 -0.1953 -0.4799
 6172TIP3    H140151   1.869   3.168   7.205 -0.4885  1.8453 -0.9733
 6172TIP3    H240152   1.956   3.111   7.315 -1.3382 -1.4843 -1.8839
 6173TIP3   OH240153   2.147   3.743   1.560 -0.0548 -0.0290  0.2199
 6173TIP3    H140154   2.073   3.801   1.573 -0.2647 -0.4036  0.7082
 6173TIP3    H240155   2.141   3.679   1.631 -0.2191 -1.0504 -0.6845
 6174TIP3   OH240156   5.398   3.572   0.504  0.5395 -0.0507 -0.1733
 6174TIP3    H140157   5.467   3.604   0.563  0.9945 -1.8246  0.3037
 6174TIP3    H240158   5.321   3.564   0.560  0.6723 -0.6387 -0.0654
 6175TIP3   OH240159   6.950   0.773   0.773 -0.0272  0.4322  0.4274
 6175TIP3    H140160   6.883   0.835   0.744  0.8014  1.1368 -0.0361
 6175TIP3    H240161   6.953   0.784   0.868 -1.0273 -0.0964  0.5323
 6176TIP3   OH240162   0.882   0.821   0.100 -0.2110  0.0791 -0.5369
 6176TIP3    H140163   0.817   0.821   0.170 -0.2416  0.7627 -0.5592
 6176TIP3    H240164   0.883   0.911   0.067 -0.5651 -0.3454 -1.7681
 6177TIP3   OH240165   1.744   7.064   0.697  0.2675 -0.2679  0.1768
 6177TIP3    H140166   1.833   7.076   0.665 -0.0764 -2.0217 -1.6707
 6177TIP3    H240167   1.710   7.152   0.710  0.8699  0.6095 -3.3326
 6178TIP3   OH240168   4.971   3.364   1.373 -0.0536  0.0898  0.3617
 6178TIP3    H140169   5.014   3.446   1.351 -0.4004  0.6691  1.7659
 6178TIP3    H240170   5.007   3.340   1.458  0.3288 -1.4343 -0.1888
 6179TIP3   OH240171   1.426   6.169   1.691 -0.2146 -0.1822 -0.2986
 6179TIP3    H140172   1.408   6.235   1.759  2.5044 -1.2645  1.6512
 6179TIP3    H240173   1.388   6.088   1.725  1.5566 -0.8341  0.2639
 6180TIP3   OH240174   4.881   0.889   6.927 -0.3573  0.4084 -0.1882
 6180TIP3    H140175   4.847   0.979   6.926  0.2790  0.6513 -0.5330
 6180TIP3    H240176   4.964   0.895   6.973  0.1115  0.1612 -0.9723
 6181TIP3   OH240177   1.309   4.685   7.079  0.4637  0.1885  0.3021
 6181TIP3    H140178   1.219   4.658   7.095  0.6274 -1.2989 -0.9940
 6181TIP3    H240179   1.313   4.776   7.108 -1.3847  0.2028  0.5973
 6182TIP3   OH240180   3.456   0.823   0.994  0.2464  0.3606  0.7116
 6182TIP3    H140181   3.370   0.864   1.004  0.4733  1.4022 -1.2700
 6182TIP3    H240182   3.436   0.730   0.981 -0.8687  0.9534 -2.6986
 6183TIP3   OH240183   3.195   3.226   6.806  0.3108  0.0082  0.3571
 6183TIP3    H140184   3.219   3.139   6.838  0.3007 -0.0733  0.1447
 6183TIP3    H240185   3.276   3.277   6.811  0.6324 -0.3704 -0.7122
 6184TIP3   OH240186   6.222   0.040   0.949  0.1423 -0.1106  0.5036
 6184TIP3    H140187   6.305  -0.006   0.935 -0.3840 -1.3428  1.3336
 6184TIP3    H240188   6.165   0.009   0.880  0.5595  1.3131 -0.5390
 6185TIP3   OH240189   2.030   3.274   0.042  0.0871 -0.0210 -0.3600
 6185TIP3    H140190   2.014   3.350   0.099  0.9785 -1.2559  1.6680
 6185TIP3    H240191   2.091   3.306  -0.024  0.4347  1.0668  0.4535
 6186TIP3   OH240192   5.759   4.206   7.419  0.1068 -0.7515 -0.5607
 6186TIP3    H140193   5.704   4.128   7.429 -0.5429 -0.1673  0.4897
 6186TIP3    H240194   5.698   4.278   7.407  0.7221 -0.4934 -2.5527
 6187TIP3   OH240195   1.256   0.109   6.924 -0.7882 -0.0954  0.5725
 6187TIP3    H140196   1.201   0.188   6.919 -0.9021 -0.2023  0.0133
 6187TIP3    H240197   1.321   0.129   6.991  0.2005  1.1345 -0.6827
 6188TIP3   OH240198   5.330   5.425   6.778  0.0728 -0.3024  0.0253
 6188TIP3    H140199   5.334   5.367   6.853 -0.2241 -0.6530 -0.2280
 6188TIP3    H240200   5.238   5.452   6.773 -0.2346 -1.4792 -1.1091
 6189TIP3   OH240201   7.043   3.726   6.369 -0.4232 -0.0209  0.2098
 6189TIP3    H140202   7.029   3.745   6.276 -0.3032 -1.1543 -0.0664
 6189TIP3    H240203   7.019   3.633   6.377  1.8240 -0.5963  0.8160
 6190TIP3   OH240204   2.140   2.247   7.294 -0.5287 -0.4255  0.4121
 6190TIP3    H140205   2.233   2.270   7.295 -1.0781  2.5708 -1.6926
 6190TIP3    H240206   2.128   2.201   7.211 -1.5313  3.3449 -1.7634
 6191TIP3   OH240207   4.448   3.130   7.146  0.0333 -0.2767 -0.0245
 6191TIP3    H140208   4.480   3.212   7.184  0.6460 -0.2168 -0.6653
 6191TIP3    H240209   4.490   3.062   7.198  0.1804 -0.1933 -0.0351
 6192TIP3   OH240210   3.705   3.978   7.485  0.4938  0.8899  0.6299
 6192TIP3    H140211   3.626   3.941   7.444  1.1113 -1.4410  1.3629
 6192TIP3    H240212   3.671   4.029   7.559 -0.4580  2.8043 -1.0237
 6193TIP3   OH240213   1.917   0.960   0.538  0.1095 -0.1195  0.2277
 6193TIP3    H140214   2.000   0.986   0.497 -0.0169 -0.9937 -0.6088
 6193TIP3    H240215   1.880   1.042   0.571  0.0453  0.7069 -1.7324
 6194TIP3   OH240216   0.277   4.283   1.909 -0.4736  0.1956 -0.1491
 6194TIP3    H140217   0.216   4.337   1.960 -1.4355  0.3536 -1.4172
 6194TIP3    H240218   0.348   4.343   1.886 -0.1785  0.1993  0.7110
 6195TIP3   OH240219   2.158   1.109   6.189  0.0254  0.3881  0.2255
 6195TIP3    H140220   2.202   1.028   6.214  0.2272  0.6172  0.6284
 6195TIP3    H240221   2.223   1.178   6.207  0.9550  0.4309 -2.7664
 6196TIP3   OH240222   3.031   4.729   7.622  0.3688 -0.4661 -0.2338
 6196TIP3    H140223   3.024   4.663   7.691  1.7859  0.3317  0.7339
 6196TIP3    H240224   3.125   4.738   7.608  0.2051  1.2158 -0.4494
 6197TIP3   OH240225   6.281   3.031   0.612 -0.3376 -0.0362 -0.1874
 6197TIP3    H140226   6.228   3.028   0.533 -0.2620  1.4907 -0.3225
 6197TIP3    H240227   6.299   3.124   0.626  1.2047 -0.4184  0.5944
 6198TIP3   OH240228   2.982   3.308   6.387 -0.3193  0.2940  0.2131
 6198TIP3    H140229   2.918   3.314   6.458  0.1473  0.1671  0.6560
 6198TIP3    H240230   3.036   3.232   6.410 -0.6364 -0.2088 -0.6805
 6199TIP3   OH240231   4.346   6.799   7.480  0.3374  0.0859  0.5892
 6199TIP3    H140232   4.414   6.781   7.545 -0.1934  0.3423  1.2204
 6199TIP3    H240233   4.282   6.729   7.492  1.0992 -0.9059 -0.8782
 6200TIP3   OH240234   1.125   6.803   7.848  0.4346 -0.6865 -0.0809
 6200TIP3    H140235   1.147   6.857   7.772 -1.5167 -0.4142 -0.5143
 6200TIP3    H240236   1.042   6.839   7.880  0.7956 -1.3103  1.7041
 6201TIP3   OH240237   0.363   6.634   6.700 -0.6961  0.3799 -0.2533
 6201TIP3    H140238   0.307   6.687   6.644 -2.4258 -1.1597 -0.0582
 6201TIP3    H240239   0.452   6.661   6.677 -1.4239  1.3839 -2.1006
 6202TIP3   OH240240   4.556   5.275   6.312  0.0409 -0.0994  0.2543
 6202TIP3    H140241   4.473   5.297   6.354  1.2732  1.3910  2.1267
 6202TIP3    H240242   4.562   5.333   6.237 -0.9406 -0.7854 -0.3676
 6203TIP3   OH240243   6.169   3.941   0.191  0.4814  0.2283 -0.2120
 6203TIP3    H140244   6.239   3.892   0.150  0.5259  0.4249 -0.3709
 6203TIP3    H240245   6.159   4.020   0.137 -0.4841 -0.2323 -0.7289
 6204TIP3   OH240246   5.243   0.209   1.624  0.2502  0.1731 -0.1224
 6204TIP3    H140247   5.247   0.186   1.717 -1.6929  1.3055  0.2896
 6204TIP3    H240248   5.229   0.304   1.623  0.4986  0.2216 -1.5931
 6205TIP3   OH240249   1.520   4.459   7.661  0.4414  0.5313  0.1336
 6205TIP3    H140250   1.545   4.393   7.726  0.6347 -2.9372 -3.1349
 6205TIP3    H240251   1.430   4.481   7.683  0.6043 -0.2726  1.7664
 6206TIP3   OH240252   5.676   2.064   0.118  0.5583 -0.2815 -0.6265
 6206TIP3    H140253   5.683   2.123   0.043 -2.0590  0.2285 -0.5681
 6206TIP3    H240254   5.733   1.990   0.096  1.5415  0.8685 -2.0894
 6207TIP3   OH240255   0.211   1.402   0.738  0.1897 -0.7081 -0.0764
 6207TIP3    H140256   0.174   1.314   0.749 -1.0388 -0.2041 -0.0139
 6207TIP3    H240257   0.158   1.442   0.670  2.2022 -0.7625 -1.7723
 6208TIP3   OH240258   5.339   0.241   1.256  0.1983 -0.1061  0.1530
 6208TIP3    H140259   5.371   0.205   1.339  1.4578 -0.8615 -0.6251
 6208TIP3    H240260   5.264   0.294   1.280  1.6574  1.2338  2.0241
 6209TIP3   OH240261   5.845   1.887   2.127  0.5297  0.0728 -0.3686
 6209TIP3    H140262   5.931   1.851   2.146  0.9709  1.5330  0.5686
 6209TIP3    H240263   5.792   1.866   2.204  0.9624  1.8602  0.4625
 6210TIP3   OH240264   4.711   2.451   7.480  0.2328  0.6687  0.7801
 6210TIP3    H140265   4.717   2.427   7.388 -1.3261 -3.0345  1.4695
 6210TIP3    H240266   4.628   2.497   7.488 -0.8408 -1.1411  0.6098
 6211TIP3   OH240267   3.812   0.254   1.893 -0.6434 -0.6493 -0.1164
 6211TIP3    H140268   3.866   0.313   1.946 -0.2150 -1.1462  0.0096
 6211TIP3    H240269   3.735   0.306   1.870 -1.4337 -0.7704  2.0155
 6212TIP3   OH240270   4.586   5.687   1.860 -1.2552 -0.1472  0.0105
 6212TIP3    H140271   4.579   5.707   1.767  0.8933  2.0344  0.2199
 6212TIP3    H240272   4.619   5.597   1.863 -1.7018 -0.3770 -1.2995
 6213TIP3   OH240273   4.113   5.516   1.519  0.4207 -0.0769  0.3542
 6213TIP3    H140274   4.034   5.543   1.472  0.3688 -1.8957 -0.6944
 6213TIP3    H240275   4.166   5.596   1.525 -0.7803  0.8012 -0.3630
 6214TIP3   OH240276   0.731   1.073   2.391  0.3911 -0.5231  0.0911
 6214TIP3    H140277   0.714   1.157   2.435  1.4739 -0.8970  1.3083
 6214TIP3    H240278   0.655   1.019   2.413  0.2897 -0.2645  0.3933
 6215TIP3   OH240279   4.647   5.467   5.906  0.1978  0.6413 -0.4852
 6215TIP3    H140280   4.597   5.475   5.987 -0.0691 -1.1216 -0.4368
 6215TIP3    H240281   4.661   5.557   5.877 -0.5177  1.2631  1.0140
 6216TIP3   OH240282   3.689   6.493   0.244  0.2423  0.4227 -0.9683
 6216TIP3    H140283   3.625   6.429   0.212 -0.7826  1.0571 -0.2541
 6216TIP3    H240284   3.714   6.462   0.331 -0.8719  1.3818 -0.2771
 6217TIP3   OH240285   0.074   2.100   7.424 -0.7857  0.5135 -0.6140
 6217TIP3    H140286   0.142   2.144   7.374 -0.4075  1.0530  0.3629
 6217TIP3    H240287   0.067   2.149   7.506  0.0106 -1.5090  0.7504
 6218TIP3   OH240288   6.892   0.866   7.340  0.0241  0.1796  0.1546
 6218TIP3    H140289   6.868   0.843   7.430 -3.0304 -0.2461 -0.6531
 6218TIP3    H240290   6.940   0.789   7.308 -1.3665 -0.9062  0.5832
 6219TIP3   OH240291   5.403   2.439   1.733  0.5192 -0.2678  0.0462
 6219TIP3    H140292   5.497   2.438   1.751  0.3371 -2.2177  1.0466
 6219TIP3    H240293   5.370   2.357   1.769 -1.7309  0.7565  0.4769
 6220TIP3   OH240294   0.242   3.559   1.540  0.1060 -0.3486  0.1475
 6220TIP3    H140295   0.218   3.636   1.591 -0.8326 -0.9053  0.5606
 6220TIP3    H240296   0.164   3.503   1.542  0.4295 -0.8735 -0.9707
 6221TIP3   OH240297   6.099   1.065   1.273  0.3676 -0.2765 -0.2247
 6221TIP3    H140298   6.062   0.984   1.308 -0.4592 -0.8429 -2.2442
 6221TIP3    H240299   6.041   1.134   1.306  1.1575 -0.4417  1.6203
 6222TIP3   OH240300   0.111   3.962   0.196  0.2202  0.3111 -0.1438
 6222TIP3    H140301   0.024   3.970   0.158  1.0544  2.7360 -1.7381
 6222TIP3    H240302   0.117   4.034   0.259  0.4737 -0.9609  1.3614
 6223TIP3   OH240303   1.187   0.674   0.958  0.1613  0.5895 -0.3912
 6223TIP3    H140304   1.239   0.680   1.038  1.3234 -0.4953 -1.0353
 6223TIP3    H240305   1.154   0.763   0.946 -2.0206  0.3278  2.5154
 6224TIP3   OH240306   2.935   6.026   7.220 -0.3133  1.0037  0.7018
 6224TIP3    H140307   2.980   5.958   7.169 -0.5632  0.0937  1.6645
 6224TIP3    H240308   2.863   5.980   7.263  1.1946  1.1999  3.6666
 6225TIP3   OH240309   2.557   7.055   7.614  0.4378 -0.3129 -0.2492
 6225TIP3    H140310   2.528   7.122   7.675  2.8701  0.1015  0.5667
 6225TIP3    H240311   2.478   7.029   7.567 -0.8405  2.0493  0.4429
 6226TIP3   OH240312   2.082   6.981   0.712 -0.6694  0.4692  0.7377
 6226TIP3    H140313   2.166   6.945   0.739 -1.4150 -3.7544 -1.6852
 6226TIP3    H240314   2.103   7.058   0.659  1.6087 -0.1733  0.6373
 6227TIP3   OH240315   2.613   2.452   7.650 -0.2500 -0.1606  0.2767
 6227TIP3    H140316   2.649   2.534   7.616 -2.5329  0.5424 -0.5782
 6227TIP3    H240317   2.592   2.401   7.573  2.1045 -2.0808  0.7969
 6228TIP3   OH240318   6.915   2.709   0.304 -0.2204  0.3002 -0.2299
 6228TIP3    H140319   6.953   2.727   0.218 -0.4851  0.2079 -0.3641
 6228TIP3    H240320   6.855   2.636   0.289 -0.5751  0.5542 -0.0436
 6229TIP3   OH240321   6.293   2.900   0.083  0.2810 -0.1075 -0.4232
 6229TIP3    H140322   6.338   2.899   0.167  1.1058  0.5453 -0.8363
 6229TIP3    H240323   6.243   2.819   0.081 -0.8497  0.5202  1.2665
 6230TIP3   OH240324   0.314   5.753   0.507  0.5816  0.0317 -0.0367
 6230TIP3    H140325   0.313   5.682   0.571  0.4376  0.5331  0.5217
 6230TIP3    H240326   0.248   5.814   0.538 -0.5554 -0.4083 -1.4655
 6231TIP3   OH240327   3.620   5.857   6.566  0.2620  0.1114  0.2985
 6231TIP3    H140328   3.663   5.855   6.480  0.8350  2.0485  0.4969
 6231TIP3    H240329   3.528   5.840   6.547  0.5430 -0.5584 -0.5566
 6232TIP3   OH240330   2.184   3.542   0.954  0.1556 -0.2099  0.6230
 6232TIP3    H140331   2.157   3.575   0.869 -0.9588 -0.9251  0.6840
 6232TIP3    H240332   2.237   3.612   0.991  0.2807  0.2872 -0.4691
 6233TIP3   OH240333   3.415   0.065   0.604  0.1368 -0.4585 -0.3010
 6233TIP3    H140334   3.327   0.066   0.567 -0.5310 -0.8440  1.1755
 6233TIP3    H240335   3.470   0.025   0.536 -0.7881 -0.0771 -1.2959
 6234TIP3   OH240336   1.214   5.513   6.576 -0.0380 -0.0565 -0.4939
 6234TIP3    H140337   1.301   5.475   6.583 -0.2481 -0.3869  0.4105
 6234TIP3    H240338   1.155   5.437   6.570 -0.6038 -0.0315  2.8202
 6235TIP3   OH240339   6.412   0.057   1.530  0.2812 -0.1154  0.2311
 6235TIP3    H140340   6.372   0.051   1.617  0.2824  0.3795  0.2721
 6235TIP3    H240341   6.504   0.076   1.547  0.0595  1.1891  0.1303
 6236TIP3   OH240342   1.257   6.778   8.261 -0.0146 -0.2666  0.1350
 6236TIP3    H140343   1.296   6.814   8.341  1.6275 -1.1048 -0.2647
 6236TIP3    H240344   1.251   6.853   8.202  1.0492 -0.1328  0.1880
 6237TIP3   OH240345   5.528   4.487   1.467  0.0518  0.4282  0.3853
 6237TIP3    H140346   5.558   4.576   1.485 -0.8071  0.6705  0.7031
 6237TIP3    H240347   5.497   4.456   1.552 -2.9395  1.1370 -0.3275
 6238TIP3   OH240348   2.532   0.250   1.418  0.4325  0.3915  0.5147
 6238TIP3    H140349   2.559   0.331   1.462 -1.1409  0.1315  2.0666
 6238TIP3    H240350   2.538   0.271   1.325  1.8415  1.6680  0.8507
 6239TIP3   OH240351   1.949   3.977   1.241 -0.6915 -0.3624  0.4537
 6239TIP3    H140352   1.864   4.007   1.273 -0.7072 -0.2704  0.3261
 6239TIP3    H240353   1.988   3.932   1.316 -0.3760  0.5689  0.8634
 6240TIP3   OH240354   1.073   6.267   6.039  0.0037  0.8238  0.5345
 6240TIP3    H140355   1.017   6.198   6.004  1.8347 -1.0350  1.1050
 6240TIP3    H240356   1.078   6.332   5.969 -2.3466  0.8075  0.2627
 6241TIP3   OH240357   6.051   2.077   1.678 -0.5375  0.3299  0.0179
 6241TIP3    H140358   6.076   2.032   1.758 -1.8183 -0.4292  0.0208
 6241TIP3    H240359   6.012   2.160   1.707 -2.3879 -0.5892  0.3209
 6242TIP3   OH240360   0.287   5.143   8.228  0.3125 -0.1415  0.0499
 6242TIP3    H140361   0.381   5.157   8.233  0.3259 -0.1666 -0.1205
 6242TIP3    H240362   0.272   5.060   8.274  0.2551  0.3386  0.9102
 6243TIP3   OH240363   6.185   6.138   2.286 -0.4604  0.3095  0.6225
 6243TIP3    H140364   6.095   6.135   2.317 -1.2739 -0.0806 -1.5885
 6243TIP3    H240365   6.228   6.203   2.341 -2.5310  1.6941  0.6886
 6244TIP3   OH240366   6.702   5.165   0.362 -0.2458 -0.6323  0.4791
 6244TIP3    H140367   6.776   5.222   0.341 -0.8306  0.3582  1.0487
 6244TIP3    H240368   6.737   5.076   0.351  1.7905 -0.2845  3.0807
 6245TIP3   OH240369   4.495   0.164   8.151 -0.0233 -0.0415 -0.1621
 6245TIP3    H140370   4.465   0.095   8.092  0.4446 -0.7394  0.3852
 6245TIP3    H240371   4.496   0.243   8.097  1.1592 -0.8005 -1.3402
 6246TIP3   OH240372   6.928   4.623   7.255 -0.2648 -0.5516 -0.8330
 6246TIP3    H140373   6.857   4.621   7.191 -3.3478  0.7758  2.1756
 6246TIP3    H240374   6.896   4.568   7.327  0.7637  1.6979  1.5044
 6247TIP3   OH240375   2.422   4.677   1.363 -0.1097 -0.1964  0.5802
 6247TIP3    H140376   2.427   4.723   1.279 -0.5248 -1.3657 -0.0951
 6247TIP3    H240377   2.340   4.707   1.402  0.1109  0.3907  0.6199
 6248TIP3   OH240378   6.436   3.986   7.825 -0.0301  0.1673  0.1304
 6248TIP3    H140379   6.427   3.981   7.920  1.4860  0.5490  0.3248
 6248TIP3    H240380   6.506   3.924   7.804  0.2611  0.7376 -0.6253
 6249TIP3   OH240381   0.510   2.953   0.239 -0.0581 -0.7191  0.0677
 6249TIP3    H140382   0.426   2.988   0.209 -0.4162 -0.9774  0.7522
 6249TIP3    H240383   0.569   2.968   0.165 -0.7806 -0.8240 -0.5534
 6250TIP3   OH240384   2.247   2.377   1.162  0.3607  0.0726  0.2643
 6250TIP3    H140385   2.154   2.357   1.170 -0.0763  1.9095  0.2864
 6250TIP3    H240386   2.249   2.467   1.129  2.0653  1.4475  3.6429
 6251TIP3   OH240387   1.595   6.983   1.301 -0.2287 -0.3571  0.1939
 6251TIP3    H140388   1.616   6.969   1.209  0.8722 -1.5516  0.5895
 6251TIP3    H240389   1.551   7.068   1.304  0.5402  0.1155 -1.3134
 6252TIP3   OH240390   3.522   1.060   6.931 -0.4856 -0.0496  0.1735
 6252TIP3    H140391   3.538   0.970   6.961 -2.1626 -0.4487 -0.0558
 6252TIP3    H240392   3.473   1.050   6.850 -1.6330  1.0849  0.6994
 6253TIP3   OH240393   2.136   2.833   7.041 -0.5260 -0.8727  0.1191
 6253TIP3    H140394   2.118   2.740   7.052 -2.9623 -0.3288  1.1872
 6253TIP3    H240395   2.120   2.850   6.948  1.8346 -1.8184 -0.5429
 6254TIP3   OH240396   1.092   6.225   0.399 -0.1683  0.2280 -0.0648
 6254TIP3    H140397   1.039   6.305   0.398  0.2539  0.5109 -0.4156
 6254TIP3    H240398   1.142   6.229   0.480  0.4925  0.7573 -0.4860
 6255TIP3   OH240399   1.117   1.562   6.590  0.0373  0.1417 -1.2243
 6255TIP3    H140400   1.077   1.483   6.628 -2.3216  1.1443 -1.4578
 6255TIP3    H240401   1.131   1.539   6.498  0.2555 -0.3313 -1.0748
 6256TIP3   OH240402   3.414   1.486   2.008 -0.1580 -0.0831 -0.5424
 6256TIP3    H140403   3.495   1.519   1.969 -1.0410  1.2738 -1.3180
 6256TIP3    H240404   3.434   1.477   2.101  0.5995  1.1608 -0.5672
 6257TIP3   OH240405   4.884   3.205   0.446  0.1646  0.9855 -0.1699
 6257TIP3    H140406   4.813   3.215   0.382  0.6740 -0.9846 -1.1371
 6257TIP3    H240407   4.839   3.196   0.530 -0.7330  0.2353 -0.7099
 6258TIP3   OH240408   3.941   0.998   8.095  0.5386 -0.0478 -0.1233
 6258TIP3    H140409   4.013   1.013   8.155 -1.3984 -0.4657  2.4696
 6258TIP3    H240410   3.877   1.066   8.115 -1.4817 -1.9927  0.5675
 6259TIP3   OH240411   2.330   4.069   7.474  0.0397  0.0261 -0.1277
 6259TIP3    H140412   2.259   4.133   7.466 -0.3655 -0.4437 -0.4017
 6259TIP3    H240413   2.382   4.081   7.394  0.0881  0.1605 -0.0759
 6260TIP3   OH240414   4.315   5.961   8.123 -0.4744 -0.0596 -0.0169
 6260TIP3    H140415   4.396   5.916   8.097 -0.9796 -1.1071  0.1569
 6260TIP3    H240416   4.256   5.949   8.049 -1.0746 -0.8852  0.5729
 6261TIP3   OH240417   0.125   3.248   7.421  0.2458  0.5766  0.7682
 6261TIP3    H140418   0.052   3.189   7.401  1.0510  0.3449 -1.9172
 6261TIP3    H240419   0.106   3.327   7.371  2.8866 -0.3767 -2.1287
 6262TIP3   OH240420   3.200   4.483   8.099  0.1459 -0.2595  0.2069
 6262TIP3    H140421   3.281   4.442   8.069  0.2549  0.3079 -0.2806
 6262TIP3    H240422   3.133   4.417   8.084  0.6459 -1.1320  1.5469
 6263TIP3   OH240423   6.858   5.295   7.731  0.2561 -0.3098 -0.1075
 6263TIP3    H140424   6.781   5.239   7.718  0.8331 -1.5688  1.5318
 6263TIP3    H240425   6.833   5.354   7.802  0.6890 -0.5066  0.2103
 6264TIP3   OH240426   4.928   3.919   5.637  0.2888 -0.2187 -0.3404
 6264TIP3    H140427   4.911   3.951   5.548  0.0162  0.0093 -0.2068
 6264TIP3    H240428   4.842   3.906   5.675  0.2991  2.8143  1.0230
 6265TIP3   OH240429   6.624   5.229   7.413 -0.8092  0.1012  0.4752
 6265TIP3    H140430   6.615   5.299   7.348 -2.2241 -0.7870 -0.3481
 6265TIP3    H240431   6.547   5.173   7.398  0.6690 -2.0708  0.5772
 6266TIP3   OH240432   4.427   0.920   0.008 -0.7934  0.3386  0.2844
 6266TIP3    H140433   4.433   0.872  -0.074 -2.3162  0.1430  0.2564
 6266TIP3    H240434   4.516   0.921   0.042  0.4990  2.8393 -2.6860
 6267TIP3   OH240435   2.549   1.642   6.985 -0.1996 -0.7540  0.0751
 6267TIP3    H140436   2.645   1.649   6.984 -0.2731  0.5418 -0.6230
 6267TIP3    H240437   2.531   1.559   7.028  1.2292 -0.7384  0.7540
 6268TIP3   OH240438   0.819   1.672   6.852 -0.4635 -0.7785 -0.2028
 6268TIP3    H140439   0.776   1.589   6.832 -0.9940 -0.7495  0.7479
 6268TIP3    H240440   0.776   1.736   6.795 -4.1677 -0.0922  2.9057
 6269TIP3   OH240441   5.622   5.130   7.132  0.3649  0.4148  0.1973
 6269TIP3    H140442   5.564   5.149   7.206  0.7709 -0.2240  0.6878
 6269TIP3    H240443   5.627   5.213   7.085  0.7459  1.0748  1.3483
 6270TIP3   OH240444   3.438   2.236   0.365  0.0617 -0.2149 -0.1043
 6270TIP3    H140445   3.351   2.263   0.337 -0.1358 -0.1368  0.5890
 6270TIP3    H240446   3.449   2.274   0.452  0.7075 -0.3918 -0.1008
 6271TIP3   OH240447   3.689   5.185   7.517 -0.3206  0.2322 -0.8079
 6271TIP3    H140448   3.618   5.173   7.454  0.2349  0.1151 -1.4203
 6271TIP3    H240449   3.659   5.257   7.574 -1.2458 -0.3127 -0.5916
 6272TIP3   OH240450   5.536   4.392   7.370 -0.2178 -0.0756 -0.1504
 6272TIP3    H140451   5.566   4.404   7.280  0.4759  3.4581  0.4145
 6272TIP3    H240452   5.445   4.422   7.369 -0.6737 -1.3803  0.1010
 6273TIP3   OH240453   5.067   3.769   5.838 -0.0259  0.2326  0.1915
 6273TIP3    H140454   5.018   3.811   5.767  0.7779  2.9816  1.1589
 6273TIP3    H240455   5.093   3.841   5.895  0.6051 -1.7386  2.5244
 6274TIP3   OH240456   5.249   2.956   0.483  0.1331  0.0869  0.1207
 6274TIP3    H140457   5.205   2.975   0.401 -0.6979 -0.7098  0.3610
 6274TIP3    H240458   5.187   2.902   0.532  1.0168 -0.3059  0.8503
 6275TIP3   OH240459   4.062   5.255   1.499 -0.3386 -0.3633 -0.0105
 6275TIP3    H140460   4.066   5.221   1.588 -0.9154  2.4761  1.2176
 6275TIP3    H240461   4.089   5.347   1.507  0.7488 -0.3063 -2.9768
 6276TIP3   OH240462   3.880   3.426   6.430  0.4008 -0.0823 -0.4301
 6276TIP3    H140463   3.814   3.357   6.435  0.5300 -0.1280  0.6825
 6276TIP3    H240464   3.830   3.504   6.404  0.0789 -0.3466 -0.6176
 6277TIP3   OH240465   0.543   3.090   7.441  0.1734  0.3259  0.1617
 6277TIP3    H140466   0.621   3.085   7.495 -0.7081  0.9893  1.5531
 6277TIP3    H240467   0.527   3.184   7.430 -0.6627  0.2089  0.2749
 6278TIP3   OH240468   0.021   1.962   0.864  0.6574 -0.1496  0.2791
 6278TIP3    H140469   0.012   2.008   0.947 -1.2237  1.0157 -0.4932
 6278TIP3    H240470  -0.020   2.020   0.800 -0.6182 -2.2854 -0.9659
 6279TIP3   OH240471   3.573   2.567   0.309 -0.5280 -0.1870 -0.6168
 6279TIP3    H140472   3.582   2.488   0.256 -2.2713 -0.8448 -0.0182
 6279TIP3    H240473   3.504   2.617   0.266  0.3096  0.8522 -0.7818
 6280TIP3   OH240474   2.436   6.033   7.309  0.0575 -0.0514  0.3531
 6280TIP3    H140475   2.376   6.025   7.235  1.5818  0.8190 -1.0312
 6280TIP3    H240476   2.443   6.128   7.323 -0.3245 -0.2058  1.7423
 6281TIP3   OH240477   3.624   1.805   7.578  0.1648 -0.2441 -0.4583
 6281TIP3    H140478   3.675   1.865   7.524  0.9525 -0.4548  0.0342
 6281TIP3    H240479   3.613   1.727   7.523  0.1919 -0.1190 -0.6432
 6282TIP3   OH240480   3.965   1.321   6.912  0.5588 -0.0293 -0.2934
 6282TIP3    H140481   3.871   1.305   6.917  0.3238  1.4359  0.5326
 6282TIP3    H240482   3.972   1.412   6.883  1.7025  0.1622  0.5345
 6283TIP3   OH240483   3.587   6.535   6.586 -0.3094 -0.3913  0.0176
 6283TIP3    H140484   3.500   6.498   6.572  0.3445 -1.8556 -0.2978
 6283TIP3    H240485   3.623   6.543   6.497  0.5527 -1.5155  0.2462
 6284TIP3   OH240486   6.136   6.110   1.150  0.2078  0.2611  0.7570
 6284TIP3    H140487   6.113   6.203   1.158 -0.2133  0.2036  0.2688
 6284TIP3    H240488   6.201   6.107   1.079 -1.9269 -0.1285 -1.3024
 6285TIP3   OH240489   4.569   3.021   2.072 -0.3729 -0.2092  0.1349
 6285TIP3    H140490   4.503   2.999   2.138 -0.4717 -0.9350 -0.1891
 6285TIP3    H240491   4.555   2.957   2.002 -0.2719  0.5526 -0.5932
 6286TIP3   OH240492   6.232   6.017   7.820 -0.1514  0.1400 -0.2913
 6286TIP3    H140493   6.229   5.941   7.761 -2.0213 -0.3258  0.3354
 6286TIP3    H240494   6.221   6.092   7.762  0.2305 -0.1659 -0.7680
 6287TIP3   OH240495   0.614   2.541   7.847  0.1947  0.0439 -0.0563
 6287TIP3    H140496   0.674   2.555   7.773 -1.3857  0.3800 -1.3153
 6287TIP3    H240497   0.669   2.501   7.914  1.7867  0.1207 -1.2446
 6288TIP3   OH240498   0.360   1.931   0.320 -0.2461 -0.5711 -0.2615
 6288TIP3    H140499   0.287   1.979   0.359  0.3902  0.9922 -0.9232
 6288TIP3    H240500   0.395   1.878   0.392 -0.7930  0.1713  0.5750
 6289TIP3   OH240501   5.594   1.329   7.759  0.3350  0.0165 -0.5105
 6289TIP3    H140502   5.544   1.328   7.840  0.7858 -0.7173 -0.2274
 6289TIP3    H240503   5.531   1.307   7.691 -0.6080  3.0267 -0.7345
 6290TIP3   OH240504   3.927   0.045   0.531 -0.0139  0.5719 -0.3823
 6290TIP3    H140505   3.999   0.029   0.592 -0.4029  0.9793  0.1938
 6290TIP3    H240506   3.908  -0.040   0.492  2.6006  0.8624 -2.6263
 6291TIP3   OH240507   4.245   6.303   0.474 -0.7622 -0.8193  0.2439
 6291TIP3    H140508   4.156   6.283   0.444 -0.7578 -1.0097  0.3598
 6291TIP3    H240509   4.302   6.252   0.417 -0.5267  1.7822 -2.0731
 6292TIP3   OH240510   1.095   2.609   7.448 -0.7484  0.0845 -0.1157
 6292TIP3    H140511   1.062   2.601   7.537 -1.4431  0.4113 -0.3285
 6292TIP3    H240512   1.083   2.523   7.409 -1.7648  0.2896 -0.3088
 6293TIP3   OH240513   1.709   5.569   0.681  0.5401 -0.2932 -0.5317
 6293TIP3    H140514   1.660   5.498   0.638 -0.4615 -0.8296  1.3623
 6293TIP3    H240515   1.794   5.530   0.701  0.5801 -0.4251 -0.9480
 6294TIP3   OH240516   4.464   5.453   8.057 -0.2235 -0.2669 -0.5027
 6294TIP3    H140517   4.554   5.460   8.027  0.4289 -1.3171  1.0769
 6294TIP3    H240518   4.425   5.386   8.001  0.8817 -1.9786  0.6808
 6295TIP3   OH240519   5.196   3.494   7.408 -0.9074  0.2411 -0.4300
 6295TIP3    H140520   5.214   3.481   7.501 -1.9721  0.7731 -0.1295
 6295TIP3    H240521   5.202   3.407   7.370  2.7708  0.3814 -0.5251
 6296TIP3   OH240522   7.049   6.752   0.726 -0.0022  0.1117 -0.3902
 6296TIP3    H140523   7.099   6.816   0.777 -0.4452 -1.7474  2.6133
 6296TIP3    H240524   6.998   6.704   0.791 -2.1875 -1.1444 -2.8633
 6297TIP3   OH240525   5.757   5.132   1.034 -0.3354  0.0537  0.2584
 6297TIP3    H140526   5.671   5.170   1.015 -0.4169  0.4332  1.2877
 6297TIP3    H240527   5.788   5.182   1.110  0.4035 -0.6805  0.4490
 6298TIP3   OH240528   0.873   1.930   0.246  1.2360 -0.4271 -0.5505
 6298TIP3    H140529   0.917   1.882   0.176 -1.7764 -0.7442 -2.4093
 6298TIP3    H240530   0.797   1.877   0.267  1.0082  0.6463  1.6606
 6299TIP3   OH240531   3.448   5.633   0.189  0.1820 -0.1964  0.4245
 6299TIP3    H140532   3.483   5.547   0.166  1.1432 -0.4929  2.7208
 6299TIP3    H240533   3.355   5.627   0.172  0.5925 -0.7880 -1.9152
 6300TIP3   OH240534   4.289   0.353   1.030  0.4596  0.2305 -0.4058
 6300TIP3    H140535   4.286   0.257   1.033  1.5963  0.1691  3.5081
 6300TIP3    H240536   4.209   0.381   1.074  0.9503  1.0476 -0.0174
 6301TIP3   OH240537   3.762   0.197   8.260 -0.6901  0.4888 -0.4787
 6301TIP3    H140538   3.678   0.157   8.283 -1.5782  1.9657 -0.9871
 6301TIP3    H240539   3.781   0.256   8.333 -0.0004  0.0320 -0.2873
 6302TIP3   OH240540   0.804   5.652   7.180  0.1253 -0.0903 -0.0061
 6302TIP3    H140541   0.746   5.577   7.173  0.1955 -0.1492  0.0506
 6302TIP3    H240542   0.772   5.713   7.113 -1.4793  0.8867  1.5786
 6303TIP3   OH240543   3.140   6.592   1.497 -0.1479  0.6975 -0.0448
 6303TIP3    H140544   3.157   6.551   1.412  0.9439  0.2595  0.3710
 6303TIP3    H240545   3.128   6.518   1.557  0.9982  0.9824  0.5518
 6304TIP3   OH240546   0.240   1.372   7.190  0.6014 -0.5649 -0.2413
 6304TIP3    H140547   0.173   1.435   7.164  0.7422 -0.6088 -0.7123
 6304TIP3    H240548   0.193   1.290   7.202  0.7612 -0.9001 -1.8110
 6305TIP3   OH240549   4.191   0.374   0.625  0.2850 -0.2306 -0.2475
 6305TIP3    H140550   4.114   0.398   0.678 -0.8069 -2.1990 -0.8374
 6305TIP3    H240551   4.264   0.418   0.667 -1.0513  1.1405  0.7649
 6306TIP3   OH240552   0.434   6.349   0.831 -0.5519 -0.1797  0.4163
 6306TIP3    H140553   0.514   6.373   0.877 -0.2066  0.0823 -0.3086
 6306TIP3    H240554   0.444   6.386   0.743 -2.3383  1.6626  0.9015
 6307TIP3   OH240555   5.220   4.211   6.610 -0.2431  0.0529 -0.4239
 6307TIP3    H140556   5.233   4.299   6.646 -0.7900  0.1223 -0.3900
 6307TIP3    H240557   5.125   4.196   6.615 -0.0963 -0.7852  0.1600
 6308TIP3   OH240558   2.442   1.915   0.366  0.6708  0.4432  0.2579
 6308TIP3    H140559   2.377   1.909   0.435  0.9989 -0.3196  0.5092
 6308TIP3    H240560   2.495   1.992   0.389  0.5150  0.4422  0.6193
 6309TIP3   OH240561   2.293   1.635   2.369 -0.3187  0.5491  0.0411
 6309TIP3    H140562   2.209   1.654   2.328  0.3248 -0.2771 -1.7789
 6309TIP3    H240563   2.290   1.541   2.388  0.8711  0.0306 -1.9298
 6310TIP3   OH240564   6.014   2.513   0.472 -0.3308 -0.0677 -0.1985
 6310TIP3    H140565   5.923   2.540   0.481 -0.3799  0.3325 -1.6393
 6310TIP3    H240566   6.015   2.458   0.394  0.8152  0.6795 -0.7361
 6311TIP3   OH240567   2.716   1.798   7.216 -0.3295  0.2179 -0.7449
 6311TIP3    H140568   2.733   1.889   7.191  0.0390  0.1083 -0.8872
 6311TIP3    H240569   2.789   1.749   7.179 -0.4500 -0.1162 -0.5366
 6312TIP3   OH240570   5.492   2.274   6.713  0.3065 -0.3102  0.2286
 6312TIP3    H140571   5.498   2.218   6.790 -1.6520  1.1038  1.5297
 6312TIP3    H240572   5.443   2.223   6.650 -1.2121 -0.2537  1.2955
 6313TIP3   OH240573   6.371   0.656   7.366  0.1410  0.5363 -0.0080
 6313TIP3    H140574   6.461   0.685   7.381  0.1215  0.7338 -0.2677
 6313TIP3    H240575   6.317   0.728   7.399  0.0656  0.1609  0.7033
 6314TIP3   OH240576   0.295   1.492   7.914  0.3472 -0.3164 -0.1220
 6314TIP3    H140577   0.361   1.557   7.890 -0.4501  0.6912  0.3896
 6314TIP3    H240578   0.214   1.524   7.876 -0.6756  0.5666  2.5916
 6315TIP3   OH240579   0.339   3.185   6.686  0.1074  0.0579  0.1056
 6315TIP3    H140580   0.328   3.273   6.722  0.0569 -0.1347  0.5706
 6315TIP3    H240581   0.430   3.181   6.659  0.3142  0.0004  0.7880
 6316TIP3   OH240582   2.918   0.420   6.196 -0.4773 -0.0073  0.0954
 6316TIP3    H140583   2.960   0.335   6.182 -1.0887 -0.2796 -0.1132
 6316TIP3    H240584   2.974   0.483   6.151  0.9049 -0.0583  1.6409
 6317TIP3   OH240585   4.179   0.684   7.748  0.6361  0.1753  0.2119
 6317TIP3    H140586   4.104   0.625   7.740  0.6777  0.0818  0.4930
 6317TIP3    H240587   4.144   0.762   7.790  0.7862 -0.0456  0.7550
 6318TIP3   OH240588   4.629   3.863   6.758 -0.3248 -0.9207 -0.6516
 6318TIP3    H140589   4.615   3.768   6.755 -0.1356 -1.0544  1.3810
 6318TIP3    H240590   4.724   3.873   6.746 -0.1255 -1.1356  0.5561
 6319TIP3   OH240591   5.675   0.269   8.066 -0.0079  0.4421 -0.8355
 6319TIP3    H140592   5.589   0.227   8.064 -0.7458  1.4699  2.4418
 6319TIP3    H240593   5.728   0.213   8.123  0.7381  1.0369 -0.9225
 6320TIP3   OH240594   2.336   4.460   7.210 -0.9214  0.3112  0.1729
 6320TIP3    H140595   2.383   4.507   7.278 -0.8837 -1.7122  1.6234
 6320TIP3    H240596   2.403   4.440   7.144 -0.2550 -0.4529  1.0660
 6321TIP3   OH240597   4.237   5.224   0.796  0.8453 -0.2764  0.1844
 6321TIP3    H140598   4.253   5.212   0.890 -0.4811 -1.6265  0.2811
 6321TIP3    H240599   4.303   5.288   0.769  0.7266  0.8105  2.1961
 6322TIP3   OH240600   4.508   5.436   0.429  0.7555 -0.2253  0.0393
 6322TIP3    H140601   4.486   5.440   0.336 -1.4414 -1.3200  0.4443
 6322TIP3    H240602   4.448   5.371   0.465  0.5600  1.1836  2.4927
 6323TIP3   OH240603   2.754   4.758   7.243 -0.2120  0.2480  0.4200
 6323TIP3    H140604   2.799   4.829   7.290 -0.7267  0.5604  0.4495
 6323TIP3    H240605   2.711   4.802   7.170 -0.1397 -0.1089  0.1653
 6324TIP3   OH240606   2.498   4.353   7.549  0.1198  0.5354 -0.3739
 6324TIP3    H140607   2.476   4.260   7.548 -1.2552  0.8196  0.7151
 6324TIP3    H240608   2.522   4.372   7.458 -2.2092 -0.3104 -1.2576
 6325TIP3   OH240609   4.743   5.126   6.470  0.0364  0.3605 -0.0226
 6325TIP3    H140610   4.674   5.143   6.406  0.1418 -1.1756 -0.5633
 6325TIP3    H240611   4.755   5.210   6.514 -1.9606  0.7461 -0.1254
 6326TIP3   OH240612   0.927   0.907   6.873 -0.1198  0.2540  0.0053
 6326TIP3    H140613   0.896   0.903   6.783 -1.8972 -0.4357  0.5934
 6326TIP3    H240614   0.890   0.989   6.907  0.6819  0.5938  0.0684
 6327TIP3   OH240615   6.992   3.290   1.310  0.6071  0.1776  0.0143
 6327TIP3    H140616   6.953   3.222   1.366  1.5229 -2.8186 -2.6648
 6327TIP3    H240617   6.917   3.332   1.268  0.0342 -0.4026  0.4284
 6328TIP3   OH240618   2.656   4.693   8.274 -0.1192 -0.4391  0.2067
 6328TIP3    H140619   2.594   4.685   8.346  1.0594 -0.2122  1.2754
 6328TIP3    H240620   2.614   4.646   8.201 -1.2283 -0.8604  1.0845
 6329TIP3   OH240621   6.089   7.081   7.220  0.2720 -0.1109 -0.3920
 6329TIP3    H140622   6.180   7.104   7.240  0.3141  0.2948 -1.0330
 6329TIP3    H240623   6.085   7.079   7.125 -0.6821  1.0519 -0.3959
 6330TIP3   OH240624   1.334   0.648   0.156 -0.2242  0.3034  0.2808
 6330TIP3    H140625   1.242   0.643   0.181 -0.7967 -1.8773 -1.8946
 6330TIP3    H240626   1.338   0.719   0.092 -0.5846 -0.1108 -0.2112
 6331TIP3   OH240627   2.147   2.161   6.214 -0.0820 -0.6514 -0.1477
 6331TIP3    H140628   2.115   2.203   6.135  0.6954 -0.5486 -0.4083
 6331TIP3    H240629   2.090   2.085   6.225 -2.7711  1.4053  1.3694
 6332TIP3   OH240630   1.010   2.577   0.413 -0.3727 -0.0940  0.9050
 6332TIP3    H140631   1.044   2.573   0.502 -0.8355  0.3473  1.1105
 6332TIP3    H240632   0.993   2.670   0.398  1.9783  0.1596 -0.5453
 6333TIP3   OH240633   1.609   1.857   0.504  0.7670  0.0740 -0.5998
 6333TIP3    H140634   1.671   1.790   0.532 -1.3041 -1.4574  0.5969
 6333TIP3    H240635   1.530   1.809   0.481 -0.8096  2.0840  0.2939
 6334TIP3   OH240636   5.098   6.893   6.687  0.1690  0.2477 -0.0578
 6334TIP3    H140637   5.105   6.801   6.713 -0.3734  0.3855  0.5971
 6334TIP3    H240638   5.090   6.940   6.770 -2.1679  0.6607 -0.4675
 6335TIP3   OH240639   0.245   1.568   6.618 -0.8874 -0.7163  0.7815
 6335TIP3    H140640   0.152   1.590   6.632 -0.6436 -0.2817  1.8297
 6335TIP3    H240641   0.243   1.484   6.573 -1.7921 -0.8179  0.9815
 6336TIP3   OH240642   2.250   6.490   7.208 -0.0971 -0.7193 -0.2955
 6336TIP3    H140643   2.211   6.561   7.156 -0.1957 -0.3853  0.2214
 6336TIP3    H240644   2.183   6.422   7.208 -0.7791 -0.0748  0.7376
 6337TIP3   OH240645   0.037   3.056   7.930  0.5789  0.3900 -0.8422
 6337TIP3    H140646   0.035   3.151   7.942  0.4245  0.4033 -0.9651
 6337TIP3    H240647   0.067   3.044   7.840  0.0220  0.3396 -1.0260
 6338TIP3   OH240648   0.589   5.813   7.908  0.6266 -0.5262 -0.1544
 6338TIP3    H140649   0.494   5.809   7.894  0.5956  0.8259 -0.5268
 6338TIP3    H240650   0.626   5.816   7.820  1.0373 -1.1511 -0.0123
 6339TIP3   OH240651   4.509   6.303   0.113  0.0244  0.3537 -0.6630
 6339TIP3    H140652   4.471   6.215   0.104 -0.5723  0.3598  1.2639
 6339TIP3    H240653   4.594   6.297   0.070  1.0283 -1.8857  1.3542
 6340TIP3   OH240654   1.151   3.526   1.180  0.0570 -0.0529  0.1656
 6340TIP3    H140655   1.088   3.536   1.251  0.1065 -1.0838  0.3644
 6340TIP3    H240656   1.118   3.452   1.129 -0.5015  1.2392 -1.4500
 6341TIP3   OH240657   6.980   0.833   7.627 -0.3844  0.3334 -0.1926
 6341TIP3    H140658   7.053   0.875   7.581 -0.3348  1.6919  1.0500
 6341TIP3    H240659   7.001   0.740   7.623 -0.0093  0.4367 -2.2279
 6342TIP3   OH240660   2.240   0.600   1.531 -0.5112 -0.1512  0.4746
 6342TIP3    H140661   2.170   0.579   1.594 -0.8571  0.8465  0.4376
 6342TIP3    H240662   2.318   0.609   1.585 -0.7394  0.3598  0.7325
 6343TIP3   OH240663   6.954   3.268   0.261 -0.1068 -0.0809 -0.0046
 6343TIP3    H140664   7.020   3.242   0.326  0.2430 -0.8985 -0.6864
 6343TIP3    H240665   6.909   3.187   0.238 -2.2348  0.6175  1.3604
 6344TIP3   OH240666   1.413   3.366   0.659  0.4420 -0.2681 -0.2068
 6344TIP3    H140667   1.460   3.285   0.640  0.4538 -0.0782 -1.0423
 6344TIP3    H240668   1.336   3.363   0.602 -0.1078 -0.1667  0.5139
 6345TIP3   OH240669   3.594   2.030   7.130 -0.1889 -0.3652 -0.6257
 6345TIP3    H140670   3.632   1.944   7.112  2.4399  0.6082 -0.0438
 6345TIP3    H240671   3.640   2.090   7.072  1.1636  1.2516  1.9251
 6346TIP3   OH240672   0.038   7.059   7.578 -0.0213 -0.2017  0.4641
 6346TIP3    H140673  -0.001   6.986   7.530 -0.9791  1.1054 -0.8499
 6346TIP3    H240674   0.108   7.020   7.630 -0.4640 -2.0258 -0.2584
 6347TIP3   OH240675   3.258   4.457   7.041  0.2350  0.1701 -0.1899
 6347TIP3    H140676   3.219   4.482   7.125 -1.0238 -0.7611 -0.4654
 6347TIP3    H240677   3.208   4.505   6.976 -0.2825 -0.7919 -0.5309
 6348TIP3   OH240678   2.648   4.912   7.035 -0.2754 -0.7756 -0.1371
 6348TIP3    H140679   2.729   4.962   7.045 -0.8759 -0.0023  1.1909
 6348TIP3    H240680   2.667   4.848   6.967  0.6767  0.9858 -1.6201
 6349TIP3   OH240681   3.500   4.190   8.204 -0.1649  0.0126  0.0741
 6349TIP3    H140682   3.539   4.158   8.285 -0.3217  0.6411  0.4052
 6349TIP3    H240683   3.417   4.143   8.197 -0.5476  0.5682  0.7296
 6350TIP3   OH240684   1.143   6.435   5.831 -0.3050  0.2183  0.2471
 6350TIP3    H140685   1.150   6.485   5.749  0.4666 -1.5061 -0.7833
 6350TIP3    H240686   1.224   6.455   5.878  0.7621 -1.2095 -0.8833
 6351TIP3   OH240687   1.606   0.545   0.407 -0.1761 -0.4058 -0.1359
 6351TIP3    H140688   1.672   0.614   0.417  0.1632 -0.9391  1.7021
 6351TIP3    H240689   1.642   0.486   0.340  0.8096 -0.2209  0.2171
 6352TIP3   OH240690   2.162   0.813   1.408 -0.6811 -0.7186  0.1899
 6352TIP3    H140691   2.177   0.825   1.502  2.2110 -0.2302 -0.2290
 6352TIP3    H240692   2.178   0.720   1.393  0.9650 -0.4216 -0.0764
 6353TIP3   OH240693   5.662   3.537   6.796  0.3045 -0.6326  0.0976
 6353TIP3    H140694   5.571   3.568   6.792  0.1744 -0.9953  0.1872
 6353TIP3    H240695   5.692   3.538   6.705 -0.4576 -2.4580 -0.2181
 6354TIP3   OH240696   6.470   4.472   6.607 -0.2282  0.6357  0.2272
 6354TIP3    H140697   6.541   4.504   6.552 -0.6299 -0.9521 -1.2860
 6354TIP3    H240698   6.390   4.505   6.565 -0.5054  0.2135  0.4172
 6355TIP3   OH240699   6.476   6.943   0.373 -0.2083  0.2055 -0.2590
 6355TIP3    H140700   6.509   6.854   0.387  0.2189  0.5613  1.2084
 6355TIP3    H240701   6.382   6.936   0.392 -0.5788 -0.3268 -2.1455
 6356TIP3   OH240702   5.482   3.303   6.876 -0.3274 -0.2530 -0.2812
 6356TIP3    H140703   5.560   3.324   6.824  1.1533 -2.7671  0.7067
 6356TIP3    H240704   5.516   3.290   6.965 -1.8554 -1.3730  0.1771
 6357TIP3   OH240705   6.236   0.464   1.211  0.7640  0.0877 -0.2992
 6357TIP3    H140706   6.302   0.428   1.269 -1.1927 -0.7415  1.5819
 6357TIP3    H240707   6.281   0.531   1.160  3.1446 -0.9193  0.3656
 6358TIP3   OH240708   0.794   1.049   8.256 -0.2165  0.2912 -0.0137
 6358TIP3    H140709   0.779   1.139   8.225 -3.8955  0.2939  1.2708
 6358TIP3    H240710   0.730   0.996   8.209  1.3915 -1.6087 -0.2012
 6359TIP3   OH240711   4.593   6.629   8.152 -0.7356 -0.4033 -0.6187
 6359TIP3    H140712   4.553   6.705   8.194 -1.9982 -0.3829 -1.7739
 6359TIP3    H240713   4.535   6.555   8.175 -0.6113 -0.6514 -1.0785
 6360TIP3   OH240714   6.720   4.141   7.285  0.3114 -0.6045  0.1923
 6360TIP3    H140715   6.629   4.170   7.285  0.0228 -1.4757  0.6905
 6360TIP3    H240716   6.719   4.056   7.241  1.0260 -0.2400 -0.5682
 6361TIP3   OH240717   3.841   2.161   0.419  0.3501 -0.7788 -0.9360
 6361TIP3    H140718   3.778   2.105   0.373  1.4582 -3.7990  0.8997
 6361TIP3    H240719   3.807   2.168   0.508  0.7900  0.6501 -0.8550
 6362TIP3   OH240720   4.976   2.197   0.544 -0.2641 -0.2930 -0.5741
 6362TIP3    H140721   4.900   2.155   0.583 -1.6692  0.2555 -2.5603
 6362TIP3    H240722   4.939   2.263   0.485  1.8113  1.9432  0.4673
 6363TIP3   OH240723   3.045   0.395   0.295  0.0623 -0.0632 -0.4662
 6363TIP3    H140724   3.096   0.365   0.220  0.9211 -1.0977  0.4896
 6363TIP3    H240725   2.980   0.455   0.258  1.0834  0.1995 -1.8956
 6364TIP3   OH240726   3.574   6.560   6.872 -0.0261 -0.1345 -0.4517
 6364TIP3    H140727   3.576   6.473   6.911 -3.0057 -0.1503 -0.0721
 6364TIP3    H240728   3.581   6.545   6.778 -1.3431 -0.8977 -0.4463
 6365TIP3   OH240729   1.331   1.217   2.306 -0.0919 -0.0172 -0.2763
 6365TIP3    H140730   1.409   1.271   2.313 -0.0606  0.1383 -1.4823
 6365TIP3    H240731   1.364   1.127   2.300 -0.0252  0.0179 -0.4333
 6366TIP3   OH240732   1.278   5.494   2.046 -0.3434 -0.1900 -0.0723
 6366TIP3    H140733   1.273   5.520   2.138 -1.7373  1.0017 -0.4307
 6366TIP3    H240734   1.285   5.577   1.998 -1.7373 -0.6329 -1.1182
 6367TIP3   OH240735   6.026   6.602   2.256 -0.6235 -0.3319 -0.0058
 6367TIP3    H140736   5.974   6.635   2.183  1.7234 -0.4540 -1.8568
 6367TIP3    H240737   5.967   6.543   2.303 -2.6809  0.9574 -0.8626
 6368TIP3   OH240738   4.669   3.359   7.159  0.0429 -0.1335 -0.4755
 6368TIP3    H140739   4.694   3.322   7.074  0.0155  1.5052 -1.2193
 6368TIP3    H240740   4.646   3.450   7.141  0.4608  0.3831  1.3575
 6369TIP3   OH240741   4.491   1.274   7.712  0.4371 -0.2206 -0.1248
 6369TIP3    H140742   4.449   1.189   7.694  1.1133 -0.4346 -0.7511
 6369TIP3    H240743   4.540   1.293   7.632  1.5796 -0.0103  0.6135
 6370TIP3   OH240744   4.172   4.553   6.090 -0.0294  0.0962 -0.7100
 6370TIP3    H140745   4.107   4.543   6.021  0.4003  0.8670 -1.2495
 6370TIP3    H240746   4.197   4.646   6.086 -0.6002  0.3651  1.0379
 6371TIP3   OH240747   5.914   4.921   8.273  0.6989  0.1292  0.0079
 6371TIP3    H140748   5.839   4.929   8.333  2.0277 -1.3937  2.0158
 6371TIP3    H240749   5.987   4.962   8.320  1.2240  1.4280 -1.8277
 6372TIP3   OH240750   6.022   2.404   8.032 -0.2765 -0.7868 -0.4934
 6372TIP3    H140751   6.006   2.499   8.033  0.8049 -0.5682 -1.4589
 6372TIP3    H240752   6.021   2.381   7.939  2.9606 -1.0697 -0.5542
 6373TIP3   OH240753   4.075   0.309   6.436 -0.7950  0.0680 -0.1637
 6373TIP3    H140754   4.010   0.243   6.413 -1.7200  0.7683  0.4095
 6373TIP3    H240755   4.130   0.317   6.358 -1.6544 -0.2204 -0.8039
 6374TIP3   OH240756   2.496   5.363   7.796  0.5407 -0.0037 -0.7484
 6374TIP3    H140757   2.543   5.370   7.879 -1.8970 -1.2510  0.9012
 6374TIP3    H240758   2.527   5.281   7.758  1.8746  0.7123 -1.2497
 6375TIP3   OH240759   0.278   4.031   1.038  0.3820  0.3051 -0.3965
 6375TIP3    H140760   0.370   4.056   1.026  0.5793  0.4214  1.1176
 6375TIP3    H240761   0.256   4.065   1.125 -1.6537  1.9074 -1.4543
 6376TIP3   OH240762   1.458   3.564   1.196  0.5086 -0.0917 -0.0203
 6376TIP3    H140763   1.475   3.524   1.111  0.1317  2.2278 -1.2683
 6376TIP3    H240764   1.364   3.580   1.196  0.7086  1.2078  0.1848
 6377TIP3   OH240765   3.483   6.740   8.217  0.5209 -0.1354  0.4097
 6377TIP3    H140766   3.398   6.713   8.253  0.0906  0.0957 -0.4135
 6377TIP3    H240767   3.461   6.793   8.140  1.4275 -0.9835 -0.4619
 6378TIP3   OH240768   1.191   6.133   1.052 -0.1372  0.8546 -0.0960
 6378TIP3    H140769   1.267   6.143   1.109 -0.8450  2.3184  0.6810
 6378TIP3    H240770   1.222   6.158   0.965  0.8172 -0.8372 -0.2624
 6379TIP3   OH240771   0.121   3.067   6.505  0.7180 -0.0602  0.3111
 6379TIP3    H140772   0.122   3.081   6.410  1.0418  1.3006  0.4932
 6379TIP3    H240773   0.202   3.107   6.536  0.2049  0.2619  1.2617
 6380TIP3   OH240774   5.403   6.323   0.592  0.1433 -0.3468  0.0633
 6380TIP3    H140775   5.446   6.398   0.551 -1.5691  1.3677  1.1736
 6380TIP3    H240776   5.363   6.275   0.519  0.0278  0.6886 -0.5811
 6381TIP3   OH240777   4.705   2.108   6.535 -0.0686  0.0601 -0.4515
 6381TIP3    H140778   4.705   2.014   6.514 -0.5504 -0.4669  1.7057
 6381TIP3    H240779   4.793   2.137   6.511  0.5427 -1.2557  0.0902
 6382TIP3   OH240780   5.735   6.519   6.760  0.4187  0.7047  0.8539
 6382TIP3    H140781   5.668   6.497   6.695  0.6298 -0.1541  0.9188
 6382TIP3    H240782   5.708   6.605   6.794 -0.1022  0.8196  0.1755
 6383TIP3   OH240783   2.289   1.674   7.809  0.4170  0.0004  0.1107
 6383TIP3    H140784   2.298   1.582   7.783 -0.4561  0.1253 -0.7005
 6383TIP3    H240785   2.328   1.723   7.737 -1.6776  0.3419 -0.8494
 6384TIP3   OH240786   6.819   2.629   1.425  0.2857  0.3990 -0.1330
 6384TIP3    H140787   6.730   2.598   1.410  0.6971 -0.2267 -1.3600
 6384TIP3    H240788   6.862   2.559   1.474  0.1059  0.7127  0.4834
 6385TIP3   OH240789   4.442   4.317   7.468  0.2078 -0.0992  0.4422
 6385TIP3    H140790   4.418   4.378   7.538  0.9139  0.0510  0.5612
 6385TIP3    H240791   4.537   4.323   7.462  0.2123 -0.5829 -0.1061
 6386TIP3   OH240792   5.170   2.777   6.582  0.3283 -0.1890 -0.2973
 6386TIP3    H140793   5.227   2.853   6.596 -1.5453  1.4374 -1.0168
 6386TIP3    H240794   5.172   2.730   6.665  2.4326 -0.0225 -0.2092
 6387TIP3   OH240795   5.764   2.438   0.171  0.0161  0.6290 -0.6093
 6387TIP3    H140796   5.697   2.379   0.136  2.1638 -1.9755 -0.6080
 6387TIP3    H240797   5.725   2.473   0.251 -1.5790 -0.3241 -0.9155
 6388TIP3   OH240798   6.614   3.834   0.181  0.3410 -0.0617 -0.6411
 6388TIP3    H140799   6.523   3.829   0.152  0.2529  0.5034 -0.4824
 6388TIP3    H240800   6.666   3.806   0.106  0.0645  0.3077 -0.9720
 6389TIP3   OH240801   1.062   0.614   0.165 -0.0410 -0.0737 -0.1683
 6389TIP3    H140802   1.018   0.609   0.250 -0.4338 -0.8815 -0.4099
 6389TIP3    H240803   1.005   0.671   0.113  2.3740  4.1726  1.3527
 6390TIP3   OH240804   6.843   1.476   5.928  0.4323 -0.4282  0.5040
 6390TIP3    H140805   6.791   1.553   5.952  0.5080 -0.4540  0.7520
 6390TIP3    H240806   6.903   1.509   5.861  0.7665 -0.1545  0.9237
 6391TIP3   OH240807   3.047   0.711   6.521 -0.7565 -0.6349  0.0700
 6391TIP3    H140808   3.081   0.718   6.431 -2.5720 -2.1568 -0.8037
 6391TIP3    H240809   2.999   0.628   6.522  0.8321 -1.6752  3.0388
 6392TIP3   OH240810   2.858   1.481   1.530  0.0344 -0.6981 -0.3356
 6392TIP3    H140811   2.846   1.440   1.616  2.5060  2.8442  1.9993
 6392TIP3    H240812   2.932   1.434   1.491 -1.2747 -2.5130 -0.7579
 6393TIP3   OH240813   0.813   4.745   6.538  0.3566 -0.2398 -0.2928
 6393TIP3    H140814   0.824   4.650   6.537  1.2102 -0.1598  0.1013
 6393TIP3    H240815   0.768   4.763   6.620  1.6880 -0.1883  0.4686
 6394TIP3   OH240816   7.038   4.612   6.814  0.1198 -0.3842 -0.1691
 6394TIP3    H140817   7.128   4.591   6.841  0.9882  1.8240 -1.0952
 6394TIP3    H240818   7.038   4.598   6.719  0.1535  1.5765 -0.5063
 6395TIP3   OH240819   2.113   5.095   7.829 -0.7948 -0.4702  0.1266
 6395TIP3    H140820   2.020   5.080   7.810 -0.6918  0.1756 -1.0043
 6395TIP3    H240821   2.116   5.187   7.855 -0.2161  0.1850 -2.0040
 6396TIP3   OH240822   7.064   1.690   1.189  0.8310 -0.0502 -0.6165
 6396TIP3    H140823   6.981   1.709   1.233  1.2298 -0.6639  0.4230
 6396TIP3    H240824   7.083   1.770   1.139  1.2609  1.4122  1.7435
 6397TIP3   OH240825   0.953   4.934   6.379  0.0860 -0.5056  1.3917
 6397TIP3    H140826   0.902   4.891   6.447  1.0272 -0.0887  2.3978
 6397TIP3    H240827   1.035   4.885   6.376 -0.0736 -0.7316  0.3073
 6398TIP3   OH240828   6.919   1.292   0.765  0.0245 -0.0493 -0.4213
 6398TIP3    H140829   6.910   1.236   0.842  0.2839 -2.1118 -1.8121
 6398TIP3    H240830   6.996   1.259   0.719  0.8100  2.1563 -0.7805
 6399TIP3   OH240831   2.544   0.433   7.543  0.8729  0.0673 -0.0562
 6399TIP3    H140832   2.567   0.410   7.453 -0.0293 -0.8873 -0.0560
 6399TIP3    H240833   2.462   0.385   7.560  0.2629  1.3517  0.7880
 6400TIP3   OH240834   0.752   3.647   6.287  0.4786 -0.1688 -0.1572
 6400TIP3    H140835   0.708   3.693   6.214 -1.1168 -2.2914 -0.6368
 6400TIP3    H240836   0.680   3.610   6.338  1.6640 -1.3019  0.7445
 6401TIP3   OH240837   0.819   4.610   6.083 -0.3063  0.1009 -0.7178
 6401TIP3    H140838   0.779   4.561   6.154  1.3844 -0.8011 -0.3268
 6401TIP3    H240839   0.813   4.552   6.007 -0.8340  0.4818 -0.9776
 6402TIP3   OH240840   2.023   0.544   0.843  0.3333  0.6883 -0.7649
 6402TIP3    H140841   1.982   0.481   0.784 -3.7980 -0.0718  2.3968
 6402TIP3    H240842   2.045   0.618   0.787 -3.4630  0.1272 -3.3969
 6403TIP3   OH240843   4.595   3.691   8.085 -0.0486  0.3542  0.0434
 6403TIP3    H140844   4.614   3.606   8.126 -2.4869 -1.1981 -1.7522
 6403TIP3    H240845   4.560   3.669   7.999 -2.7890  3.0500  0.2960
 6404TIP3   OH240846   1.321   1.761   6.146 -0.4980  0.0422 -0.5174
 6404TIP3    H140847   1.334   1.720   6.061  0.9461 -1.5651  0.4348
 6404TIP3    H240848   1.377   1.839   6.144  0.2173 -0.4698 -0.7345
 6405TIP3   OH240849   1.336   3.195   7.954  0.7908 -0.2242  0.1962
 6405TIP3    H140850   1.347   3.107   7.989 -0.0730  0.4483  2.3406
 6405TIP3    H240851   1.281   3.240   8.019  2.2309  2.2682 -0.1703
 6406TIP3   OH240852   1.876   0.230   6.301  0.3908 -0.2042 -0.2727
 6406TIP3    H140853   1.877   0.139   6.329  0.5061 -0.7983 -2.1019
 6406TIP3    H240854   1.968   0.253   6.290  0.3495  0.0613 -0.0908
 6407TIP3   OH240855   2.027   6.291   6.373 -0.6804 -0.2828 -0.5144
 6407TIP3    H140856   1.984   6.371   6.401  0.1803  0.2276 -0.6190
 6407TIP3    H240857   2.119   6.315   6.363 -0.5129 -1.1269 -1.1436
 6408TIP3   OH240858   6.127   0.853   1.522  0.4653 -0.0633 -0.3077
 6408TIP3    H140859   6.092   0.778   1.570  0.8111  0.4171  0.7162
 6408TIP3    H240860   6.181   0.815   1.453  0.3232 -0.7539 -0.0390
 6409TIP3   OH240861   0.720   6.927   2.299 -0.3870  0.3465  0.0023
 6409TIP3    H140862   0.659   6.890   2.363 -0.2681  1.6466  0.8889
 6409TIP3    H240863   0.681   7.011   2.275  1.4368  1.5916  1.1992
 6410TIP3   OH240864   2.259   1.365   1.137 -0.2306  0.1463  0.0472
 6410TIP3    H140865   2.185   1.378   1.197 -0.6367  0.1609 -0.4482
 6410TIP3    H240866   2.336   1.375   1.192 -0.5532  2.0550  0.2319
 6411TIP3   OH240867   5.801   1.194   8.270  0.5683  0.0078  0.2828
 6411TIP3    H140868   5.795   1.178   8.364  1.9511  1.5486  0.6722
 6411TIP3    H240869   5.754   1.276   8.256  0.6321 -0.0535 -0.3189
 6412TIP3   OH240870   1.582   6.209   8.047 -0.4941 -0.1304  0.2502
 6412TIP3    H140871   1.672   6.242   8.042 -0.2018 -0.9296  0.0621
 6412TIP3    H240872   1.546   6.250   8.125  0.5674 -1.0577  1.2760
 6413TIP3   OH240873   0.608   2.379   1.491 -0.1036 -0.1028  0.0499
 6413TIP3    H140874   0.566   2.384   1.577 -0.1574  1.2660 -0.0318
 6413TIP3    H240875   0.581   2.459   1.447  2.8865  1.0902  0.1510
 6414TIP3   OH240876   1.460   2.869   1.651 -0.3951  0.0426  0.3770
 6414TIP3    H140877   1.501   2.947   1.688 -0.0426  0.1983 -0.3357
 6414TIP3    H240878   1.368   2.876   1.678 -0.2607  0.4412  0.7430
 6415TIP3   OH240879   6.092   6.730   6.759  0.4053 -0.0565 -0.1876
 6415TIP3    H140880   6.160   6.667   6.732  0.4692 -0.5985  1.1612
 6415TIP3    H240881   6.016   6.707   6.706  0.8115 -0.4392 -0.6225
 6416TIP3   OH240882   1.773   5.547   5.782  0.4700  0.2832  0.3092
 6416TIP3    H140883   1.688   5.588   5.768  0.7516  0.4824 -0.9491
 6416TIP3    H240884   1.755   5.472   5.838 -0.9035 -0.9392 -1.6218
 6417TIP3   OH240885   2.364   3.500   1.370 -0.3523  0.1592  0.0158
 6417TIP3    H140886   2.430   3.502   1.301  0.4832 -0.6878  0.7616
 6417TIP3    H240887   2.342   3.408   1.379  0.7535  0.0498  1.9782
 6418TIP3   OH240888   5.734   4.798   1.464 -0.1034 -0.2139  0.2201
 6418TIP3    H140889   5.811   4.808   1.520  0.3214  0.1082 -0.4192
 6418TIP3    H240890   5.755   4.846   1.384 -0.5405 -1.0175 -0.3956
 6419TIP3   OH240891   1.415   4.679   0.673 -0.0858 -0.4158 -0.2771
 6419TIP3    H140892   1.361   4.745   0.718  1.3019  1.9922 -1.9143
 6419TIP3    H240893   1.390   4.688   0.580  0.8319 -1.5451 -0.6462
 6420TIP3   OH240894   1.210   6.728   5.964  0.4593 -0.2756  0.2076
 6420TIP3    H140895   1.215   6.765   6.052  0.8826  0.5592 -0.1611
 6420TIP3    H240896   1.296   6.746   5.925  0.7462 -1.8152  0.0784
 6421TIP3   OH240897   3.215   0.026   1.120  0.0972 -0.1472 -0.0496
 6421TIP3    H140898   3.204   0.121   1.125 -0.1000 -0.1267 -0.7546
 6421TIP3    H240899   3.125  -0.009   1.123  0.2126 -0.3893  1.3900
 6422TIP3   OH240900   0.508   0.888   7.423  0.1817  0.0030 -0.5259
 6422TIP3    H140901   0.511   0.977   7.459 -3.2113  0.1978 -0.3848
 6422TIP3    H240902   0.495   0.832   7.500  0.1907 -0.3757 -0.7979
 6423TIP3   OH240903   6.284   1.720   6.704 -0.5487  0.3805 -0.5877
 6423TIP3    H140904   6.353   1.775   6.668 -0.6997  0.1276 -1.3020
 6423TIP3    H240905   6.232   1.694   6.627 -2.1785  1.5611  0.0642
 6424TIP3   OH240906   4.802   6.999   7.799 -0.3700  0.4414  0.6557
 6424TIP3    H140907   4.787   6.989   7.893 -0.6022 -0.5074  0.5313
 6424TIP3    H240908   4.717   6.981   7.759 -0.2106  0.5827  0.2541
 6425TIP3   OH240909   2.184   1.039   1.277 -0.6770  0.7511  0.0204
 6425TIP3    H140910   2.241   1.085   1.338 -0.4285 -0.5437  0.8060
 6425TIP3    H240911   2.149   0.965   1.328 -1.9176  0.6950 -0.8647
 6426TIP3   OH240912   0.525   6.908   2.463  0.7679  0.9662  0.4646
 6426TIP3    H140913   0.510   7.000   2.483  0.7499  0.2832  4.2695
 6426TIP3    H240914   0.438   6.868   2.465  0.8679  0.6933 -0.2612
 6427TIP3   OH240915   3.844   5.782   6.422 -0.4436  0.0014 -0.0055
 6427TIP3    H140916   3.872   5.874   6.426 -0.7785  0.0741  1.6655
 6427TIP3    H240917   3.916   5.733   6.460 -1.0010 -0.2062  0.8246
 6428TIP3   OH240918   1.709   2.767   1.235  0.1961 -0.0403  0.0360
 6428TIP3    H140919   1.674   2.852   1.208 -1.9225 -0.6619  0.6622
 6428TIP3    H240920   1.772   2.787   1.304 -0.8075  0.9854  0.6749
 6429TIP3   OH240921   2.414   4.138   6.776  0.0389 -0.4878 -0.1777
 6429TIP3    H140922   2.493   4.090   6.801 -0.3421 -1.9071 -1.5865
 6429TIP3    H240923   2.361   4.139   6.856  1.2935  0.1694  0.6796
 6430TIP3   OH240924   4.016   2.074   0.206  0.1225  0.0925  0.1005
 6430TIP3    H140925   4.096   2.107   0.246  1.0608 -0.1672 -1.4811
 6430TIP3    H240926   3.968   2.034   0.278  0.8193  1.3276  1.3098
 6431TIP3   OH240927   3.865   6.200   0.474 -0.3541 -0.3272 -0.8558
 6431TIP3    H140928   3.914   6.195   0.557 -1.1349 -0.6951 -0.4056
 6431TIP3    H240929   3.891   6.284   0.436 -1.2867  0.6784  0.6115
 6432TIP3   OH240930   5.505   0.987   1.208  0.3601  0.1213  0.3009
 6432TIP3    H140931   5.435   0.922   1.205  0.3119  0.0618  1.7876
 6432TIP3    H240932   5.572   0.948   1.264  0.7564  0.9457  0.4143
 6433TIP3   OH240933   6.364   0.372   7.695  0.2025  0.1190  0.1408
 6433TIP3    H140934   6.375   0.283   7.729 -2.3251 -0.6206 -0.7182
 6433TIP3    H240935   6.352   0.360   7.601 -1.5072  1.1716  0.1711
 6434TIP3   OH240936   3.217   0.732   0.001  0.1951  0.1704  0.4908
 6434TIP3    H140937   3.271   0.706   0.076 -0.9799 -1.5430  0.8063
 6434TIP3    H240938   3.217   0.828   0.004  0.7661  0.1621  2.2698
 6435TIP3   OH240939   1.044   6.778   0.710 -0.1431  0.1370  0.4008
 6435TIP3    H140940   1.049   6.873   0.701 -1.0903  0.1910  0.2757
 6435TIP3    H240941   1.126   6.746   0.673  1.2535  1.0086  2.6000
 6436TIP3   OH240942   4.182   5.657   7.430  0.0755  0.3710 -1.0278
 6436TIP3    H140943   4.237   5.717   7.480 -0.4586  0.2683 -0.2932
 6436TIP3    H240944   4.132   5.609   7.497  1.0364 -1.4474 -1.5457
 6437TIP3   OH240945   2.725   3.995   6.439 -0.4788  0.2378  0.5588
 6437TIP3    H140946   2.736   3.900   6.442  0.3025  0.3408  1.8153
 6437TIP3    H240947   2.703   4.014   6.348 -0.4172 -1.1179  0.2392
 6438TIP3   OH240948   3.957   0.289   6.055  0.4860  0.6793 -0.6330
 6438TIP3    H140949   4.035   0.234   6.068 -0.2673 -0.2540  0.1288
 6438TIP3    H240950   3.987   0.378   6.072  1.8186  0.5868 -2.1952
 6439TIP3   OH240951   4.341   0.473   1.406 -0.2369  0.1456 -0.2044
 6439TIP3    H140952   4.279   0.401   1.403  0.9870 -0.9324 -2.4405
 6439TIP3    H240953   4.426   0.432   1.388  0.6957  1.9633 -0.1928
 6440TIP3   OH240954   5.514   6.409   6.666  0.2794 -0.2927 -0.0368
 6440TIP3    H140955   5.446   6.386   6.603  0.1962  0.4944 -0.2502
 6440TIP3    H240956   5.473   6.395   6.752  0.0286 -0.3461 -0.1645
 6441TIP3   OH240957   0.522   7.017   1.686 -0.3032 -0.1791  0.4715
 6441TIP3    H140958   0.483   6.944   1.735 -1.7991  0.8171  0.8230
 6441TIP3    H240959   0.478   7.095   1.720  2.5050  1.1274  1.3760
 6442TIP3   OH240960   4.934   6.284   0.577 -0.2186  0.0858  0.0471
 6442TIP3    H140961   4.920   6.198   0.615  2.7034  0.1201  1.4067
 6442TIP3    H240962   4.906   6.345   0.645  0.5775  0.1853  0.2862
 6443TIP3   OH240963   4.483   0.268   0.685 -0.5604  0.0783 -0.2587
 6443TIP3    H140964   4.494   0.363   0.685  0.9811 -0.0815  0.0985
 6443TIP3    H240965   4.473   0.245   0.592 -0.3464  0.5190 -0.3927
 6444TIP3   OH240966   0.451   5.530   7.703  0.4537 -0.7097  0.1245
 6444TIP3    H140967   0.359   5.555   7.713  0.6770  0.3039 -0.2125
 6444TIP3    H240968   0.448   5.443   7.664 -0.3817  0.0132 -1.5012
 6445TIP3   OH240969   6.845   4.027   7.671 -0.1795 -0.1450 -0.4030
 6445TIP3    H140970   6.820   4.098   7.611  0.2965 -0.5767 -1.1180
 6445TIP3    H240971   6.826   4.063   7.758 -0.5533  0.6202 -0.7831
 6446TIP3   OH240972   0.534   4.693   7.969 -0.1389 -0.1618  0.1022
 6446TIP3    H140973   0.455   4.734   8.004  1.2679  1.2190  1.8492
 6446TIP3    H240974   0.514   4.600   7.965 -1.8046  0.1526  0.5995
 6447TIP3   OH240975   6.261   1.269   0.216  0.2711  0.1124 -0.3780
 6447TIP3    H140976   6.317   1.347   0.217  1.9903 -0.9399 -3.1568
 6447TIP3    H240977   6.322   1.196   0.221 -1.1827 -1.1049  0.3676
 6448TIP3   OH240978   7.060   1.630   6.607  0.2734  0.1925  0.0956
 6448TIP3    H140979   7.081   1.692   6.537  1.9823 -0.6325 -0.1696
 6448TIP3    H240980   7.023   1.684   6.677 -1.6236  1.0236 -1.4600
 6449TIP3   OH240981   7.069   5.275   6.329 -0.0019  0.0617 -0.7618
 6449TIP3    H140982   6.993   5.312   6.283 -1.8702 -3.0808 -0.5301
 6449TIP3    H240983   7.040   5.268   6.421  0.3137 -1.6513 -0.7617
 6450TIP3   OH240984   6.309   1.805   0.872  0.1761  0.3392  0.1164
 6450TIP3    H140985   6.337   1.866   0.804  2.1477  0.7443  1.1986
 6450TIP3    H240986   6.214   1.816   0.877  0.3644  2.6982 -0.3151
 6451TIP3   OH240987   3.189   4.555   6.784  0.2306 -0.1722  0.0526
 6451TIP3    H140988   3.120   4.492   6.806 -0.8949  0.8997 -0.2235
 6451TIP3    H240989   3.249   4.507   6.727  0.3197 -1.4515  1.1695
 6452TIP3   OH240990   0.507   5.317   6.217 -0.1073 -0.0526 -0.4684
 6452TIP3    H140991   0.423   5.280   6.189  0.5828 -1.2730 -1.0109
 6452TIP3    H240992   0.537   5.368   6.143 -1.1924  1.9114  0.3821
 6453TIP3   OH240993   2.498   3.479   0.510 -0.8573  0.2608 -0.3587
 6453TIP3    H140994   2.560   3.431   0.565  0.2230  0.7134 -1.1368
 6453TIP3    H240995   2.531   3.466   0.421 -0.7665  2.0868 -0.6262
 6454TIP3   OH240996   3.998   2.940   0.098  0.4531  0.0921  0.3583
 6454TIP3    H140997   3.929   2.981   0.150 -0.7545  1.0535 -1.8459
 6454TIP3    H240998   3.963   2.853   0.076  0.4845  0.0996  0.2791
 6455TIP3   OH240999   1.268   4.831   1.146 -0.0416  0.4201 -0.0735
 6455TIP3    H141000   1.186   4.836   1.097 -0.0571  1.2172  0.0218
 6455TIP3    H241001   1.313   4.755   1.109 -0.4669  0.4591 -0.6862
 6456TIP3   OH241002   2.706   3.034   6.756 -0.3403  0.0125  0.2915
 6456TIP3    H141003   2.649   2.964   6.788  0.0259 -1.2630 -1.6633
 6456TIP3    H241004   2.794   3.003   6.774 -0.1332 -0.6556 -1.6488
 6457TIP3   OH241005   5.684   5.095   0.378 -0.4673  0.2572  0.1210
 6457TIP3    H141006   5.745   5.074   0.449  0.7961  2.5204 -0.1850
 6457TIP3    H241007   5.600   5.107   0.421 -0.3592 -1.2024  0.8030
 6458TIP3   OH241008   2.661   1.988   2.246  0.0074  0.3173 -0.0967
 6458TIP3    H141009   2.708   1.968   2.166 -1.2543 -3.4198 -0.0986
 6458TIP3    H241010   2.728   2.021   2.306  1.8978 -1.1623 -1.2724
 6459TIP3   OH241011   4.478   5.333   0.765 -0.0051  0.1742 -0.2278
 6459TIP3    H141012   4.499   5.421   0.796  0.3640 -0.2605  0.7791
 6459TIP3    H241013   4.546   5.313   0.701  0.8997 -0.0137  0.7574
 6460TIP3   OH241014   4.501   3.673   6.167  0.1353  0.5473  0.0834
 6460TIP3    H141015   4.511   3.746   6.106 -1.0200  0.2707 -0.4645
 6460TIP3    H241016   4.562   3.606   6.136  0.4782  0.9010 -0.0030
 6461TIP3   OH241017   7.038   0.937   7.078  0.0084  0.1172 -0.0576
 6461TIP3    H141018   7.011   0.852   7.115 -1.6720  0.0478 -1.3189
 6461TIP3    H241019   6.956   0.977   7.049  1.0064  1.2373 -1.4556
 6462TIP3   OH241020   0.461   5.328   0.223 -0.2577 -0.7810  0.6178
 6462TIP3    H141021   0.396   5.398   0.215  0.2085 -0.4046  0.0865
 6462TIP3    H241022   0.474   5.296   0.134 -1.5517 -2.5724  1.0112
 6463TIP3   OH241023   6.511   4.777   1.634 -0.0076  0.0849 -0.4330
 6463TIP3    H141024   6.604   4.792   1.621 -0.4134  1.0393 -2.6563
 6463TIP3    H241025   6.479   4.748   1.549 -1.5003 -1.7415  0.6843
 6464TIP3   OH241026   2.868   1.873   0.674  0.1216 -0.2234 -0.4027
 6464TIP3    H141027   2.924   1.949   0.658  0.3187 -0.3026 -0.0974
 6464TIP3    H241028   2.889   1.846   0.763 -0.9882  0.2396  0.0297
 6465TIP3   OH241029   0.896   0.736   1.276  1.0214 -0.4897  0.0749
 6465TIP3    H141030   0.968   0.798   1.285  1.4844 -0.9359 -0.5472
 6465TIP3    H241031   0.872   0.740   1.183  0.9639 -1.1399  0.0557
 6466TIP3   OH241032   4.518   3.956   1.703 -0.4608  0.3590  0.1270
 6466TIP3    H141033   4.515   3.937   1.797 -1.5741  1.3855  0.3195
 6466TIP3    H241034   4.524   4.051   1.698  1.1749  0.2462 -0.8522
 6467TIP3   OH241035   2.374   3.973   7.802 -0.1578 -0.6600  0.2729
 6467TIP3    H141036   2.406   3.936   7.885  2.2418  0.1279 -0.2262
 6467TIP3    H241037   2.312   4.041   7.829  0.7931 -0.2222  1.4673
 6468TIP3   OH241038   4.163   2.685   2.015  0.2930  0.2555  0.0772
 6468TIP3    H141039   4.133   2.624   1.947 -2.6974  2.7088 -1.0697
 6468TIP3    H241040   4.101   2.673   2.087  0.8884  0.5819  0.6498
 6469TIP3   OH241041   5.814   0.867   0.615  0.4586 -0.5381  0.5523
 6469TIP3    H141042   5.745   0.926   0.644  0.8265  1.1700 -1.7228
 6469TIP3    H241043   5.895   0.908   0.646  0.6126 -0.9294  0.6694
 6470TIP3   OH241044   6.012   3.625   7.542 -0.0361  0.2390 -0.2202
 6470TIP3    H141045   5.965   3.553   7.585 -0.7025  0.1634 -1.0634
 6470TIP3    H241046   6.102   3.594   7.535 -0.1788 -0.2398  0.0232
 6471TIP3   OH241047   3.655   7.082   6.998 -0.1063 -0.3855  0.2050
 6471TIP3    H141048   3.634   7.052   6.909 -0.0923 -0.6415  0.2869
 6471TIP3    H241049   3.748   7.104   6.995 -0.0214 -0.7336  0.2483
 6472TIP3   OH241050   4.076   2.777   6.573 -0.3543  0.1598 -0.6587
 6472TIP3    H141051   4.092   2.829   6.652  0.3368 -2.7338  1.2544
 6472TIP3    H241052   3.990   2.805   6.543 -0.3254  1.8613  0.6995
 6473TIP3   OH241053   5.969   6.274   8.170 -0.0237  0.1174 -0.2039
 6473TIP3    H141054   5.990   6.201   8.112  0.3007 -0.0062  0.0633
 6473TIP3    H241055   5.875   6.288   8.159 -0.4423 -1.4728  1.0242
 6474TIP3   OH241056   4.724   3.637   0.164  0.0004  0.0004 -0.4884
 6474TIP3    H141057   4.738   3.604   0.075 -0.3564  0.5604 -0.7596
 6474TIP3    H241058   4.809   3.674   0.190  0.0564 -0.0005 -0.6689
 6475TIP3   OH241059   3.461   3.856   0.964 -0.3431 -0.2883 -0.3179
 6475TIP3    H141060   3.484   3.767   0.989  1.2611  0.8207  2.7348
 6475TIP3    H241061   3.384   3.877   1.019 -0.0831  0.5098 -0.2405
 6476TIP3   OH241062   5.990   1.054   1.656  0.2428  0.2209 -0.0571
 6476TIP3    H141063   5.904   1.042   1.616 -0.0944 -1.3116  1.0573
 6476TIP3    H241064   6.050   1.003   1.601  0.3238  0.7070 -0.4232
 6477TIP3   OH241065   0.456   3.711   1.091  0.2922 -0.5856  0.0134
 6477TIP3    H141066   0.423   3.683   1.006 -1.2311  0.6162  0.1615
 6477TIP3    H241067   0.381   3.700   1.150 -0.1338  2.6771  0.2671
 6478TIP3   OH241068   4.797   5.691   6.753 -0.5092 -0.2179 -0.2936
 6478TIP3    H141069   4.793   5.656   6.842 -0.4016 -0.7832 -0.5040
 6478TIP3    H241070   4.858   5.764   6.759  0.1693 -0.7904 -0.0681
 6479TIP3   OH241071   6.786   4.763   7.826 -0.6777 -0.5312 -0.3202
 6479TIP3    H141072   6.790   4.772   7.731 -1.0285 -0.5789 -0.3426
 6479TIP3    H241073   6.705   4.714   7.842 -0.3527 -0.9851 -0.0301
 6480TIP3   OH241074   2.200   0.261   0.790  0.2251  0.1063  0.2655
 6480TIP3    H141075   2.264   0.205   0.745  1.1184  0.0480  1.5693
 6480TIP3    H241076   2.239   0.279   0.875 -0.4650  1.9761  0.2369
 6481TIP3   OH241077   7.066   1.552   0.240 -0.0074  0.3350  1.0378
 6481TIP3    H141078   7.088   1.530   0.149 -2.3462 -1.6169  0.8379
 6481TIP3    H241079   7.076   1.647   0.245 -0.6522  0.6109 -1.5213
 6482TIP3   OH241080   5.940   3.339   1.421  0.3095  0.0169  0.1247
 6482TIP3    H141081   5.963   3.393   1.496 -1.4398  0.7642  0.1709
 6482TIP3    H241082   5.845   3.346   1.414  0.0876 -2.5050 -0.3059
 6483TIP3   OH241083   5.019   3.884   8.061  0.1213 -0.1345  0.2539
 6483TIP3    H141084   5.021   3.806   8.116 -1.4200 -0.7058 -0.4357
 6483TIP3    H241085   5.064   3.951   8.113  1.1801 -1.3681  0.9926
 6484TIP3   OH241086   1.710   1.686   1.254 -0.6039  0.7496 -0.3096
 6484TIP3    H141087   1.792   1.666   1.300 -1.2164 -0.0051  0.5009
 6484TIP3    H241088   1.675   1.762   1.300 -1.4604 -0.2992  0.8628
 6485TIP3   OH241089   3.298   2.183   7.576 -0.4678  0.7894 -0.4131
 6485TIP3    H141090   3.322   2.253   7.636 -0.7594  1.1736 -0.7325
 6485TIP3    H241091   3.380   2.136   7.559 -0.7992 -1.0725  2.4108
 6486TIP3   OH241092   0.141   0.879   0.713 -0.1447  0.1900  0.3747
 6486TIP3    H141093   0.054   0.845   0.691 -0.3001 -0.1417  1.4616
 6486TIP3    H241094   0.179   0.812   0.769 -0.2414  1.5300  2.1208
 6487TIP3   OH241095   5.806   1.826   0.422 -0.2191 -0.2211 -0.0903
 6487TIP3    H141096   5.771   1.911   0.447 -0.0459  0.1447 -1.0611
 6487TIP3    H241097   5.850   1.841   0.339  0.2747 -1.1512 -0.0140
 6488TIP3   OH241098   5.297   3.234   7.656 -0.1283  0.4617 -0.7199
 6488TIP3    H141099   5.266   3.190   7.578  1.0023 -2.0126  0.1134
 6488TIP3    H241100   5.387   3.204   7.667 -0.3263  0.4869  1.6652
 6489TIP3   OH241101   4.985   1.754   7.773 -0.0527  0.5947 -0.7483
 6489TIP3    H141102   4.971   1.774   7.865 -0.1676 -0.9219 -0.4071
 6489TIP3    H241103   4.920   1.808   7.727 -0.8929  0.3919  0.1536
 6490TIP3   OH241104   5.478   0.194   7.392 -0.4242  0.4616  0.2651
 6490TIP3    H141105   5.561   0.187   7.344 -0.9802 -0.4324 -0.6290
 6490TIP3    H241106   5.478   0.119   7.451 -1.6960 -1.1691 -1.6311
 6491TIP3   OH241107   4.465   6.144   6.606 -0.2102 -0.3096 -0.4552
 6491TIP3    H141108   4.422   6.171   6.688 -1.3240  0.2221 -1.1937
 6491TIP3    H241109   4.555   6.126   6.632 -1.0869 -2.5548  1.3775
 6492TIP3   OH241110   3.439   2.848   7.304 -0.0002  0.0733 -0.0982
 6492TIP3    H141111   3.353   2.873   7.339  0.4625 -0.3538  1.4097
 6492TIP3    H241112   3.501   2.897   7.359  0.7336  0.1255 -0.9669
 6493TIP3   OH241113   4.664   1.690   7.484 -0.1332 -0.0366  0.2139
 6493TIP3    H141114   4.703   1.770   7.517 -1.7137  0.2348  1.5903
 6493TIP3    H241115   4.586   1.720   7.436  0.4595 -0.6364 -1.1755
 6494TIP3   OH241116   2.237   2.033   0.183 -0.1226 -0.0290 -0.1258
 6494TIP3    H141117   2.279   2.083   0.254  2.2555 -0.7534 -0.9062
 6494TIP3    H241118   2.229   1.945   0.218  0.0390 -0.1357 -0.3523
 6495TIP3   OH241119   3.011   6.268   7.673  0.5305  0.6070  0.0560
 6495TIP3    H141120   2.962   6.333   7.723 -0.4211  0.0116 -0.0717
 6495TIP3    H241121   3.012   6.302   7.583 -1.3051 -0.2493 -0.3355
 6496TIP3   OH241122   4.825   6.340   0.081  0.1825  0.0267  0.1614
 6496TIP3    H141123   4.848   6.430   0.059 -0.1513  0.4166  1.3089
 6496TIP3    H241124   4.872   6.286   0.018  0.2739  1.0109 -0.6271
 6497TIP3   OH241125   1.841   4.502   6.694 -0.0520 -0.2740  0.1405
 6497TIP3    H141126   1.804   4.422   6.656 -1.6121  1.7813 -3.1578
 6497TIP3    H241127   1.783   4.524   6.766 -2.6788  0.4135 -2.0378
 6498TIP3   OH241128   0.216   1.916   6.650 -0.0354  0.0393  0.5313
 6498TIP3    H141129   0.261   1.942   6.731  1.3908 -1.8872  0.4250
 6498TIP3    H241130   0.239   1.824   6.638 -1.5736 -0.1839 -1.2091
 6499TIP3   OH241131   1.725   3.840   0.777 -0.2099 -0.4838  0.3631
 6499TIP3    H141132   1.664   3.841   0.850 -0.0267 -0.3526  0.5152
 6499TIP3    H241133   1.810   3.823   0.816 -0.0772 -0.1939  0.2096
 6500TIP3   OH241134   5.168   1.239   1.976 -0.4564 -0.5383 -0.1289
 6500TIP3    H141135   5.252   1.279   2.000 -1.2757 -0.1398  2.3267
 6500TIP3    H241136   5.105   1.312   1.980 -1.1841 -1.1375 -0.4536
 6501TIP3   OH241137   0.104   2.575   8.052  0.2842  0.1195 -0.2024
 6501TIP3    H141138   0.165   2.511   8.090  0.6163 -0.5444 -1.7660
 6501TIP3    H241139   0.144   2.660   8.071  1.6605 -0.2981 -1.0791
 6502TIP3   OH241140   3.694   5.766   1.075 -0.3822  0.1457 -0.2807
 6502TIP3    H141141   3.656   5.694   1.125 -0.3917  0.5056  0.2371
 6502TIP3    H241142   3.630   5.836   1.082  0.8767  1.2019  1.6579
 6503TIP3   OH241143   6.443   2.184   2.544  0.1531  0.3022 -0.2884
 6503TIP3    H141144   6.531   2.174   2.508  0.4820 -1.1353  0.8263
 6503TIP3    H241145   6.404   2.254   2.492  0.6938 -1.3968 -3.2135
 6504TIP3   OH241146   0.840   4.188   0.853  0.1484 -0.1409  0.0561
 6504TIP3    H141147   0.881   4.205   0.938 -0.9908 -1.6093  0.9649
 6504TIP3    H241148   0.781   4.262   0.840  0.7527  0.3852  0.2738
 6505TIP3   OH241149   5.284   6.277   1.380 -0.0430  0.0531  0.5430
 6505TIP3    H141150   5.190   6.274   1.361 -0.5948  3.4366  1.9934
 6505TIP3    H241151   5.290   6.276   1.476  1.4748 -0.8773  0.4728
 6506TIP3   OH241152   5.277   6.249   7.887 -0.3421 -0.2066 -0.2892
 6506TIP3    H141153   5.291   6.197   7.966  2.4902 -0.5203 -0.9130
 6506TIP3    H241154   5.282   6.340   7.917 -0.9827 -0.2980  0.1240
 6507TIP3   OH241155   1.289   6.618   6.288  0.1039  0.1580 -0.1705
 6507TIP3    H141156   1.275   6.712   6.277  1.9016  0.5033  0.2005
 6507TIP3    H241157   1.364   6.598   6.232  0.0184 -0.9731  0.0888
 6508TIP3   OH241158   1.500   0.490   6.852 -0.9458 -0.0132 -0.5069
 6508TIP3    H141159   1.538   0.532   6.930 -1.7374 -1.2964  0.6030
 6508TIP3    H241160   1.494   0.561   6.788  2.9772  0.4166 -0.7003
 6509TIP3   OH241161   6.347   3.628   7.581  0.3852  0.3451  0.0900
 6509TIP3    H141162   6.389   3.581   7.653  1.2643 -0.1069 -0.6850
 6509TIP3    H241163   6.393   3.596   7.502 -0.8291  0.4977 -0.7068
 6510TIP3   OH241164   2.388   6.291   7.385  0.3419  0.1673  0.1726
 6510TIP3    H141165   2.294   6.303   7.375  0.6060  2.2206 -0.3036
 6510TIP3    H241166   2.416   6.363   7.442  1.7489  0.1842 -0.4924
 6511TIP3   OH241167   5.960   7.080   7.691  0.7046 -0.2618 -0.0550
 6511TIP3    H141168   5.884   7.048   7.642  0.4003  1.1711 -0.6025
 6511TIP3    H241169   5.997   7.148   7.634 -0.2238  2.1723  2.0522
 6512TIP3   OH241170   5.568   0.599   8.076 -0.2255  0.3076 -0.2812
 6512TIP3    H141171   5.550   0.601   8.170 -1.1446  0.6591 -0.4573
 6512TIP3    H241172   5.639   0.535   8.067  1.4474  1.8996  0.8838
 6513TIP3   OH241173   2.187   4.097   1.352  1.3106 -0.6212 -0.3252
 6513TIP3    H141174   2.147   4.028   1.405  0.0267 -0.5883 -1.2258
 6513TIP3    H241175   2.166   4.074   1.262  0.3687  1.2203 -0.6235
 6514TIP3   OH241176   6.389   3.120   6.779 -0.0898  0.4992  0.8091
 6514TIP3    H141177   6.352   3.206   6.763 -0.7733  0.2592  1.0736
 6514TIP3    H241178   6.447   3.133   6.855  1.8807  1.2744 -0.7342
 6515TIP3   OH241179   6.022   3.390   2.022 -0.1784  0.1915  0.0176
 6515TIP3    H141180   6.005   3.327   2.093  0.3096 -1.1043 -0.9764
 6515TIP3    H241181   6.098   3.439   2.052 -0.9001  0.7289  1.0581
 6516TIP3   OH241182   3.541   1.887   0.700  0.4871 -0.1361  0.2009
 6516TIP3    H141183   3.631   1.874   0.730 -0.0219 -0.4493  1.6334
 6516TIP3    H241184   3.487   1.840   0.763 -0.5899 -1.8227 -1.8226
 6517TIP3   OH241185   3.118   0.882   0.692  0.6768  0.1715 -0.1045
 6517TIP3    H141186   3.054   0.813   0.708  1.2640 -0.2365  0.5706
 6517TIP3    H241187   3.109   0.941   0.767  0.7564  0.3782 -0.2558
 6518TIP3   OH241188   0.325   3.827   6.077  0.1207 -0.4444  0.4568
 6518TIP3    H141189   0.397   3.862   6.024 -0.3695  0.5799  0.4374
 6518TIP3    H241190   0.352   3.843   6.167  0.3087 -0.8801  0.4824
 6519TIP3   OH241191   4.830   4.273   1.254 -0.5129  0.1413  0.0292
 6519TIP3    H141192   4.903   4.286   1.193 -0.5620 -1.1455 -0.3327
 6519TIP3    H241193   4.872   4.246   1.336 -0.4415  1.9474  0.6304
 6520TIP3   OH241194   6.516   2.632   0.182  0.3646  0.0481 -0.5532
 6520TIP3    H141195   6.425   2.635   0.213  0.1348  0.0981 -1.2176
 6520TIP3    H241196   6.517   2.560   0.118  1.6675 -2.5854  2.1674
 6521TIP3   OH241197   4.678   4.001   5.727  0.6663  0.2372  0.4908
 6521TIP3    H141198   4.583   4.006   5.718  0.8149  0.4398 -1.4684
 6521TIP3    H241199   4.707   4.092   5.731  0.8333  0.1987  0.1897
 6522TIP3   OH241200   3.104   5.349   7.293 -0.0530  0.2334 -0.1657
 6522TIP3    H141201   3.056   5.391   7.222  0.9453 -0.5903 -1.3806
 6522TIP3    H241202   3.144   5.272   7.253 -0.4304 -0.9535  1.5779
 6523TIP3   OH241203   6.671   0.306   8.265  0.6691  0.7164  0.5422
 6523TIP3    H141204   6.735   0.265   8.207 -1.9213  0.4488 -2.3686
 6523TIP3    H241205   6.696   0.399   8.266 -0.6256  1.2953 -3.3766
 6524TIP3   OH241206   2.568   3.871   1.452  0.2719 -0.0853  0.0894
 6524TIP3    H141207   2.501   3.895   1.516  0.6680 -0.4420  0.6503
 6524TIP3    H241208   2.585   3.952   1.403  1.1985  0.6651  1.5796
 6525TIP3   OH241209   4.803   0.347   6.792 -0.1734  0.3305 -0.6012
 6525TIP3    H141210   4.814   0.367   6.699  1.2094  1.3280 -0.2442
 6525TIP3    H241211   4.877   0.389   6.835  0.8144 -2.4306  0.6659
 6526TIP3   OH241212   6.893   6.583   7.613  0.1160  0.0209  0.1771
 6526TIP3    H141213   6.967   6.534   7.577 -0.4569 -0.8286  0.1154
 6526TIP3    H241214   6.829   6.515   7.635 -1.3862  0.8464 -1.4582
 6527TIP3   OH241215   0.339   5.613   6.364  0.1164 -0.2401  0.1066
 6527TIP3    H141216   0.382   5.698   6.377 -1.0196  0.0224  2.8871
 6527TIP3    H241217   0.255   5.621   6.410 -0.7714 -2.3251 -1.0153
 6528TIP3   OH241218   1.979   2.655   6.642  0.3428  0.3182  0.0283
 6528TIP3    H141219   1.893   2.697   6.634 -0.7510 -1.7167  0.5365
 6528TIP3    H241220   1.996   2.619   6.555  0.0301 -0.4609  0.2855
 6529TIP3   OH241221   4.213   1.814   0.847  0.5048  0.4150  0.5886
 6529TIP3    H141222   4.282   1.807   0.913  0.8898  2.4806  0.4804
 6529TIP3    H241223   4.180   1.903   0.856  0.3407  0.6624 -1.7544
 6530TIP3   OH241224   2.575   5.277   7.477 -0.4660 -0.0936 -0.3598
 6530TIP3    H141225   2.611   5.219   7.543  0.6393 -0.3464 -1.1560
 6530TIP3    H241226   2.642   5.346   7.466 -0.7808  0.1294 -0.9612
 6531TIP3   OH241227   5.768   0.221   6.876  0.1862 -0.0216 -0.6057
 6531TIP3    H141228   5.743   0.135   6.842  0.0091 -0.9537  1.6849
 6531TIP3    H241229   5.766   0.278   6.800 -1.3897 -1.6739 -1.9058
 6532TIP3   OH241230   0.985   6.298   1.223 -0.2601  0.1752 -0.0996
 6532TIP3    H141231   1.055   6.246   1.183 -0.4797  0.2694 -0.6081
 6532TIP3    H241232   0.921   6.233   1.252  1.2033 -0.1387  2.7507
 6533TIP3   OH241233   4.028   6.215   0.714  0.3471  0.2080 -0.3872
 6533TIP3    H141234   4.123   6.209   0.707  0.6713  1.3241  1.9408
 6533TIP3    H241235   4.012   6.308   0.732 -1.1367 -0.0582 -0.2120
 6534TIP3   OH241236   0.876   5.116   0.062 -0.0502  0.5644  0.1181
 6534TIP3    H141237   0.961   5.117   0.107 -0.2716  1.1183  0.5245
 6534TIP3    H241238   0.837   5.200   0.082 -0.6969  0.3168 -0.0894
 6535TIP3   OH241239   5.251   0.079   0.636  0.1988  0.0539  0.0310
 6535TIP3    H141240   5.341   0.087   0.603  0.5162  1.4093  1.1234
 6535TIP3    H241241   5.260   0.027   0.716  0.2231  1.2764  0.8469
 6536TIP3   OH241242   2.800   3.060   8.063  0.1711  0.4105  0.0046
 6536TIP3    H141243   2.707   3.038   8.067  0.0887  0.3631 -1.6928
 6536TIP3    H241244   2.844   2.986   8.105 -0.4444 -0.5223 -0.9458
 6537TIP3   OH241245   0.659   2.342   8.277  0.0850 -0.4935 -0.4910
 6537TIP3    H141246   0.633   2.422   8.322  0.5424  0.3245 -1.6292
 6537TIP3    H241247   0.588   2.281   8.293 -1.3069  0.8390 -1.3583
 6538TIP3   OH241248   0.628   2.789   6.151 -0.1966  0.5690  0.1551
 6538TIP3    H141249   0.568   2.864   6.148  0.7177  1.3066 -2.0045
 6538TIP3    H241250   0.714   2.828   6.170 -0.0959 -0.2819  1.5796
 6539TIP3   OH241251   4.574   3.804   0.344 -0.1924  0.0167 -0.1976
 6539TIP3    H141252   4.645   3.800   0.407 -1.0022  1.4024  0.8600
 6539TIP3    H241253   4.614   3.777   0.261  1.0795 -1.0583  0.7241
 6540TIP3   OH241254   1.340   2.467   7.671 -0.2226 -0.4428  0.2520
 6540TIP3    H141255   1.360   2.375   7.689 -3.0274 -1.3226 -0.5711
 6540TIP3    H241256   1.245   2.471   7.674 -0.2184  2.2288 -0.8253
 6541TIP3   OH241257   6.805   4.778   1.561  0.0289 -0.0402  0.7483
 6541TIP3    H141258   6.774   4.832   1.489  0.8680 -1.3968 -0.6852
 6541TIP3    H241259   6.893   4.752   1.535 -0.8196 -3.1991  0.6800
 6542TIP3   OH241260   4.739   4.323   7.910  0.9001  0.1900 -0.6027
 6542TIP3    H141261   4.688   4.297   7.986  1.2104  0.2857 -0.3589
 6542TIP3    H241262   4.828   4.294   7.930  0.6500 -1.5129 -1.7439
 6543TIP3   OH241263   0.535   5.480   1.721 -0.1612  0.2765 -0.7884
 6543TIP3    H141264   0.480   5.408   1.750  1.5375 -0.5515  0.5901
 6543TIP3    H241265   0.510   5.495   1.630 -1.9983 -0.6320 -0.4683
 6544TIP3   OH241266   3.026   1.435   1.080  0.2915 -0.0248  0.7736
 6544TIP3    H141267   3.092   1.504   1.086 -0.6049  1.1308 -1.3923
 6544TIP3    H241268   3.069   1.366   1.031  0.2937  0.2112  0.4376
 6545TIP3   OH241269   2.717   0.702   6.062 -0.4161 -0.2044 -0.8032
 6545TIP3    H141270   2.737   0.694   5.969  0.1781 -2.2316 -0.5648
 6545TIP3    H241271   2.796   0.740   6.101 -0.1116 -0.6510 -0.9660
 6546TIP3   OH241272   6.783   0.599   0.622 -0.3536 -0.4556  0.1594
 6546TIP3    H141273   6.711   0.588   0.684 -0.1065 -0.6704  0.4105
 6546TIP3    H241274   6.857   0.627   0.675  0.2247 -1.9372  0.1700
 6547TIP3   OH241275   4.529   0.301   1.471 -0.1351  0.2621 -0.2023
 6547TIP3    H141276   4.566   0.369   1.527  0.2098 -1.2795  1.5024
 6547TIP3    H241277   4.494   0.236   1.531  1.5636 -2.2038 -1.7073
 6548TIP3   OH241278   4.720   4.088   7.095  0.3406 -0.0523 -0.3347
 6548TIP3    H141279   4.785   4.155   7.116  0.4363 -0.1671 -0.2595
 6548TIP3    H241280   4.771   4.009   7.076  0.2109 -0.3164  0.3542
 6549TIP3   OH241281   0.148   1.925   1.402 -0.3223  0.2005  0.5126
 6549TIP3    H141282   0.124   1.834   1.389  1.3463 -0.5160  1.9871
 6549TIP3    H241283   0.185   1.952   1.318  0.5970 -0.9881  0.5068
 6550TIP3   OH241284   6.068   5.086   5.988 -0.1037  0.0418  1.1790
 6550TIP3    H141285   6.102   4.997   5.991 -0.7614 -0.1995  1.8963
 6550TIP3    H241286   5.976   5.077   5.964  0.1936  0.6589 -0.3384
 6551TIP3   OH241287   5.864   5.304   7.939 -0.3556 -0.2220  0.3584
 6551TIP3    H141288   5.777   5.290   7.977  0.8253 -2.0966  2.7076
 6551TIP3    H241289   5.859   5.266   7.851 -1.7751 -0.7177  0.6374
 6552TIP3   OH241290   5.664   2.597   7.469  0.3959 -0.2942 -0.2529
 6552TIP3    H141291   5.617   2.600   7.386 -0.1291  1.2811  0.0800
 6552TIP3    H241292   5.638   2.676   7.515  1.6110 -0.5349  0.9206
 6553TIP3   OH241293   5.791   6.481   0.597  0.7485 -0.2938 -0.3873
 6553TIP3    H141294   5.785   6.488   0.502  1.9685  0.8908 -0.3973
 6553TIP3    H241295   5.855   6.411   0.612  1.3556  0.2496 -0.4459
 6554TIP3   OH241296   5.372   0.132   6.656 -0.4497  0.1092 -0.0315
 6554TIP3    H141297   5.391   0.224   6.670  1.4954 -0.1657 -0.6178
 6554TIP3    H241298   5.424   0.086   6.722 -1.9366 -0.5748  0.7174
 6555TIP3   OH241299   0.196   4.942   7.531  0.0292 -0.5875  0.4243
 6555TIP3    H141300   0.172   5.035   7.521 -2.6068 -1.1341  0.9675
 6555TIP3    H241301   0.151   4.898   7.459 -3.3104 -2.0611  3.1680
 6556TIP3   OH241302   2.152   3.695   1.302  0.1192 -0.0793  0.2658
 6556TIP3    H141303   2.226   3.634   1.303 -0.4975 -0.9219 -1.3776
 6556TIP3    H241304   2.134   3.713   1.394  0.5941 -2.0975  0.7941
 6557TIP3   OH241305   1.295   1.173   7.440  0.1586 -0.1832 -0.5549
 6557TIP3    H141306   1.301   1.098   7.381  0.0586 -0.6761  0.0565
 6557TIP3    H241307   1.294   1.249   7.382 -0.8526 -0.6973 -1.2453
 6558TIP3   OH241308   6.240   4.572   6.479 -0.4066  0.0001  0.0463
 6558TIP3    H141309   6.148   4.544   6.485 -0.7201  0.8969 -0.3183
 6558TIP3    H241310   6.249   4.607   6.390  0.8986 -2.0475 -0.6779
 6559TIP3   OH241311   2.460   0.602   1.687 -0.1702 -0.1944 -0.1024
 6559TIP3    H141312   2.539   0.656   1.681 -1.4765  2.0832  1.7024
 6559TIP3    H241313   2.454   0.577   1.779  0.0574 -3.0598 -0.7634
 6560TIP3   OH241314   6.458   3.938   0.494  0.3128 -0.4738 -1.1002
 6560TIP3    H141315   6.514   3.963   0.568 -0.8825 -1.5245  0.2169
 6560TIP3    H241316   6.520   3.914   0.425  1.4695  0.4118 -0.4179
 6561TIP3   OH241317   6.659   6.328   2.446 -0.0655  0.7441  0.5388
 6561TIP3    H141318   6.713   6.252   2.424  0.7266  1.7740 -1.2883
 6561TIP3    H241319   6.636   6.367   2.361 -3.0192  0.8492  1.2597
 6562TIP3   OH241320   2.190   1.077   0.801  0.1305 -0.2434 -0.5074
 6562TIP3    H141321   2.185   1.086   0.706 -1.2777  1.1598 -0.3439
 6562TIP3    H241322   2.250   1.146   0.830 -1.9289  1.5167 -0.1714
 6563TIP3   OH241323   6.904   0.760   0.394 -0.4741  0.2001 -0.3511
 6563TIP3    H141324   6.849   0.740   0.470 -0.3365  0.4758 -0.1776
 6563TIP3    H241325   6.976   0.696   0.399 -1.7001 -1.3597 -1.5763
 6564TIP3   OH241326   5.502   0.997   7.142  0.6280 -0.0852  0.2728
 6564TIP3    H141327   5.575   1.057   7.128  0.1452  0.8445  1.5287
 6564TIP3    H241328   5.531   0.914   7.105  1.5157  0.7857 -1.0455
 6565TIP3   OH241329   2.738   6.213   7.350 -0.5012  0.4784  0.0335
 6565TIP3    H141330   2.741   6.120   7.370  2.4736  0.9432  2.4956
 6565TIP3    H241331   2.675   6.248   7.414  0.6689  0.4872  1.2275
 6566TIP3   OH241332   6.425   6.515   1.374  0.5737 -0.4995 -0.7354
 6566TIP3    H141333   6.407   6.585   1.311 -0.2906 -0.1526 -0.1155
 6566TIP3    H241334   6.341   6.472   1.386  0.9877 -1.3226 -0.7093
 6567TIP3   OH241335   6.710   1.216   5.936  0.4065 -0.5179 -0.1713
 6567TIP3    H141336   6.770   1.285   5.910  0.7971  0.1354  2.1971
 6567TIP3    H241337   6.633   1.263   5.969  0.7468 -1.1430  1.6229
 6568TIP3   OH241338   0.043   5.383   8.056 -0.2160 -0.1691 -0.2713
 6568TIP3    H141339   0.021   5.307   8.110 -1.5485  0.6723  0.4257
 6568TIP3    H241340   0.107   5.431   8.109  1.6928 -1.4404 -1.3009
 6569TIP3   OH241341   4.597   1.301   0.357  0.0820  0.0380  0.0413
 6569TIP3    H141342   4.579   1.216   0.316  1.9899 -1.5240  2.1855
 6569TIP3    H241343   4.554   1.296   0.443 -0.4435  1.5831 -0.1052
 6570TIP3   OH241344   2.462   1.891   2.544 -0.2188  0.4165 -0.0480
 6570TIP3    H141345   2.536   1.837   2.571 -0.6227  0.7454  1.8676
 6570TIP3    H241346   2.468   1.969   2.600 -1.3148  1.0043 -0.7215
 6571TIP3   OH241347   3.856   5.596   0.436  0.6356 -0.3507  0.0213
 6571TIP3    H141348   3.783   5.536   0.451  0.4208 -0.1543 -0.2289
 6571TIP3    H241349   3.818   5.683   0.451  0.9310 -0.2724  0.3288
 6572TIP3   OH241350   5.965   1.402   1.319 -0.0045  0.3781 -0.1779
 6572TIP3    H141351   5.876   1.418   1.288  0.2224  1.4634 -0.2953
 6572TIP3    H241352   6.019   1.404   1.240  0.2026  0.3270 -0.0381
 6573TIP3   OH241353   6.808   7.023   2.015  0.4212 -0.0771  0.2504
 6573TIP3    H141354   6.813   6.932   2.044  0.0077 -0.9744 -2.2849
 6573TIP3    H241355   6.895   7.042   1.980 -0.0756 -0.1857 -1.0688
 6574TIP3   OH241356   3.956   4.238   1.619 -0.5075 -0.7244 -0.1113
 6574TIP3    H141357   4.044   4.254   1.584 -0.3580 -0.0849  0.5232
 6574TIP3    H241358   3.969   4.169   1.685 -0.4796 -0.6165 -0.0041
 6575TIP3   OH241359   3.743   3.843   5.965 -0.0823  0.1932 -0.7607
 6575TIP3    H141360   3.731   3.908   5.895 -1.2839  0.2318 -0.5343
 6575TIP3    H241361   3.730   3.759   5.922  0.1191  0.1678 -0.7732
 6576TIP3   OH241362   3.518   3.821   6.200 -0.0068  0.3134  0.1971
 6576TIP3    H141363   3.581   3.893   6.200 -0.6463  0.8919 -0.8586
 6576TIP3    H241364   3.567   3.745   6.168  1.3289 -0.4026  3.4688
 6577TIP3   OH241365   6.246   0.395   7.391 -0.0163  0.2010 -0.0448
 6577TIP3    H141366   6.269   0.488   7.389 -3.8436  1.3363  0.2568
 6577TIP3    H241367   6.200   0.380   7.308 -1.9315 -0.5837  1.0904
 6578TIP3   OH241368   0.540   6.386   1.157  0.0303 -0.3838 -0.2619
 6578TIP3    H141369   0.564   6.447   1.227  2.6957  0.4095 -1.7430
 6578TIP3    H241370   0.511   6.443   1.085 -0.3549 -1.0571 -0.6489
 6579TIP3   OH241371   4.771   0.621   6.997 -0.1719 -0.2202 -0.4911
 6579TIP3    H141372   4.795   0.712   7.017 -2.4760  0.6126 -1.1440
 6579TIP3    H241373   4.846   0.586   6.948  3.3379 -0.6394  4.5142
 6580TIP3   OH241374   2.720   1.209   0.879  0.2205 -0.3602 -0.6932
 6580TIP3    H141375   2.739   1.286   0.933 -0.3705 -0.3862 -0.4340
 6580TIP3    H241376   2.787   1.146   0.903 -0.7984 -0.8644  1.0507
 6581TIP3   OH241377   4.416   3.863   7.077 -0.4192 -0.2790  0.0628
 6581TIP3    H141378   4.461   3.932   7.028  0.4752 -0.2408  0.9045
 6581TIP3    H241379   4.482   3.794   7.087 -0.4480 -0.1365  1.4943
 6582TIP3   OH241380   1.536   2.765   7.991  0.2321 -0.2444  0.3200
 6582TIP3    H141381   1.590   2.726   7.922  0.0784 -0.4779  0.3290
 6582TIP3    H241382   1.448   2.731   7.974 -0.0430  0.6442 -0.0806
 6583TIP3   OH241383   2.462   0.355   8.063 -1.0424 -0.0587 -0.4304
 6583TIP3    H141384   2.385   0.311   8.029 -0.4554  0.4139 -2.4739
 6583TIP3    H241385   2.449   0.448   8.043  0.0981  0.0162 -0.9201
 6584TIP3   OH241386   1.263   3.714   1.009 -0.0531  0.0960  0.6389
 6584TIP3    H141387   1.221   3.659   1.075  0.6812 -0.2660  0.8118
 6584TIP3    H241388   1.192   3.736   0.948 -0.1858 -1.8496  0.0175
 6585TIP3   OH241389   2.724   1.290   0.119 -0.0719 -0.4511  0.1939
 6585TIP3    H141390   2.728   1.364   0.058  1.9929 -1.1280 -0.5935
 6585TIP3    H241391   2.693   1.217   0.066  0.7698 -0.8109  0.1770
 6586TIP3   OH241392   0.130   6.822   0.336 -0.5224 -0.3454 -0.4438
 6586TIP3    H141393   0.209   6.803   0.285  0.7113 -0.4568  1.4164
 6586TIP3    H241394   0.097   6.736   0.361 -1.4895 -0.3144 -1.5137
 6587TIP3   OH241395   1.660   1.005   6.937  0.2997 -0.3762 -0.3046
 6587TIP3    H141396   1.686   0.940   7.003  2.8596  0.5894 -0.2529
 6587TIP3    H241397   1.656   0.955   6.855 -2.4524 -1.4905  0.4067
 6588TIP3   OH241398   0.506   5.207   1.899  0.6451  0.0786 -0.2490
 6588TIP3    H141399   0.429   5.228   1.846  1.0137  0.1072 -0.7693
 6588TIP3    H241400   0.491   5.116   1.926  0.2832  0.1805 -0.1004
 6589TIP3   OH241401   4.304   0.383   6.576  1.0462  0.0735  0.4327
 6589TIP3    H141402   4.240   0.399   6.645  0.7320 -0.7305  0.3360
 6589TIP3    H241403   4.265   0.315   6.521  1.5628  0.2583 -0.1818
 6590TIP3   OH241404   2.779   2.534   0.372 -0.1920  0.6009 -0.2848
 6590TIP3    H141405   2.695   2.497   0.400  0.8411 -0.6304  1.3990
 6590TIP3    H241406   2.818   2.465   0.317  1.4217 -0.6808  2.2629
 6591TIP3   OH241407   1.971   5.446   7.034 -0.3961 -0.3248  0.3445
 6591TIP3    H141408   1.967   5.542   7.034  1.0935 -0.2290  1.0755
 6591TIP3    H241409   1.952   5.421   7.124 -0.3632 -0.6801  0.2536
 6592TIP3   OH241410   6.829   1.101   6.993 -0.3335  0.4238 -0.2691
 6592TIP3    H141411   6.852   1.194   6.989  0.0666  0.2823 -1.7452
 6592TIP3    H241412   6.787   1.082   6.909 -1.5773 -0.4510  0.5066
 6593TIP3   OH241413   5.743   4.072   0.274 -0.0340  0.2577  0.1724
 6593TIP3    H141414   5.722   3.981   0.298 -1.9407  0.7055  0.3360
 6593TIP3    H241415   5.695   4.125   0.337  1.4574  1.4112  0.3847
 6594TIP3   OH241416   4.224   3.313   6.874 -0.4061 -0.3690 -0.1147
 6594TIP3    H141417   4.186   3.256   6.940  0.1962 -1.0989 -0.3884
 6594TIP3    H241418   4.149   3.348   6.825 -0.7416 -1.8259 -0.6866
 6595TIP3   OH241419   0.530   1.886   6.706 -0.3611  0.0453 -0.7700
 6595TIP3    H141420   0.505   1.943   6.633 -0.0319 -0.4948 -1.3139
 6595TIP3    H241421   0.625   1.890   6.708 -0.3768  0.4420 -0.0394
 6596TIP3   OH241422   0.128   4.983   1.268  0.1357 -0.0808  0.4208
 6596TIP3    H141423   0.104   5.051   1.330 -1.1449 -0.6134  0.5347
 6596TIP3    H241424   0.058   4.983   1.203  0.9661 -0.1843 -0.4928
 6597TIP3   OH241425   3.159   5.493   6.470  0.4565  0.1219  0.2893
 6597TIP3    H141426   3.110   5.436   6.528 -0.9546  0.4516 -0.5215
 6597TIP3    H241427   3.096   5.519   6.403  1.3877  1.6141 -0.0738
 6598TIP3   OH241428   3.194   0.441   7.737 -0.0466 -1.1061 -0.0915
 6598TIP3    H141429   3.126   0.442   7.803  0.9396 -1.9256  0.9707
 6598TIP3    H241430   3.147   0.437   7.654 -1.3548  1.6862  0.3997
 6599TIP3   OH241431   5.271   2.891   7.125 -0.2761 -0.0282 -0.2081
 6599TIP3    H141432   5.267   2.802   7.088 -0.1447  0.5194 -1.5991
 6599TIP3    H241433   5.299   2.946   7.052 -0.2539  1.1524  0.6658
 6600TIP3   OH241434   3.921   3.364   6.991  0.4090  0.2073 -0.3247
 6600TIP3    H141435   3.847   3.424   6.987  0.5243  0.3029 -1.4213
 6600TIP3    H241436   3.928   3.340   7.083  0.6208  2.1902  0.2222
 6601TIP3   OH241437   2.451   5.736   1.143 -0.4474 -0.0666  0.2725
 6601TIP3    H141438   2.391   5.809   1.129  0.3657  0.8188  1.2367
 6601TIP3    H241439   2.441   5.681   1.065  0.7563  2.3354 -1.6832
 6602TIP3   OH241440   0.036   6.481   6.531  0.5524 -0.6800  0.0215
 6602TIP3    H141441   0.056   6.450   6.619  0.9398 -0.9204 -0.1458
 6602TIP3    H241442   0.099   6.436   6.475  0.7700 -0.0034 -0.2926
 6603TIP3   OH241443   5.381   3.764   7.641 -0.0938  0.5360  0.6135
 6603TIP3    H141444   5.359   3.673   7.659 -1.4559  0.7727  0.2783
 6603TIP3    H241445   5.313   3.814   7.686  0.0726  1.3424 -0.0165
 6604TIP3   OH241446   1.276   2.141   6.053  0.1379 -0.3927  0.2056
 6604TIP3    H141447   1.371   2.153   6.054  0.2624 -1.3165  0.2456
 6604TIP3    H241448   1.244   2.200   6.121  0.5917  0.5978 -0.4203
 6605TIP3   OH241449   1.664   5.328   0.538  1.1185 -0.5323  0.7008
 6605TIP3    H141450   1.594   5.334   0.473  0.7249 -2.0979  0.9550
 6605TIP3    H241451   1.739   5.295   0.490  1.8088  1.3679  0.3761
 6606TIP3   OH241452   2.864   3.532   0.183 -0.2293 -0.4594  0.4731
 6606TIP3    H141453   2.933   3.539   0.249  1.0344 -2.3835 -0.5574
 6606TIP3    H241454   2.909   3.544   0.099 -1.1107 -1.7998 -0.2328
 6607TIP3   OH241455   0.410   4.360   7.127 -0.0850 -0.2736 -0.1341
 6607TIP3    H141456   0.390   4.450   7.152 -0.3219 -0.7135  1.3099
 6607TIP3    H241457   0.494   4.366   7.081 -0.0118  0.6556  0.1027
 6608TIP3   OH241458   1.252   4.092   7.517 -0.8193  0.2163  0.0411
 6608TIP3    H141459   1.305   4.016   7.490 -1.9282 -1.1880  1.5795
 6608TIP3    H241460   1.207   4.120   7.437 -0.4020 -0.7842 -0.5590
 6609TIP3   OH241461   5.680   2.333   7.914 -0.4046  0.6863 -0.1481
 6609TIP3    H141462   5.669   2.282   7.833 -0.1374  0.5997 -0.1298
 6609TIP3    H241463   5.775   2.339   7.926 -0.4360 -0.6872  1.0317
 6610TIP3   OH241464   4.239   1.371   8.110 -0.6010  0.1727  0.0495
 6610TIP3    H141465   4.198   1.310   8.049  2.0710 -2.5099  0.7534
 6610TIP3    H241466   4.254   1.320   8.189  0.3383  2.2301  1.2729
 6611TIP3   OH241467   3.067   5.240   8.170  0.2789 -0.3430 -0.3847
 6611TIP3    H141468   3.123   5.185   8.226 -0.2491 -1.7261 -1.1742
 6611TIP3    H241469   3.098   5.329   8.187  2.3115 -0.9911 -0.3040
 6612TIP3   OH241470   2.081   1.902   6.580  0.0750 -0.1767  0.5201
 6612TIP3    H141471   2.049   1.812   6.568  1.0356 -0.2319 -2.3965
 6612TIP3    H241472   2.006   1.957   6.554  0.4425 -0.2216 -0.6955
 6613TIP3   OH241473   4.513   1.987   1.595  0.2821  0.1543 -0.5307
 6613TIP3    H141474   4.513   2.005   1.689 -0.2071  0.3559 -0.5613
 6613TIP3    H241475   4.594   1.939   1.579  0.1834 -0.2212  0.0607
 6614TIP3   OH241476   2.528   2.514   6.836  0.4911  0.1452  0.0042
 6614TIP3    H141477   2.521   2.606   6.863  1.2170  0.6876 -1.5634
 6614TIP3    H241478   2.449   2.473   6.872 -0.2430  1.5436  0.0716
 6615TIP3   OH241479   6.134   3.550   0.436 -0.4309  0.2529  0.4510
 6615TIP3    H141480   6.170   3.638   0.428  1.4156 -0.4580  0.6375
 6615TIP3    H241481   6.195   3.503   0.492 -0.7637 -1.4716 -0.5501
 6616TIP3   OH241482   3.206   3.385   1.337 -0.1872 -0.0151 -0.2484
 6616TIP3    H141483   3.199   3.463   1.281 -0.3621 -0.8337 -1.3964
 6616TIP3    H241484   3.116   3.365   1.362 -0.0788  0.5445  0.6173
 6617TIP3   OH241485   4.894   6.270   6.786 -0.4059  0.1629 -0.0314
 6617TIP3    H141486   4.813   6.296   6.830 -0.5424 -0.3563  0.0427
 6617TIP3    H241487   4.922   6.347   6.738  1.7088  2.0392  3.7894
 6618TIP3   OH241488   3.086   6.684   1.042 -0.4311  0.2388 -0.2941
 6618TIP3    H141489   3.087   6.594   1.075  3.0684  0.3797  0.3503
 6618TIP3    H241490   3.056   6.736   1.117 -0.6871 -0.2074 -0.0793
 6619TIP3   OH241491   0.183   3.162   1.288 -0.5382 -0.3293  1.3151
 6619TIP3    H141492   0.095   3.201   1.294 -0.7029 -0.8310  2.3101
 6619TIP3    H241493   0.238   3.218   1.343 -0.0544  0.4220  0.1043
 6620TIP3   OH241494   3.316   6.633   6.514 -0.3053  0.2946 -0.0797
 6620TIP3    H141495   3.224   6.608   6.503  0.1365 -1.3900 -0.2312
 6620TIP3    H241496   3.336   6.612   6.605  0.3612 -0.9641 -0.4908
 6621TIP3   OH241497   2.921   2.857   7.078  0.0317 -0.5527 -0.2033
 6621TIP3    H141498   2.908   2.763   7.088  0.8854 -0.4714  2.8216
 6621TIP3    H241499   2.883   2.895   7.157  0.2667  1.5972 -1.0490
 6622TIP3   OH241500   1.108   4.345   7.021 -0.1457  0.1876  0.3336
 6622TIP3    H141501   1.160   4.330   7.100  0.6517  1.2603  0.0306
 6622TIP3    H241502   1.127   4.269   6.965 -0.8307 -0.6523  1.2038
 6623TIP3   OH241503   3.279   5.690   1.056 -0.0358  0.1579 -0.6063
 6623TIP3    H141504   3.297   5.598   1.077  0.0880  0.5980  1.3925
 6623TIP3    H241505   3.190   5.704   1.086  0.3102  0.9534  0.0751
 6624TIP3   OH241506   0.873   0.531   6.959 -0.8150 -0.1904  0.2153
 6624TIP3    H141507   0.885   0.615   6.914 -0.8565 -0.8696 -1.1235
 6624TIP3    H241508   0.889   0.551   7.051  4.9787  0.2965 -0.4907
 6625TIP3   OH241509   1.263   6.634   0.509 -0.5149 -0.1348  0.2006
 6625TIP3    H141510   1.295   6.725   0.511 -1.3332  0.2463  4.0827
 6625TIP3    H241511   1.326   6.585   0.561 -0.1644 -1.8528 -1.7354
 6626TIP3   OH241512   1.155   3.647   1.509  0.2528 -0.1122 -0.0900
 6626TIP3    H141513   1.101   3.624   1.434 -0.9446 -0.8621  0.9622
 6626TIP3    H241514   1.206   3.723   1.480  1.0676 -1.3901 -2.2013
 6627TIP3   OH241515   4.157   2.484   0.233  0.1457  0.0778  0.4624
 6627TIP3    H141516   4.207   2.428   0.292  0.4306  0.0512  0.2001
 6627TIP3    H241517   4.074   2.498   0.277  0.4704  0.3047  1.0042
 6628TIP3   OH241518   1.813   6.361   1.460  0.4234 -0.4583  0.4724
 6628TIP3    H141519   1.809   6.377   1.554  0.7518 -0.1797  0.4400
 6628TIP3    H241520   1.766   6.435   1.421  1.7462  0.3336  0.3342
 6629TIP3   OH241521   2.831   6.847   0.390  0.0602  0.3438 -0.1969
 6629TIP3    H141522   2.804   6.839   0.482 -0.2575 -0.6702 -0.3673
 6629TIP3    H241523   2.749   6.855   0.342  0.1936  0.0852 -0.4664
 6630TIP3   OH241524   3.191   6.281   0.386  0.0649  0.1359 -0.0093
 6630TIP3    H141525   3.247   6.222   0.335 -0.0542 -0.9611  1.0838
 6630TIP3    H241526   3.219   6.368   0.359  0.9205 -0.3979 -0.9650
 6631TIP3   OH241527   5.600   1.274   6.307 -0.1335  0.4839 -0.3112
 6631TIP3    H141528   5.513   1.290   6.342  0.9073  1.1290  2.2955
 6631TIP3    H241529   5.613   1.341   6.241 -1.8319 -0.0519 -1.2277
 6632TIP3   OH241530   0.919   1.412   2.105  0.0429 -0.2680  0.0152
 6632TIP3    H141531   0.955   1.500   2.090  0.9802 -0.6940 -0.3187
 6632TIP3    H241532   0.953   1.387   2.191 -0.6516 -0.1038  0.3436
 6633TIP3   OH241533   4.835   5.364   7.068 -0.3361  0.8497 -0.4317
 6633TIP3    H141534   4.885   5.340   6.989 -0.5622  2.0728 -0.9637
 6633TIP3    H241535   4.894   5.343   7.141  1.1030  2.4736 -1.0456
 6634TIP3   OH241536   0.549   4.904   8.210 -0.1969  0.4717  0.1774
 6634TIP3    H141537   0.509   4.867   8.131 -0.3168  0.1887  0.3723
 6634TIP3    H241538   0.630   4.854   8.221 -1.0263 -0.7115  1.2350
 6635TIP3   OH241539   4.633   1.554   8.244  0.3394  0.2649 -0.1384
 6635TIP3    H141540   4.547   1.584   8.216 -0.1388  0.1846  1.1922
 6635TIP3    H241541   4.658   1.488   8.179 -0.8193 -0.0604 -0.2645
 6636TIP3   OH241542   4.496   0.616   7.503  0.1989 -0.1774 -0.1400
 6636TIP3    H141543   4.488   0.694   7.447  1.0507  0.7265  0.9405
 6636TIP3    H241544   4.579   0.577   7.476  0.1975 -0.2143 -0.0891
 6637TIP3   OH241545   2.413   2.901   1.361  0.0586 -0.3019  0.5153
 6637TIP3    H141546   2.351   2.910   1.435  0.9681  0.2484  1.2310
 6637TIP3    H241547   2.423   2.991   1.328  0.0515 -0.4757  0.0340
 6638TIP3   OH241548   1.460   4.388   1.139  0.2348 -0.5390 -0.2130
 6638TIP3    H141549   1.502   4.349   1.063  1.4205 -1.3676  0.8223
 6638TIP3    H241550   1.527   4.445   1.177  0.8830 -2.5623  1.9689
 6639TIP3   OH241551   1.391   4.109   7.758  0.2918 -0.5698  0.1494
 6639TIP3    H141552   1.370   4.109   7.664 -0.5234  1.3554  0.2709
 6639TIP3    H241553   1.451   4.036   7.770 -2.8197 -3.5796 -1.0932
 6640TIP3   OH241554   4.264   3.344   7.622  0.1556 -0.1687  0.7230
 6640TIP3    H141555   4.345   3.356   7.572  0.4977 -1.1081  1.0155
 6640TIP3    H241556   4.205   3.411   7.589  0.7785  0.0002 -0.0913
 6641TIP3   OH241557   1.441   6.852   0.460 -0.0323  0.2902 -0.4211
 6641TIP3    H141558   1.434   6.945   0.438  0.0446 -0.2437 -3.1010
 6641TIP3    H241559   1.518   6.845   0.515  1.0818  1.6181 -1.7375
 6642TIP3   OH241560   1.721   3.570   0.872  0.0847  0.4558  0.6625
 6642TIP3    H141561   1.708   3.481   0.838 -2.6808  0.6452  1.0070
 6642TIP3    H241562   1.754   3.620   0.798 -3.5319  0.3046 -1.2580
 6643TIP3   OH241563   6.788   4.705   7.563  0.4357  0.0588  0.3255
 6643TIP3    H141564   6.737   4.750   7.496  0.6157 -0.0398  0.1219
 6643TIP3    H241565   6.791   4.614   7.533  1.1333  0.1580  0.0933
 6644TIP3   OH241566   0.297   5.184   7.375 -0.5350 -0.1387  0.2900
 6644TIP3    H141567   0.370   5.123   7.368 -1.0234 -0.5430 -2.3039
 6644TIP3    H241568   0.317   5.253   7.312 -1.4884  0.7693  0.9386
 6645TIP3   OH241569   5.136   1.477   7.533 -0.3826 -0.1244 -0.1948
 6645TIP3    H141570   5.087   1.431   7.601 -2.9312  0.5889 -1.4406
 6645TIP3    H241571   5.088   1.460   7.453  0.7583  1.6129 -1.3195
 6646TIP3   OH241572   3.850   4.776   2.334  0.5096  0.1939  0.2285
 6646TIP3    H141573   3.805   4.704   2.379  1.4664  0.6900  2.0882
 6646TIP3    H241574   3.793   4.852   2.350  1.4072  0.6046  1.6699
 6647TIP3   OH241575   7.021   4.846   7.947  0.7786 -0.0381  0.3763
 6647TIP3    H141576   7.016   4.815   8.037  0.6675 -1.7705 -0.1857
 6647TIP3    H241577   6.934   4.827   7.910  1.0140  0.0840 -0.2599
 6648TIP3   OH241578   5.332   5.333   1.507 -0.0743 -0.3641  0.1695
 6648TIP3    H141579   5.313   5.355   1.599 -0.2652 -0.5673  0.1793
 6648TIP3    H241580   5.356   5.417   1.467  0.5522 -0.3641  0.5353
 6649TIP3   OH241581   1.868   6.662   6.869 -0.6689 -0.3276 -0.2507
 6649TIP3    H141582   1.798   6.719   6.901 -1.5354 -0.1977 -2.1814
 6649TIP3    H241583   1.932   6.721   6.831 -0.7058 -0.5361 -0.6526
 6650TIP3   OH241584   4.054   4.213   0.852 -0.1824  0.0594  0.1229
 6650TIP3    H141585   4.149   4.221   0.863 -0.4062  0.7344  1.9496
 6650TIP3    H241586   4.038   4.118   0.848  0.4241 -0.1470  1.7277
 6651TIP3   OH241587   6.101   6.149   6.261 -0.0605  0.1440 -0.1128
 6651TIP3    H141588   6.141   6.089   6.198  0.6134 -1.2097  1.5398
 6651TIP3    H241589   6.009   6.124   6.263  0.2567 -1.0066  0.7193
 6652TIP3   OH241590   0.595   6.175   6.161  0.1561  0.1210  0.0500
 6652TIP3    H141591   0.674   6.201   6.208  0.6618 -0.6315 -0.3486
 6652TIP3    H241592   0.522   6.200   6.218  0.6089  2.1534 -0.2209
 6653TIP3   OH241593   1.852   5.107   8.213 -0.2740  0.4533  0.4424
 6653TIP3    H141594   1.921   5.113   8.147 -0.6158 -0.7078 -0.0478
 6653TIP3    H241595   1.898   5.101   8.296  0.4488 -3.9034 -0.0788
 6654TIP3   OH241596   3.104   4.673   1.630 -0.5243  0.5062 -0.4608
 6654TIP3    H141597   3.014   4.690   1.658 -0.4339 -0.2239  0.3202
 6654TIP3    H241598   3.130   4.753   1.585 -1.3656  0.9527 -0.1835
 6655TIP3   OH241599   2.120   1.483   0.950  0.7997  0.5929  0.0721
 6655TIP3    H141600   2.157   1.438   1.026  1.2670 -0.5567 -0.8038
 6655TIP3    H241601   2.069   1.416   0.905  4.3465 -0.2681 -3.2262
 6656TIP3   OH241602   5.293   6.076   6.335  0.1277 -0.0428 -0.6464
 6656TIP3    H141603   5.312   5.986   6.361  0.4480  0.0298 -0.6191
 6656TIP3    H241604   5.262   6.119   6.415 -0.8180 -0.3384 -0.8433
 6657TIP3   OH241605   2.794   3.754   1.646  0.1037 -0.2227 -0.2300
 6657TIP3    H141606   2.826   3.844   1.653 -1.5798  0.3499  0.6752
 6657TIP3    H241607   2.737   3.756   1.569 -0.8342 -0.1924  0.4457
 6658TIP3   OH241608   3.745   1.791   7.962 -0.3695 -0.5127  0.0377
 6658TIP3    H141609   3.695   1.710   7.959 -1.8049  0.3637 -1.6244
 6658TIP3    H241610   3.718   1.834   8.043 -1.0819 -0.7903 -0.0526
 6659TIP3   OH241611   4.210   0.229   8.195 -0.5672 -0.4535 -0.3370
 6659TIP3    H141612   4.187   0.315   8.160 -2.6574 -0.9941 -0.4086
 6659TIP3    H241613   4.297   0.212   8.160  0.3671  2.0665  0.5494
 6660TIP3   OH241614   1.863   5.100   7.099 -0.2920  0.7104  0.1462
 6660TIP3    H141615   1.768   5.107   7.087 -0.8257 -1.1920  2.4134
 6660TIP3    H241616   1.880   5.006   7.096  1.2283  0.9047  1.4552
 6661TIP3   OH241617   0.589   3.944   0.111 -0.0405 -0.3173 -0.3613
 6661TIP3    H141618   0.588   3.975   0.202  2.9982 -1.7602  0.2743
 6661TIP3    H241619   0.636   4.012   0.063  0.8649 -0.8599 -0.2598
 6662TIP3   OH241620   2.093   1.663   2.580 -0.3098  0.3317 -0.3229
 6662TIP3    H141621   2.029   1.719   2.535 -0.2228 -1.1270 -2.3872
 6662TIP3    H241622   2.178   1.700   2.556 -0.2568  1.6749  1.6308
 6663TIP3   OH241623   1.181   7.024   0.680 -0.5101 -0.2125 -0.1205
 6663TIP3    H141624   1.274   7.006   0.688 -0.8536 -1.5565  1.5474
 6663TIP3    H241625   1.164   7.094   0.743 -0.6514 -0.0593 -0.3278
 6664TIP3   OH241626   2.557   6.514   0.787 -0.0410 -0.1336  1.1096
 6664TIP3    H141627   2.592   6.557   0.709 -0.7121 -0.7398  0.4629
 6664TIP3    H241628   2.485   6.571   0.815 -0.3240 -0.3370  0.8039
 6665TIP3   OH241629   4.237   4.223   1.580  0.0319 -0.3932  0.0135
 6665TIP3    H141630   4.218   4.129   1.582  0.1052 -0.4324 -0.8211
 6665TIP3    H241631   4.267   4.244   1.669  0.2547 -1.2032  0.1318
 6666TIP3   OH241632   2.209   2.572   0.925  0.0248 -0.0601  0.2306
 6666TIP3    H141633   2.193   2.556   0.832 -0.8694  1.3345  0.1224
 6666TIP3    H241634   2.130   2.615   0.956 -0.0279 -1.2565  1.8556
 6667TIP3   OH241635   2.305   3.555   7.507  0.1639  0.3807 -0.0944
 6667TIP3    H141636   2.325   3.644   7.536  0.2805 -0.7066  3.7483
 6667TIP3    H241637   2.221   3.562   7.463  0.1311  2.4045  0.2226
 6668TIP3   OH241638   6.813   4.897   6.509  0.4872  0.7313  0.4595
 6668TIP3    H141639   6.771   4.852   6.583 -0.4163  1.6087  0.5111
 6668TIP3    H241640   6.829   4.828   6.445  1.5105 -0.0854  1.5642
 6669TIP3   OH241641   2.476   1.377   1.291 -0.5061 -0.3612  0.6568
 6669TIP3    H141642   2.477   1.394   1.385  1.4046  0.3569  0.5558
 6669TIP3    H241643   2.568   1.362   1.269 -0.7115  0.9191 -1.3354
 6670TIP3   OH241644   1.423   1.937   0.746  0.2637 -0.0864 -0.6314
 6670TIP3    H141645   1.477   2.000   0.794 -1.8872 -0.0132  1.8689
 6670TIP3    H241646   1.486   1.884   0.698  2.4853  0.7666  1.1555
 6671TIP3   OH241647   1.218   6.778   7.207 -0.2357  0.1859  0.2352
 6671TIP3    H141648   1.306   6.740   7.206 -0.4824 -0.3955  0.1836
 6671TIP3    H241649   1.232   6.869   7.232  0.3789  0.0891  0.2725
 6672TIP3   OH241650   3.872   2.554   6.840  0.0672  0.1049 -0.4724
 6672TIP3    H141651   3.964   2.564   6.865 -0.1348  2.5561 -0.3815
 6672TIP3    H241652   3.828   2.627   6.884 -2.3791 -2.2465  1.3322
 6673TIP3   OH241653   5.578   2.214   0.622  0.3429  0.1981  0.2114
 6673TIP3    H141654   5.645   2.177   0.564 -0.4024 -1.1256  0.1615
 6673TIP3    H241655   5.499   2.164   0.603 -0.4357  1.1230  0.9269
 6674TIP3   OH241656   2.502   3.303   2.202  0.1065  0.5333 -0.0272
 6674TIP3    H141657   2.595   3.291   2.219  0.0735  0.2070 -0.0758
 6674TIP3    H241658   2.499   3.374   2.138  0.4560 -0.9132 -1.7379
 6675TIP3   OH241659   4.474   0.102   1.656  0.3040  0.5605  0.4610
 6675TIP3    H141660   4.482   0.079   1.749 -1.7619  0.0686  0.5809
 6675TIP3    H241661   4.415   0.035   1.621  0.7652  0.9642 -1.1329
 6676TIP3   OH241662   4.441   5.223   0.248  0.0357 -0.4442 -0.3081
 6676TIP3    H141663   4.396   5.260   0.172 -1.5637 -0.9866  0.3332
 6676TIP3    H241664   4.377   5.165   0.288  0.9085 -0.3251  1.3567
 6677TIP3   OH241665   1.172   3.127   0.439  0.6525  0.3105  0.4564
 6677TIP3    H141666   1.082   3.131   0.471  0.2238  0.3082 -0.7193
 6677TIP3    H241667   1.201   3.218   0.438 -0.2802  0.6397 -1.7106
 6678TIP3   OH241668   1.015   4.472   7.800 -0.0855 -0.6185  0.1267
 6678TIP3    H141669   0.952   4.490   7.870 -1.7979 -1.2560 -1.1504
 6678TIP3    H241670   0.961   4.434   7.730  1.6693 -0.6700 -1.2544
 6679TIP3   OH241671   4.311   4.996   5.775  0.0478  0.2206  0.0286
 6679TIP3    H141672   4.232   4.950   5.748 -0.3037  1.4513 -1.1091
 6679TIP3    H241673   4.281   5.084   5.799  0.8852  0.2770  0.9380
 6680TIP3   OH241674   2.092   1.896   6.848 -0.2257 -1.1370  0.0604
 6680TIP3    H141675   2.182   1.865   6.861  0.4740  1.0355  0.8899
 6680TIP3    H241676   2.084   1.906   6.753  2.2195  3.2140  0.0689
 6681TIP3   OH241677   1.029   3.372   0.129 -0.3788 -0.1095  0.2777
 6681TIP3    H141678   0.996   3.326   0.206 -0.9501 -2.0880 -1.0643
 6681TIP3    H241679   1.124   3.362   0.133 -0.4555 -0.8151  0.3549
 6682TIP3   OH241680   1.063   0.073   1.921 -0.1260  0.5993  0.6640
 6682TIP3    H141681   1.005   0.102   1.991 -1.1696  1.4173 -0.5002
 6682TIP3    H241682   1.014   0.005   1.875 -0.2380  1.3672 -0.3906
 6683TIP3   OH241683   1.833   2.007   6.467 -0.8111 -0.3818 -0.1061
 6683TIP3    H141684   1.813   2.090   6.424 -0.8238 -0.6588 -0.6484
 6683TIP3    H241685   1.794   1.941   6.409 -0.8481 -0.7611  0.3494
 6684TIP3   OH241686   3.378   0.914   0.523  0.5184 -0.0586 -0.0595
 6684TIP3    H141687   3.349   0.961   0.444 -2.1393  0.5966  1.2029
 6684TIP3    H241688   3.301   0.864   0.551  1.8571 -1.4329  1.3291
 6685TIP3   OH241689   5.766   0.137   0.686 -0.4670 -0.2197 -0.2511
 6685TIP3    H141690   5.792   0.176   0.770 -0.4055 -2.4507  0.8467
 6685TIP3    H241691   5.728   0.209   0.637 -0.1368  1.2591  1.5403
 6686TIP3   OH241692   0.184   2.843   6.253 -0.0470  0.0063 -0.4364
 6686TIP3    H141693   0.091   2.859   6.236 -0.3040  0.5999  1.3026
 6686TIP3    H241694   0.191   2.748   6.261 -0.9624  0.0587  1.5667
 6687TIP3   OH241695   4.209   7.027   1.265 -0.3669  0.2728 -0.2951
 6687TIP3    H141696   4.296   7.019   1.225 -0.4164 -0.1997 -0.3122
 6687TIP3    H241697   4.223   7.006   1.358 -0.2918  1.1535 -0.0961
 6688TIP3   OH241698   5.269   5.196   7.251  0.1324  0.2585  0.1794
 6688TIP3    H141699   5.348   5.190   7.305  1.0492  0.7047 -1.0608
 6688TIP3    H241700   5.241   5.105   7.240 -0.7879  0.2234  2.3568
 6689TIP3   OH241701   6.254   3.517   2.083 -0.2070 -0.1094 -0.0076
 6689TIP3    H141702   6.281   3.609   2.081 -0.7548  0.0350 -1.0990
 6689TIP3    H241703   6.336   3.469   2.097  0.3512  0.4427 -1.2074
 6690TIP3   OH241704   5.713   0.441   1.595 -0.2348 -0.3568 -0.0075
 6690TIP3    H141705   5.756   0.449   1.680  1.0601 -0.7184 -0.6065
 6690TIP3    H241706   5.627   0.481   1.608  0.5788  1.1783  1.0045
 6691TIP3   OH241707   1.294   0.955   6.915 -0.6782 -0.3530  0.2450
 6691TIP3    H141708   1.242   0.877   6.934 -1.2758 -0.1333 -0.4531
 6691TIP3    H241709   1.384   0.923   6.908 -0.6121 -0.6727  1.9318
 6692TIP3   OH241710   3.447   2.542   1.401  0.6220  0.1029  0.5976
 6692TIP3    H141711   3.384   2.591   1.349  0.2634  1.8575  2.5246
 6692TIP3    H241712   3.522   2.530   1.344 -0.4067  0.3918 -0.8548
 6693TIP3   OH241713   5.126   3.134   1.895 -0.3023 -0.2790  0.1824
 6693TIP3    H141714   5.179   3.212   1.909 -1.5084  0.4745  0.7737
 6693TIP3    H241715   5.179   3.077   1.839  1.0463  0.4831  0.6653
 6694TIP3   OH241716   5.321   3.957   1.800  0.5950  0.0726 -0.1387
 6694TIP3    H141717   5.380   4.019   1.843 -2.3145  0.1760  4.3376
 6694TIP3    H241718   5.283   4.006   1.728  0.4790  2.5906  1.5119
 6695TIP3   OH241719   6.479   2.414   8.271  0.2407  0.8658 -0.3548
 6695TIP3    H141720   6.430   2.382   8.195 -0.9700  1.4339  0.1633
 6695TIP3    H241721   6.469   2.345   8.337 -0.4759  1.3057 -0.0021
 6696TIP3   OH241722   3.883   6.847   1.628 -0.6733 -0.3505  0.6207
 6696TIP3    H141723   3.956   6.861   1.567 -0.0826  0.2719  1.4379
 6696TIP3    H241724   3.914   6.777   1.687  0.3532  1.5573  2.5164
 6697TIP3   OH241725   5.578   1.618   6.799  0.1354  0.1070  0.0717
 6697TIP3    H141726   5.606   1.703   6.767  0.4931  0.2455  0.7448
 6697TIP3    H241727   5.574   1.628   6.894  0.8397 -0.8211  0.2089
 6698TIP3   OH241728   5.802   0.575   7.762  0.2143  0.1209  0.1786
 6698TIP3    H141729   5.733   0.509   7.759  0.2492  0.1059 -0.5586
 6698TIP3    H241730   5.872   0.538   7.708 -0.1498  1.1865 -1.0575
 6699TIP3   OH241731   4.702   6.051   7.946 -0.0044 -0.0435 -0.6748
 6699TIP3    H141732   4.696   6.136   7.991  0.0240 -0.9737  1.2220
 6699TIP3    H241733   4.788   6.018   7.970 -0.3407 -0.9646 -0.7072
 6700TIP3   OH241734   3.392   4.306   5.673 -0.2707 -0.6692 -0.2029
 6700TIP3    H141735   3.322   4.366   5.650 -0.1185 -0.5354 -0.3183
 6700TIP3    H241736   3.404   4.318   5.768 -0.6223 -0.9271 -0.1241
 6701TIP3   OH241737   3.099   6.640   0.614  0.0107 -0.1029 -0.1427
 6701TIP3    H141738   3.098   6.551   0.647  1.3592 -0.0935 -0.0105
 6701TIP3    H241739   3.090   6.695   0.692 -1.2172 -0.1087 -0.2624
 6702TIP3   OH241740   2.832   4.070   0.402 -0.2936  0.4968 -0.6967
 6702TIP3    H141741   2.826   4.159   0.436  0.7745  0.6423 -0.8430
 6702TIP3    H241742   2.832   4.014   0.480  1.9927  0.8184 -0.4099
 6703TIP3   OH241743   1.124   5.048   0.553 -1.3919 -0.6462  0.0199
 6703TIP3    H141744   1.116   5.132   0.598 -1.6929 -0.7356  0.1361
 6703TIP3    H241745   1.218   5.031   0.550 -1.3443 -0.4170  0.2019
 6704TIP3   OH241746   1.719   6.124   7.430  0.3508  0.0954  0.6137
 6704TIP3    H141747   1.766   6.079   7.359 -0.9162  0.8459 -0.7783
 6704TIP3    H241748   1.731   6.068   7.506 -0.8585 -2.4942 -0.9337
 6705TIP3   OH241749   2.246   1.412   0.685 -0.4599  0.5543 -0.5016
 6705TIP3    H141750   2.252   1.377   0.773 -1.8136  0.1252 -0.5628
 6705TIP3    H241751   2.325   1.380   0.641  0.7540  1.6179  0.8068
 6706TIP3   OH241752   1.260   3.128   1.634 -0.2985 -0.2355 -0.3797
 6706TIP3    H141753   1.218   3.043   1.649 -0.3884 -0.0854  0.2542
 6706TIP3    H241754   1.339   3.125   1.687 -0.5365  0.2493  0.0136
 6707TIP3   OH241755   0.838   5.364   7.738 -0.7808 -0.6665 -0.3726
 6707TIP3    H141756   0.754   5.350   7.694  0.1847 -1.0090 -2.1765
 6707TIP3    H241757   0.822   5.439   7.796 -2.4596 -1.0709 -0.2513
 6708TIP3   OH241758   6.678   0.910   0.222  0.0434 -1.0784 -0.1604
 6708TIP3    H141759   6.645   0.830   0.263 -3.7030  0.1290 -0.4981
 6708TIP3    H241760   6.706   0.965   0.295 -1.8159 -0.9297  0.4861
 6709TIP3   OH241761   4.153   5.704   8.163 -0.0205 -0.0338 -0.6791
 6709TIP3    H141762   4.202   5.780   8.194 -1.5549  1.7750 -2.4261
 6709TIP3    H241763   4.066   5.713   8.203  0.4185 -2.1736  0.9106
 6710TIP3   OH241764   6.817   0.190   1.099  0.6155  0.2549  0.3649
 6710TIP3    H141765   6.744   0.225   1.149  1.1979  1.9779  0.0914
 6710TIP3    H241766   6.835   0.257   1.033  2.3770 -0.1429  0.3827
 6711TIP3   OH241767   6.785   5.432   5.971  0.4669  0.1446 -0.1072
 6711TIP3    H141768   6.863   5.412   5.919 -0.0387 -2.6435  0.0399
 6711TIP3    H241769   6.721   5.462   5.907  0.2963 -1.9015 -0.9681
 6712TIP3   OH241770   0.956   2.744   1.559 -0.3283  0.1287  0.0667
 6712TIP3    H141771   0.880   2.753   1.500  0.1092  2.1513 -0.2525
 6712TIP3    H241772   1.016   2.686   1.512 -0.0652  1.5654 -1.4566
 6713TIP3   OH241773   6.104   0.586   6.014  0.3951  0.0855 -0.2992
 6713TIP3    H141774   6.036   0.536   5.969  1.1355 -0.9586 -0.3034
 6713TIP3    H241775   6.129   0.655   5.953  1.0649 -1.0316 -1.3189
 6714TIP3   OH241776   4.790   5.704   7.293 -0.0686  0.0084 -0.2019
 6714TIP3    H141777   4.836   5.660   7.365  0.9275  0.7019 -0.3990
 6714TIP3    H241778   4.767   5.790   7.329 -1.0077 -0.2359 -0.1925
 6715TIP3   OH241779   5.537   1.616   7.067 -0.0225 -0.4096 -0.6057
 6715TIP3    H141780   5.494   1.677   7.127  2.0790 -0.7017  1.3109
 6715TIP3    H241781   5.514   1.529   7.099  0.5220 -0.5806 -0.6668
 6716TIP3   OH241782   0.031   6.443   7.275  0.3642  0.0404  0.0954
 6716TIP3    H141783   0.086   6.445   7.197  0.9495 -0.2130  0.4951
 6716TIP3    H241784   0.080   6.389   7.337 -1.1410 -1.6735 -0.1362
 6717TIP3   OH241785   2.317   6.353   6.336 -0.2580 -0.2186 -0.4034
 6717TIP3    H141786   2.322   6.363   6.241  1.5131 -2.6057 -0.6356
 6717TIP3    H241787   2.383   6.413   6.370  0.1874 -0.4959 -0.7774
 6718TIP3   OH241788   1.051   4.819   8.166  0.1293 -0.2261  0.5341
 6718TIP3    H141789   1.056   4.833   8.260 -1.1077 -0.9026  0.7283
 6718TIP3    H241790   0.974   4.763   8.154 -1.5501  2.1584 -1.1042
 6719TIP3   OH241791   2.246   2.988   1.944  0.3187 -0.0145  0.3397
 6719TIP3    H141792   2.326   2.954   1.905 -0.4114  0.3374 -1.6170
 6719TIP3    H241793   2.176   2.954   1.888 -0.5967  2.8800 -0.5023
 6720TIP3   OH241794   1.673   1.885   2.241 -0.4119 -0.0413 -0.3802
 6720TIP3    H141795   1.742   1.825   2.212  0.5238 -0.3654  2.2102
 6720TIP3    H241796   1.594   1.832   2.241  0.2959 -1.1859  1.3364
 6721TIP3   OH241797   5.175   2.593   8.268  0.9794 -0.6517  0.4835
 6721TIP3    H141798   5.255   2.644   8.256 -0.0711  0.8290 -0.7989
 6721TIP3    H241799   5.140   2.622   8.352  0.0216  1.4042 -0.5560
 6722TIP3   OH241800   3.436   4.975   6.726 -0.1783 -0.1084  0.5012
 6722TIP3    H141801   3.350   5.006   6.698 -0.1590 -0.4917 -0.0022
 6722TIP3    H241802   3.498   5.031   6.680 -0.1439 -0.8717 -0.3973
 6723TIP3   OH241803   6.913   1.101   8.087  0.5328  0.0949  0.1037
 6723TIP3    H141804   6.937   1.050   8.009 -2.0733 -0.4657 -0.4139
 6723TIP3    H241805   6.849   1.165   8.056 -0.5881 -0.1553  1.7749
 6724TIP3   OH241806   1.919   1.563   8.079 -0.1007 -0.1500 -0.3074
 6724TIP3    H141807   2.008   1.598   8.080 -0.2673  0.3674  2.2625
 6724TIP3    H241808   1.930   1.469   8.089  0.1576 -0.0225  0.6764
 6725TIP3   OH241809   2.572   6.395   1.570  0.2071  0.2704  0.0149
 6725TIP3    H141810   2.594   6.466   1.630 -0.6353  0.4311  0.1531
 6725TIP3    H241811   2.582   6.433   1.483 -0.3848  0.6106  0.0919
 6726TIP3   OH241812   6.169   2.250   1.278 -0.0776 -0.2185  0.2668
 6726TIP3    H141813   6.149   2.245   1.371 -1.7950 -1.5207 -0.1224
 6726TIP3    H241814   6.207   2.165   1.257 -1.6290 -0.7506 -0.5848
 6727TIP3   OH241815   2.442   0.743   1.364  0.1476 -0.4020 -0.4142
 6727TIP3    H141816   2.517   0.723   1.420 -0.6447 -0.9327  0.4956
 6727TIP3    H241817   2.366   0.732   1.422 -0.5287  2.7415 -0.5430
 6728TIP3   OH241818   2.210   7.024   0.994 -0.3714  0.4827 -0.1034
 6728TIP3    H141819   2.255   7.024   1.078 -2.1872  0.7884  0.9153
 6728TIP3    H241820   2.251   6.952   0.945 -2.3684 -3.0318  2.8283
 6729TIP3   OH241821   2.441   2.527   5.738 -0.0842  0.4325  0.2297
 6729TIP3    H141822   2.511   2.493   5.683 -0.7006  0.8836 -0.8701
 6729TIP3    H241823   2.482   2.544   5.822  0.7204 -0.9464  0.1360
 6730TIP3   OH241824   6.884   3.434   7.960  1.0689 -0.4009 -0.0777
 6730TIP3    H141825   6.854   3.364   7.902  0.5231 -1.7003  1.7028
 6730TIP3    H241826   6.980   3.426   7.958  1.0616 -3.5940  2.7016
 6731TIP3   OH241827   4.534   1.691   6.574  0.6099  0.4099  0.5652
 6731TIP3    H141828   4.440   1.678   6.584  0.8572 -3.8840 -0.4842
 6731TIP3    H241829   4.570   1.679   6.662  0.2550  0.2716  0.6936
 6732TIP3   OH241830   0.744   5.503   0.691 -0.0938  0.2483 -0.8914
 6732TIP3    H141831   0.730   5.497   0.596 -3.5014 -1.7091 -0.4011
 6732TIP3    H241832   0.769   5.415   0.717 -2.5007 -0.1174  0.3915
 6733TIP3   OH241833   4.874   5.382   0.834  0.8880  0.3279  0.0183
 6733TIP3    H141834   4.870   5.429   0.750 -0.9585 -1.1401 -0.7915
 6733TIP3    H241835   4.869   5.450   0.900 -2.9056  1.3788 -1.0863
 6734TIP3   OH241836   1.645   4.836   8.036  0.3334 -0.0018  0.3042
 6734TIP3    H141837   1.637   4.764   7.974 -2.2600 -0.3865  0.9608
 6734TIP3    H241838   1.712   4.807   8.098 -0.5416 -1.8217  0.4685
 6735TIP3   OH241839   3.705   4.105   7.193  0.5152  0.0932 -0.1297
 6735TIP3    H141840   3.720   4.190   7.152  1.7298  0.1353  0.3611
 6735TIP3    H241841   3.610   4.098   7.201  0.2736  0.4618 -2.1317
 6736TIP3   OH241842   1.197   2.449   0.283  0.2029  0.1674  0.0615
 6736TIP3    H141843   1.133   2.496   0.337 -0.8885  0.5817 -1.5090
 6736TIP3    H241844   1.204   2.363   0.325 -2.3498 -0.3406 -0.3366
 6737TIP3   OH241845   0.311   3.874   0.399  0.6397  0.0019  0.8971
 6737TIP3    H141846   0.273   3.875   0.311  2.5997  1.4662 -0.0009
 6737TIP3    H241847   0.244   3.913   0.455  0.2976  1.3764 -0.4027
 6738TIP3   OH241848   4.317   1.432   1.360  0.1679  0.8618  0.6463
 6738TIP3    H141849   4.372   1.398   1.432  1.6020  0.7294 -0.4525
 6738TIP3    H241850   4.266   1.356   1.331  0.5673  0.5796  0.6736
 6739TIP3   OH241851   6.228   4.491   1.517 -0.0583  0.0465  0.3226
 6739TIP3    H141852   6.242   4.400   1.542  0.5882 -0.4230 -1.6160
 6739TIP3    H241853   6.133   4.501   1.517 -0.2317 -1.2090 -1.2774
 6740TIP3   OH241854   2.953   5.534   7.993 -0.3230 -0.2057  0.2313
 6740TIP3    H141855   2.974   5.448   7.957  0.4123  0.3232 -0.6464
 6740TIP3    H241856   2.996   5.596   7.935 -1.2203  0.7868  0.5782
 6741TIP3   OH241857   0.742   5.860   7.661 -1.1481 -0.0816  0.2821
 6741TIP3    H141858   0.658   5.898   7.635 -0.7549  0.5353 -0.0841
 6741TIP3    H241859   0.803   5.933   7.662 -0.1839 -0.8095 -1.2659
 6742TIP3   OH241860   7.014   2.398   6.866 -0.3266  0.7008  0.4804
 6742TIP3    H141861   7.003   2.390   6.961 -1.2786 -0.0697  0.3248
 6742TIP3    H241862   7.074   2.472   6.855 -0.2775  0.8660  1.6736
 6743TIP3   OH241863   3.120   3.081   6.407 -0.1348 -0.0185  0.2954
 6743TIP3    H141864   3.177   3.040   6.342  1.3165  1.7066  0.3880
 6743TIP3    H241865   3.061   3.012   6.435 -0.7771 -0.8765 -2.7877
 6744TIP3   OH241866   5.557   5.545   1.631  0.2825 -0.6427 -0.7189
 6744TIP3    H141867   5.515   5.563   1.547 -1.0925 -2.0022 -0.3628
 6744TIP3    H241868   5.523   5.612   1.690 -0.6446 -1.1419 -0.6751
 6745TIP3   OH241869   1.429   3.893   1.506 -0.3173 -0.8279  0.6580
 6745TIP3    H141870   1.366   3.913   1.437  0.2324 -0.2192  0.3142
 6745TIP3    H241871   1.396   3.940   1.583 -0.2658 -0.4784  0.4686
 6746TIP3   OH241872   3.134   3.561   0.836  0.4713  0.0741  0.3533
 6746TIP3    H141873   3.127   3.589   0.927  2.9652  1.1901  0.2932
 6746TIP3    H241874   3.057   3.506   0.821 -0.9179  1.2894  2.5893
 6747TIP3   OH241875   6.674   1.679   1.727 -0.8950 -0.6545 -0.8026
 6747TIP3    H141876   6.645   1.612   1.665 -0.9287 -0.3776 -1.0905
 6747TIP3    H241877   6.599   1.738   1.734 -0.5069 -0.0838 -1.3385
 6748TIP3   OH241878   4.430   5.930   1.389 -0.1382 -0.4361 -0.0834
 6748TIP3    H141879   4.414   5.945   1.296 -0.3206 -2.3678 -0.4024
 6748TIP3    H241880   4.414   6.015   1.430 -0.5085  0.3353 -1.7489
 6749TIP3   OH241881   4.776   0.496   0.150 -0.0529 -0.0704  0.2671
 6749TIP3    H141882   4.841   0.561   0.178  0.2104 -0.6771  1.1080
 6749TIP3    H241883   4.706   0.548   0.110  1.1549  0.5642 -1.1358
 6750TIP3   OH241884   1.456   5.527   8.217  0.7971  0.3168 -0.3641
 6750TIP3    H141885   1.470   5.617   8.249 -0.0797  0.9042 -1.5316
 6750TIP3    H241886   1.544   5.489   8.214  1.1624  1.0580  0.3643
 6751TIP3   OH241887   2.673   0.836   7.041 -0.1949 -0.4828 -0.0307
 6751TIP3    H141888   2.703   0.793   7.121 -0.9914 -0.5251  0.2487
 6751TIP3    H241889   2.649   0.924   7.068  1.1960  0.0918 -0.5608
 6752TIP3   OH241890   6.451   6.757   0.069  0.7149 -0.1424 -0.5568
 6752TIP3    H141891   6.486   6.845   0.058  0.4743  0.2565  1.4855
 6752TIP3    H241892   6.357   6.767   0.057  0.7748 -0.3215 -1.2474
 6753TIP3   OH241893   6.152   6.565   0.499 -0.0828 -0.7179  1.0978
 6753TIP3    H141894   6.112   6.640   0.457 -0.5599 -1.7086 -0.2941
 6753TIP3    H241895   6.171   6.594   0.588  0.6350  1.3447  0.3324
 6754TIP3   OH241896   3.205   1.944   1.740  0.1281 -0.5679 -0.3844
 6754TIP3    H141897   3.244   1.856   1.730 -1.2255 -1.2650  0.1952
 6754TIP3    H241898   3.246   1.979   1.819  0.6479 -0.6813 -0.5958
 6755TIP3   OH241899   4.015   0.691   1.206  0.1878 -0.2225  0.1417
 6755TIP3    H141900   3.927   0.708   1.240 -0.3797 -0.4091 -1.1756
 6755TIP3    H241901   4.073   0.709   1.280 -1.0664 -2.0461  1.7009
 6756TIP3   OH241902   0.977   3.508   1.857  0.8584 -0.5956  0.3810
 6756TIP3    H141903   0.908   3.494   1.922  0.3319 -1.5034 -0.3521
 6756TIP3    H241904   1.056   3.473   1.897  0.6848 -0.4968  0.8138
 6757TIP3   OH241905   1.484   5.466   1.232  0.3694  0.9279 -0.2267
 6757TIP3    H141906   1.435   5.406   1.289 -0.6780  0.6880 -1.3433
 6757TIP3    H241907   1.542   5.409   1.181  1.1877  1.1284  0.4397
 6758TIP3   OH241908   6.616   6.836   1.258 -0.2008  0.3100  1.4000
 6758TIP3    H141909   6.609   6.799   1.346 -0.4032  1.4079  1.8623
 6758TIP3    H241910   6.540   6.893   1.250  0.2309  0.8119  0.8149
 6759TIP3   OH241911   1.289   2.231   1.958 -0.5541  0.0442 -0.5863
 6759TIP3    H141912   1.379   2.237   1.925  0.5560 -0.0484  2.1039
 6759TIP3    H241913   1.277   2.138   1.977  0.0530  0.3942  1.9769
 6760TIP3   OH241914   1.228   2.854   6.638  0.5202  0.7559 -0.5177
 6760TIP3    H141915   1.233   2.837   6.732 -1.3024 -1.3263 -0.7110
 6760TIP3    H241916   1.141   2.892   6.625 -0.1304 -0.9887 -1.5634
 6761TIP3   OH241917   2.872   2.808   7.944  0.1568 -0.2352 -0.0891
 6761TIP3    H141918   2.815   2.845   7.877  0.3026  0.6233  0.2431
 6761TIP3    H241919   2.957   2.850   7.930 -0.3631  1.7328  1.9908
 6762TIP3   OH241920   6.488   5.425   0.047  0.7592  0.0579  0.0844
 6762TIP3    H141921   6.576   5.388   0.039  0.3829 -0.9406  0.3629
 6762TIP3    H241922   6.430   5.358   0.009  0.1668  0.9618 -0.6512
 6763TIP3   OH241923   3.727   3.513   7.267  0.1185  0.1368  0.7069
 6763TIP3    H141924   3.745   3.421   7.250 -1.2426  0.0140 -0.2337
 6763TIP3    H241925   3.754   3.559   7.188  1.6410  0.6908  1.5121
 6764TIP3   OH241926   2.800   4.062   7.222  0.0578  0.2217  0.1749
 6764TIP3    H141927   2.811   3.983   7.275  1.0511  0.7110  0.7395
 6764TIP3    H241928   2.706   4.070   7.208 -0.1446 -0.4099  1.1183
 6765TIP3   OH241929   6.757   5.907   7.261 -0.0742 -0.1377  0.0340
 6765TIP3    H141930   6.735   5.997   7.237  2.2030  0.0847 -1.5106
 6765TIP3    H241931   6.677   5.874   7.303 -1.4139  2.1679 -0.4757
 6766TIP3   OH241932   4.573   5.043   6.110  0.2662  0.2417 -0.0144
 6766TIP3    H141933   4.489   5.068   6.072  0.6078  1.2842 -0.1214
 6766TIP3    H241934   4.622   5.125   6.115  2.0384 -0.6299 -1.8077
 6767TIP3   OH241935   0.654   6.394   6.926  0.3023  0.6400 -0.0415
 6767TIP3    H141936   0.728   6.381   6.986  0.7713 -0.3956 -0.8350
 6767TIP3    H241937   0.691   6.381   6.839 -0.5701  1.2761 -0.5194
 6768TIP3   OH241938   6.316   1.426   0.603 -0.3452  0.4751  0.2204
 6768TIP3    H141939   6.306   1.411   0.697  0.2870 -1.0132  0.0731
 6768TIP3    H241940   6.250   1.370   0.562 -2.4669  3.0722 -0.1962
 6769TIP3   OH241941   0.450   4.513   1.869  0.5246  0.1325 -0.1051
 6769TIP3    H141942   0.495   4.533   1.787 -0.0262 -1.3290 -0.7980
 6769TIP3    H241943   0.379   4.576   1.874  2.0099  1.8517  0.5301
 6770TIP3   OH241944   4.574   2.942   1.684 -0.1764  0.4902 -0.3800
 6770TIP3    H141945   4.511   2.907   1.748  2.1134 -0.3470  1.6144
 6770TIP3    H241946   4.592   3.031   1.715  0.5493  0.2646 -0.1241
 6771TIP3   OH241947   1.023   2.028   7.577 -0.0117 -0.0878 -0.0637
 6771TIP3    H141948   0.930   2.046   7.562 -0.3447 -3.0062 -2.4701
 6771TIP3    H241949   1.027   1.995   7.666 -1.3949 -0.4420 -0.1114
 6772TIP3   OH241950   0.330   0.221   7.091  0.6093  0.2847 -0.3141
 6772TIP3    H141951   0.299   0.293   7.147  1.6276 -0.7888  1.7486
 6772TIP3    H241952   0.278   0.229   7.011 -1.3759  1.5285  1.0139
 6773TIP3   OH241953   4.567   5.807   8.136  0.0574 -0.2052 -0.3770
 6773TIP3    H141954   4.657   5.795   8.106  0.2671 -0.7753  0.4499
 6773TIP3    H241955   4.554   5.737   8.200 -1.5018 -1.1697 -1.6584
 6774TIP3   OH241956   3.607   6.310   7.016  0.0703  0.3857 -0.0929
 6774TIP3    H141957   3.578   6.251   7.086  0.1237 -0.4427 -0.7471
 6774TIP3    H241958   3.693   6.276   6.990  0.3298  1.0614 -0.1420
 6775TIP3   OH241959   0.884   1.755   0.981 -0.1538 -0.3459  0.2645
 6775TIP3    H141960   0.853   1.812   1.052  0.1815  1.5035 -1.0074
 6775TIP3    H241961   0.852   1.668   1.006 -2.9588  0.7626  1.0343
 6776TIP3   OH241962   0.399   6.201   7.376 -0.7766 -0.0451 -0.0042
 6776TIP3    H141963   0.419   6.108   7.382 -1.3702 -0.1957 -0.3037
 6776TIP3    H241964   0.479   6.245   7.404 -0.0688 -0.6376 -1.0363
 6777TIP3   OH241965   3.843   5.260   0.246 -0.4739  0.1116 -0.2988
 6777TIP3    H141966   3.762   5.308   0.228  0.0574  1.0422 -0.3022
 6777TIP3    H241967   3.816   5.169   0.250 -1.1853  0.1519 -2.5382
 6778TIP3   OH241968   2.876   6.352   1.515  0.0327 -0.4155  0.1514
 6778TIP3    H141969   2.931   6.347   1.593  0.9475 -0.8245 -0.4950
 6778TIP3    H241970   2.913   6.286   1.456  0.2442  0.8415 -1.1737
 6779TIP3   OH241971   6.993   4.867   7.591 -0.4008  0.0998 -0.4345
 6779TIP3    H141972   6.956   4.955   7.578 -1.9560  0.1797  3.3425
 6779TIP3    H241973   6.919   4.808   7.576 -0.0323 -0.3836 -0.3627
 6780TIP3   OH241974   2.184   4.404   8.141  0.2255 -0.4869  0.1886
 6780TIP3    H141975   2.226   4.393   8.226  1.1586  2.3167  0.1867
 6780TIP3    H241976   2.252   4.385   8.077 -0.2359 -1.7254  0.0246
 6781TIP3   OH241977   2.954   1.095   7.119  0.0255  0.2352  0.2869
 6781TIP3    H141978   2.991   1.019   7.075  0.7411  0.1330  1.0458
 6781TIP3    H241979   2.989   1.170   7.071 -0.0515  0.1048  0.0266
 6782TIP3   OH241980   2.001   5.094   0.542 -0.4104  0.7847  0.0826
 6782TIP3    H141981   2.091   5.071   0.565 -0.8129  0.2065  1.1786
 6782TIP3    H241982   1.963   5.127   0.624 -2.0861 -1.9234  0.5428
 6783TIP3   OH241983   3.365   0.357   1.564 -0.3887 -0.1141  0.0619
 6783TIP3    H141984   3.413   0.325   1.488  1.2498 -0.0508  1.0127
 6783TIP3    H241985   3.369   0.284   1.626  1.9856  1.2091  1.6443
 6784TIP3   OH241986   4.351   5.706   7.969 -0.2655 -0.0040  0.5935
 6784TIP3    H141987   4.291   5.683   8.040  0.3977 -0.1415  1.1076
 6784TIP3    H241988   4.438   5.685   8.002  0.1388  0.8735  0.1238
 6785TIP3   OH241989   2.735   0.954   7.841 -0.4194  0.3227 -0.6814
 6785TIP3    H141990   2.673   0.925   7.909  0.0335 -1.9297 -1.1716
 6785TIP3    H241991   2.811   0.984   7.890 -0.5417 -0.1981 -0.1544
 6786TIP3   OH241992   3.455   0.884   7.912 -0.0114  0.5276  0.3015
 6786TIP3    H141993   3.504   0.891   7.830 -0.5599  2.0032  0.0677
 6786TIP3    H241994   3.465   0.792   7.939 -1.0041 -0.3785 -2.1434
 6787TIP3   OH241995   2.915   4.105   6.013  0.4102 -0.5427 -0.0493
 6787TIP3    H141996   2.848   4.049   6.053 -0.3813 -1.4185 -2.4381
 6787TIP3    H241997   2.894   4.193   6.044 -0.0285 -1.1904  1.5757
 6788TIP3   OH241998   6.143   4.645   2.103  0.7301  0.6320 -0.0607
 6788TIP3    H141999   6.230   4.614   2.080  0.6318  0.1225  0.2410
 6788TIP3    H242000   6.096   4.566   2.131  0.1593  0.8924 -0.2670
 6789TIP3   OH242001   3.231   6.193   7.413  0.3309  0.5829  0.2876
 6789TIP3    H142002   3.279   6.271   7.441  1.6349  0.3723 -1.2568
 6789TIP3    H242003   3.174   6.223   7.342 -3.0026  1.1269  2.9272
 6790TIP3   OH242004   7.048   1.202   7.546 -0.0327  0.0011  0.6242
 6790TIP3    H142005   7.134   1.206   7.588  0.7739 -1.5166 -0.7498
 6790TIP3    H242006   7.065   1.228   7.455 -1.3258  1.1395  0.6775
 6791TIP3   OH242007   0.904   2.251   6.917  0.1560  0.2612  0.7977
 6791TIP3    H142008   0.872   2.160   6.917 -1.6416  0.8532  0.7447
 6791TIP3    H242009   0.849   2.295   6.852  0.5449  1.5406  1.3190
 6792TIP3   OH242010   3.286   1.534   1.662  0.0042  0.2991  0.0208
 6792TIP3    H142011   3.314   1.521   1.571 -0.6170  0.8569 -0.2582
 6792TIP3    H242012   3.320   1.458   1.709 -0.0988 -0.2492 -0.7805
 6793TIP3   OH242013   6.318   4.004   7.099  0.5324  0.2195  0.2747
 6793TIP3    H142014   6.272   4.064   7.042  1.2747  0.1643 -0.3967
 6793TIP3    H242015   6.255   3.983   7.168 -1.0038 -1.0650 -1.4312
 6794TIP3   OH242016   0.935   5.996   7.199 -0.2701  0.6821 -0.1904
 6794TIP3    H142017   1.020   6.039   7.206 -0.1527  0.2933  1.1667
 6794TIP3    H242018   0.889   6.044   7.130  2.1958 -1.1162 -3.3437
 6795TIP3   OH242019   4.189   0.758   1.735  0.5341 -0.1465  0.2236
 6795TIP3    H142020   4.252   0.750   1.807  0.1746  1.7196  0.8033
 6795TIP3    H242021   4.107   0.723   1.771  0.2733  1.0755  0.8769
 6796TIP3   OH242022   4.953   0.191   7.390  0.2789  0.0739 -0.4934
 6796TIP3    H142023   4.886   0.238   7.440  1.1555 -0.2655  1.0870
 6796TIP3    H242024   4.921   0.191   7.300 -1.5892  0.3312  0.1361
 6797TIP3   OH242025   5.049   6.198   7.416 -0.1358  0.1745 -0.0572
 6797TIP3    H142026   5.029   6.291   7.403 -2.2773 -0.2850 -0.3958
 6797TIP3    H242027   4.974   6.163   7.464 -0.4780 -1.8235 -1.8456
 6798TIP3   OH242028   5.995   5.374   7.070  0.4363 -0.1199  0.5049
 6798TIP3    H142029   5.974   5.330   6.988 -0.5417  1.1845  0.0242
 6798TIP3    H242030   5.999   5.303   7.135 -0.0393 -1.0279 -0.4268
 6799TIP3   OH242031   6.173   4.135   0.847  0.0947 -0.0541  0.4901
 6799TIP3    H142032   6.116   4.142   0.924  0.5124  1.3310  0.6923
 6799TIP3    H242033   6.184   4.225   0.817 -0.6952 -0.6123 -1.6827
 6800TIP3   OH242034   4.685   5.748   7.820  0.8411 -0.6438 -0.3658
 6800TIP3    H142035   4.730   5.785   7.895 -1.0705  2.4011 -0.5246
 6800TIP3    H242036   4.664   5.659   7.845 -0.1468  0.3944  2.9607
 6801TIP3   OH242037   5.863   0.719   8.228  0.1417 -0.2049 -0.0383
 6801TIP3    H142038   5.911   0.654   8.279  0.5200  1.0979  1.3523
 6801TIP3    H242039   5.899   0.711   8.139  0.7800 -1.2943  0.2965
 6802TIP3   OH242040   2.769   5.784   6.028  0.4020  0.0402 -0.3177
 6802TIP3    H142041   2.834   5.715   6.014 -0.6157 -0.8639 -0.6977
 6802TIP3    H242042   2.806   5.837   6.099  1.6399 -0.3330 -0.6628
 6803TIP3   OH242043   2.759   0.900   8.175 -0.1028 -0.3031  0.1599
 6803TIP3    H142044   2.811   0.834   8.222 -1.0766 -0.5019  0.9917
 6803TIP3    H242045   2.674   0.858   8.162 -0.0151 -0.0600 -1.3799
 6804TIP3   OH242046   1.165   4.011   0.838 -0.4835  0.8318 -0.3500
 6804TIP3    H142047   1.253   3.980   0.858 -0.7197  0.3659  0.0128
 6804TIP3    H242048   1.110   3.933   0.847 -0.8416  0.9819 -1.2022
 6805TIP3   OH242049   4.347   0.394   7.569 -0.1892  0.2736  0.7207
 6805TIP3    H142050   4.290   0.390   7.492  2.1641 -0.5314 -1.0947
 6805TIP3    H242051   4.398   0.474   7.557  1.5765 -0.8710  0.3816
 6806TIP3   OH242052   6.240   2.068   8.254  0.3696 -0.1716 -0.0560
 6806TIP3    H142053   6.298   2.021   8.193  0.2243 -0.2479 -0.1359
 6806TIP3    H242054   6.152   2.039   8.230  0.3810 -1.0326  0.9005
 6807TIP3   OH242055   6.034   0.077   0.328 -0.2123  0.3522 -0.1424
 6807TIP3    H142056   5.966   0.010   0.337  0.6817 -0.3167  2.5792
 6807TIP3    H242057   5.988   0.160   0.337 -1.1702  0.1319 -2.3948
 6808TIP3   OH242058   6.510   5.128   6.317 -0.0120  0.5872  0.1318
 6808TIP3    H142059   6.464   5.100   6.395  1.7079 -1.0969  0.5993
 6808TIP3    H242060   6.441   5.141   6.252 -1.2666 -0.1667  1.2734
 6809TIP3   OH242061   2.148   0.646   0.582 -0.2631  0.4317  0.0102
 6809TIP3    H142062   2.109   0.727   0.615 -1.2654 -0.4383  1.0796
 6809TIP3    H242063   2.242   0.658   0.591 -0.4566  0.3527  3.1284
 6810TIP3   OH242064   6.719   3.418   7.226  0.3070  0.1571 -0.1233
 6810TIP3    H142065   6.749   3.477   7.157  0.9755 -0.7146 -0.6031
 6810TIP3    H242066   6.632   3.450   7.249  0.1114  0.5235 -1.3014
 6811TIP3   OH242067   0.582   0.219   7.491 -1.0010  0.2071  0.0824
 6811TIP3    H142068   0.523   0.192   7.561 -0.8223 -0.2684  0.0489
 6811TIP3    H242069   0.524   0.257   7.424 -1.0687  1.8973  1.0297
 6812TIP3   OH242070   2.976   6.380   7.408 -0.4006  0.1260 -0.1368
 6812TIP3    H142071   2.897   6.326   7.420 -0.9183  0.7897 -0.5167
 6812TIP3    H242072   3.018   6.343   7.331 -0.7844  0.2898 -0.4290
 6813TIP3   OH242073   6.604   2.480   1.368  0.0944  0.6314  0.2155
 6813TIP3    H142074   6.529   2.476   1.308 -0.9494  2.0121  1.3438
 6813TIP3    H242075   6.566   2.469   1.455  1.6116 -1.5590  0.6765
 6814TIP3   OH242076   5.960   3.944   7.798 -0.2001 -0.0216 -0.0146
 6814TIP3    H142077   6.046   3.929   7.759 -0.0799  1.0536 -0.1988
 6814TIP3    H242078   5.932   4.029   7.763 -1.4518 -0.4647 -0.1620
 6815TIP3   OH242079   2.262   1.048   7.512  0.5054  0.1660  0.0814
 6815TIP3    H142080   2.265   1.129   7.460  0.5412  1.4115  1.9213
 6815TIP3    H242081   2.176   1.051   7.555  0.8804 -0.2769  0.8836
 6816TIP3   OH242082   6.539   5.829   0.220  0.9197 -0.3261  0.1060
 6816TIP3    H142083   6.547   5.739   0.250  0.8974 -0.4744 -0.3249
 6816TIP3    H242084   6.561   5.882   0.296  2.5330 -0.6988 -0.0679
 6817TIP3   OH242085   2.995   5.200   1.288  0.2849  0.3011  0.0923
 6817TIP3    H142086   2.990   5.285   1.332  2.2413  0.3256  0.3840
 6817TIP3    H242087   3.002   5.222   1.195  0.1872  0.4417  0.1184
 6818TIP3   OH242088   2.665   2.374   7.998  0.4347  1.0692 -0.2178
 6818TIP3    H142089   2.621   2.451   8.034 -0.9497  0.7508 -1.1686
 6818TIP3    H242090   2.612   2.349   7.922  1.0497 -0.6354 -0.1172
 6819TIP3   OH242091   5.591   3.639   6.514 -0.0889  0.0847  0.0708
 6819TIP3    H142092   5.611   3.732   6.524  0.9321 -0.2329  1.2927
 6819TIP3    H242093   5.581   3.626   6.419 -0.1635  1.4122 -0.1110
 6820TIP3   OH242094   5.079   2.012   0.873  0.3429  0.5522 -0.1498
 6820TIP3    H142095   5.072   1.979   0.784 -0.3752  3.4145 -1.2767
 6820TIP3    H242096   5.141   1.953   0.916 -0.0897 -1.5191 -2.2023
 6821TIP3   OH242097   5.776   4.568   7.447  0.1059  0.6056 -0.2201
 6821TIP3    H142098   5.856   4.523   7.473 -0.9858 -0.8971  0.6849
 6821TIP3    H242099   5.706   4.506   7.466 -1.3698  2.2053 -0.1875
 6822TIP3   OH242100   2.720   2.875   7.310  0.3638  0.1400  0.1743
 6822TIP3    H142101   2.753   2.792   7.275  0.6444  0.3725 -0.1170
 6822TIP3    H242102   2.677   2.850   7.392  0.6559 -0.2656  0.2121
 6823TIP3   OH242103   4.080   1.236   7.922 -0.0214  0.0119  0.3174
 6823TIP3    H142104   3.999   1.206   7.966  0.4122 -1.6481  0.0673
 6823TIP3    H242105   4.070   1.205   7.832  1.3462 -1.2113  0.5480
 6824TIP3   OH242106   1.545   2.295   0.087  0.2005 -0.4046  0.8122
 6824TIP3    H142107   1.631   2.254   0.093 -0.6066 -2.0160  4.3809
 6824TIP3    H242108   1.563   2.387   0.066  2.9824 -0.3226  3.0493
 6825TIP3   OH242109   4.247   1.930   6.472  0.4955 -0.0212 -0.4051
 6825TIP3    H142110   4.298   1.977   6.539  0.2704  0.7622 -0.7669
 6825TIP3    H242111   4.302   1.932   6.394 -0.3920  1.5732 -1.0431
 6826TIP3   OH242112   5.042   0.377   0.100  0.1350 -0.1854  0.0071
 6826TIP3    H142113   4.985   0.377   0.176 -0.2366 -0.0061 -0.2676
 6826TIP3    H242114   4.983   0.369   0.025  0.4143  0.6164 -0.3112
 6827TIP3   OH242115   6.014   6.653   7.191  0.0954 -0.3611 -0.5475
 6827TIP3    H142116   5.989   6.745   7.201 -0.4059 -0.3421 -1.7180
 6827TIP3    H242117   6.077   6.654   7.119 -0.2850 -0.9788 -0.8973
 6828TIP3   OH242118   0.558   3.771   6.573  0.6147 -0.3064 -0.0407
 6828TIP3    H142119   0.653   3.756   6.573  0.2005 -4.0342  2.2525
 6828TIP3    H242120   0.529   3.743   6.659 -2.9120 -2.0337 -1.5830
 6829TIP3   OH242121   1.276   1.467   1.467  0.4495 -0.1405 -0.0385
 6829TIP3    H142122   1.309   1.385   1.503  0.2646 -0.1590  0.0905
 6829TIP3    H242123   1.282   1.456   1.372 -0.2749 -0.5990 -0.0387
 6830TIP3   OH242124   6.490   5.794   7.692  0.1955  0.1702  0.1340
 6830TIP3    H142125   6.567   5.767   7.743  0.0527  0.3050  0.4221
 6830TIP3    H242126   6.420   5.736   7.722  0.1826  0.0458 -0.1306
 6831TIP3   OH242127   1.081   1.638   6.859 -0.2704 -0.2655  0.2144
 6831TIP3    H142128   0.993   1.674   6.870 -0.9502 -1.5079 -0.7996
 6831TIP3    H242129   1.085   1.615   6.766  1.3147  0.2104  0.1408
 6832TIP3   OH242130   5.447   1.600   1.226  0.0269  0.2079 -0.3406
 6832TIP3    H142131   5.440   1.604   1.131  1.6609 -1.2678 -0.5545
 6832TIP3    H242132   5.388   1.529   1.251  1.7227 -1.3620 -0.5856
 6833TIP3   OH242133   4.236   2.929   1.881  0.4252 -0.2204  0.6084
 6833TIP3    H142134   4.298   2.857   1.891  2.4947  1.4228  0.3802
 6833TIP3    H242135   4.201   2.944   1.969  1.2915 -0.4140  0.9922
 6834TIP3   OH242136   1.181   5.370   0.528  0.3361  0.4653  0.3343
 6834TIP3    H142137   1.194   5.327   0.612 -1.0708 -0.1877  0.2506
 6834TIP3    H242138   1.141   5.454   0.549 -1.0840 -0.1694  0.2990
 6835TIP3   OH242139   4.950   2.032   7.360 -0.1321 -0.2912  0.3400
 6835TIP3    H142140   5.038   1.999   7.342 -0.4584 -1.5386  0.9588
 6835TIP3    H242141   4.963   2.126   7.373  1.0255 -0.3736 -0.0957
 6836TIP3   OH242142   5.151   2.715   0.237 -0.1425  0.0160  0.4383
 6836TIP3    H142143   5.114   2.803   0.233 -0.1100  0.0049 -0.2040
 6836TIP3    H242144   5.129   2.684   0.325  1.8864  1.5330  1.5598
 6837TIP3   OH242145   6.493   5.756   1.400  0.5665 -0.0859 -0.1635
 6837TIP3    H142146   6.427   5.819   1.372  1.3868  0.6942 -0.3674
 6837TIP3    H242147   6.500   5.769   1.494  1.6410  1.0316 -0.3792
 6838TIP3   OH242148   3.222   3.413   1.690  0.2815  0.0093 -0.1970
 6838TIP3    H142149   3.313   3.421   1.661  0.1356  0.0408 -0.6575
 6838TIP3    H242150   3.174   3.475   1.634  0.7403  4.5505  3.7465
 6839TIP3   OH242151   3.088   1.182   1.632 -0.3452  0.5639  0.0910
 6839TIP3    H142152   3.176   1.200   1.601 -0.5817 -0.1219 -1.0285
 6839TIP3    H242153   3.062   1.262   1.679  1.0927  0.5251  1.0092
 6840TIP3   OH242154   3.825   4.420   1.197  0.0190 -0.1374 -0.1063
 6840TIP3    H142155   3.741   4.413   1.242  1.2922  0.3113  2.5533
 6840TIP3    H242156   3.825   4.508   1.159 -0.3703  0.2146  0.6835
 6841TIP3   OH242157   0.760   2.098   7.462  0.0826 -0.2785 -0.3609
 6841TIP3    H142158   0.795   2.127   7.377 -0.5537  0.4707 -0.3759
 6841TIP3    H242159   0.710   2.173   7.494 -0.5391 -0.9199  0.2016
 6842TIP3   OH242160   1.485   1.711   8.056  1.1252  1.1183  0.0770
 6842TIP3    H142161   1.536   1.765   8.116  1.8402  1.5867 -0.9268
 6842TIP3    H242162   1.479   1.762   7.975  0.7331  0.2385 -0.4787
 6843TIP3   OH242163   1.255   0.210   0.558  0.0818  0.5163 -0.0860
 6843TIP3    H142164   1.228   0.258   0.636  1.9549  0.3278  0.7273
 6843TIP3    H242165   1.252   0.118   0.584  1.2245  0.4798 -0.0352
 6844TIP3   OH242166   6.998   5.651   6.646 -0.4740 -0.0030 -0.0354
 6844TIP3    H142167   6.914   5.605   6.646 -0.3409 -0.2519  0.4617
 6844TIP3    H242168   6.992   5.711   6.719 -0.5193  0.5506 -0.4851
 6845TIP3   OH242169   4.178   0.069   2.144 -0.0078 -0.0957 -0.1023
 6845TIP3    H142170   4.102   0.031   2.099  0.7063  0.4488 -1.8155
 6845TIP3    H242171   4.243  -0.001   2.145  0.3589  0.2274 -0.8903
 6846TIP3   OH242172   5.888   3.245   6.211  0.6292 -0.1279 -0.4243
 6846TIP3    H142173   5.869   3.297   6.133  1.4427  0.4320 -0.2514
 6846TIP3    H242174   5.882   3.154   6.180  0.6016  0.0824 -1.0543
 6847TIP3   OH242175   3.823   6.026   7.517  0.4738  0.5737  0.1559
 6847TIP3    H142176   3.745   6.069   7.551 -1.2547 -1.8874 -0.4587
 6847TIP3    H242177   3.838   6.067   7.432 -0.5695  0.5931 -0.0279
 6848TIP3   OH242178   5.059   4.445   0.589  0.2151  0.0163 -0.1264
 6848TIP3    H142179   5.062   4.486   0.676  0.1056  0.2755 -0.2425
 6848TIP3    H242180   5.145   4.464   0.552 -0.2989  1.3498 -0.7157
 6849TIP3   OH242181   0.550   5.183   5.822  0.4743  0.0393 -0.1099
 6849TIP3    H142182   0.549   5.254   5.886  0.4291  0.6324 -0.7525
 6849TIP3    H242183   0.473   5.131   5.843 -0.9863  1.6480 -1.2110
 6850TIP3   OH242184   3.058   5.699   1.230 -0.2705  0.6600  0.1823
 6850TIP3    H142185   2.998   5.741   1.291  0.0613 -1.2157  1.9156
 6850TIP3    H242186   3.080   5.616   1.272  2.8914  0.8977 -0.7862
 6851TIP3   OH242187   5.599   4.480   1.948  0.2845 -0.1545  0.0599
 6851TIP3    H142188   5.627   4.397   1.987  1.3919  0.4562  0.6434
 6851TIP3    H242189   5.611   4.544   2.019 -1.5279  0.3455 -0.0590
 6852TIP3   OH242190   0.529   0.023   7.165  0.0813 -0.4565 -0.6647
 6852TIP3    H142191   0.471  -0.030   7.220 -1.0759 -1.9262 -3.1567
 6852TIP3    H242192   0.472   0.088   7.125  1.1187  1.3704  0.6546
 6853TIP3   OH242193   3.066   1.517   2.595 -0.3010  0.3445 -0.0157
 6853TIP3    H142194   3.018   1.446   2.552  0.5800 -0.2923 -0.0000
 6853TIP3    H242195   3.029   1.597   2.558 -2.2951 -0.0566  1.0064
 6854TIP3   OH242196   2.778   6.397   1.839 -0.1740  0.0142  0.0190
 6854TIP3    H142197   2.754   6.489   1.844 -0.2283 -0.0041  0.0875
 6854TIP3    H242198   2.867   6.393   1.873  0.4912  0.3083 -1.5630
 6855TIP3   OH242199   4.282   3.955   1.944 -0.2633 -0.1417  0.0951
 6855TIP3    H142200   4.220   3.905   1.891 -1.2832 -0.8012  1.8548
 6855TIP3    H242201   4.357   3.896   1.954 -1.2463 -1.1881  1.7244
 6856TIP3   OH242202   2.654   4.284   0.953  0.0192 -0.1415 -0.0449
 6856TIP3    H142203   2.596   4.225   0.999 -0.1499 -1.0299 -1.3397
 6856TIP3    H242204   2.688   4.232   0.880  2.5024  0.3039  0.6836
 6857TIP3   OH242205   0.756   5.189   1.774 -0.3346  0.0934 -0.7016
 6857TIP3    H142206   0.804   5.242   1.837  1.4999 -0.9656 -1.1553
 6857TIP3    H242207   0.664   5.201   1.798  0.2153  1.1365  1.0288
 6858TIP3   OH242208   2.534   6.521   0.012 -0.1630 -0.5240 -0.6214
 6858TIP3    H142209   2.607   6.530   0.074  2.7505  0.4297 -3.8603
 6858TIP3    H242210   2.507   6.611  -0.005 -0.6592 -0.7453 -0.9961
 6859TIP3   OH242211   2.284   4.405   7.891  0.1676  0.1044 -0.2015
 6859TIP3    H142212   2.221   4.449   7.834  0.4994  0.9735  0.0963
 6859TIP3    H242213   2.367   4.449   7.873  1.6204 -3.3075 -3.3223
 6860TIP3   OH242214   0.398   3.101   1.102  0.3427  0.0384  0.5207
 6860TIP3    H142215   0.392   3.181   1.154 -0.0720 -0.1164  0.7153
 6860TIP3    H242216   0.312   3.093   1.060  0.7139  0.2320 -0.2954
 6861TIP3   OH242217   5.413   1.864   2.165 -0.0200 -0.5262  0.1324
 6861TIP3    H142218   5.411   1.772   2.189 -0.7324 -0.7664 -0.7957
 6861TIP3    H242219   5.321   1.890   2.160  0.1784  0.3329  0.7241
 6862TIP3   OH242220   4.642   2.640   6.129 -0.1231  0.2432  0.2314
 6862TIP3    H142221   4.594   2.646   6.211  0.6898  2.2757  0.6113
 6862TIP3    H242222   4.577   2.608   6.066 -0.6544 -1.7029  1.6969
 6863TIP3   OH242223   3.192   0.501   8.155  0.7356 -0.2898 -0.3730
 6863TIP3    H142224   3.200   0.573   8.218 -1.7868 -0.7833  0.6295
 6863TIP3    H242225   3.189   0.544   8.069 -0.3013  0.7812  0.1790
 6864TIP3   OH242226   0.767   1.518   1.012  0.0151  0.3173  0.4495
 6864TIP3    H142227   0.705   1.495   0.943  2.3646 -3.1148 -0.8021
 6864TIP3    H242228   0.723   1.492   1.093 -0.8332 -0.4968 -0.2485
 6865TIP3   OH242229   3.654   3.174   1.176  0.5587  0.1255  0.0525
 6865TIP3    H142230   3.562   3.202   1.186  0.5084 -0.6714  2.6595
 6865TIP3    H242231   3.662   3.152   1.083 -1.6942  0.8673 -0.4004
 6866TIP3   OH242232   4.775   0.883   6.439 -0.2882 -0.3720  0.2011
 6866TIP3    H142233   4.778   0.860   6.532  1.3385  1.0696  0.5521
 6866TIP3    H242234   4.854   0.844   6.402 -0.3886 -0.0649 -0.3500
 6867TIP3   OH242235   1.877   6.815   2.022 -0.1135  1.5254  0.5830
 6867TIP3    H142236   1.926   6.754   2.077 -1.7946 -0.1420  0.3324
 6867TIP3    H242237   1.802   6.840   2.075 -0.6829  1.4928 -0.1897
 6868TIP3   OH242238   5.199   5.612   0.973  0.2233  0.0754 -0.2589
 6868TIP3    H142239   5.229   5.694   1.013  2.3461 -0.6583 -0.1981
 6868TIP3    H242240   5.216   5.623   0.880 -0.5012  0.0963 -0.3937
 6869TIP3   OH242241   2.003   1.855   0.498  0.4779 -0.1741 -0.0970
 6869TIP3    H142242   2.019   1.767   0.532  0.1703 -0.3498 -0.4098
 6869TIP3    H242243   2.004   1.845   0.403 -0.1953  0.0443 -0.1297
 6870TIP3   OH242244   2.185   2.602   7.572  0.0425 -0.1354  0.5380
 6870TIP3    H142245   2.106   2.633   7.615  0.0830 -0.5150  0.8873
 6870TIP3    H242246   2.160   2.591   7.480  0.5221  2.8155 -0.0701
 6871TIP3   OH242247   0.994   2.972   6.654  0.2560  0.4169  0.3639
 6871TIP3    H142248   0.917   2.943   6.703  0.2059 -0.7183 -0.3704
 6871TIP3    H242249   1.013   3.059   6.690 -1.8524  1.0884 -0.0277
 6872TIP3   OH242250   5.225   1.140   1.027 -0.2429  0.3551 -0.3668
 6872TIP3    H142251   5.302   1.192   1.049  0.4827 -0.5714 -0.6350
 6872TIP3    H242252   5.247   1.051   1.056 -1.1600  0.0562 -0.5597
 6873TIP3   OH242253   2.063   0.017   5.979 -0.0649  0.3135 -0.2657
 6873TIP3    H142254   1.997  -0.052   5.987 -0.3507  0.3872 -1.6976
 6873TIP3    H242255   2.136  -0.026   5.933  0.9791  0.1915  1.4158
 6874TIP3   OH242256   7.081   3.535   7.393  0.0499  0.6666 -0.1545
 6874TIP3    H142257   7.045   3.517   7.480 -2.1213 -0.5327 -1.2188
 6874TIP3    H242258   7.008   3.574   7.344  0.9234  0.4232 -1.7332
 6875TIP3   OH242259   0.587   4.439   1.646  0.0255 -0.1151  0.1360
 6875TIP3    H142260   0.649   4.366   1.643  2.3526  1.7140  0.1840
 6875TIP3    H242261   0.580   4.468   1.555  5.6611  4.4184  0.5062
 6876TIP3   OH242262   0.368   6.261   7.976  0.0493 -0.1888  0.4971
 6876TIP3    H142263   0.397   6.267   7.885  1.1239 -0.2553  0.8197
 6876TIP3    H242264   0.426   6.196   8.016 -0.1010  0.1800  1.3474
 6877TIP3   OH242265   5.741   5.332   6.677  0.0343  0.2792  0.3367
 6877TIP3    H142266   5.693   5.415   6.674  1.7228  1.2893 -0.7676
 6877TIP3    H242267   5.763   5.314   6.586  0.0308 -1.2146  0.6028
 6878TIP3   OH242268   3.399   3.535   5.939  0.4832 -0.6339 -0.2555
 6878TIP3    H142269   3.391   3.513   6.032 -0.3609  0.4417 -0.0494
 6878TIP3    H242270   3.357   3.462   5.894 -4.2340  1.2054  0.4942
 6879TIP3   OH242271   2.156   0.833   0.054 -0.2866  0.4747  0.2368
 6879TIP3    H142272   2.125   0.811   0.142  0.9953  0.1561  0.6261
 6879TIP3    H242273   2.144   0.753   0.003  2.2720 -0.5336  1.0712
 6880TIP3   OH242274   0.937   2.796   7.180  0.0821 -1.0436  0.1314
 6880TIP3    H142275   0.925   2.867   7.118 -1.1529 -2.1122 -0.9129
 6880TIP3    H242276   1.030   2.799   7.203  0.5805 -0.6290 -1.8079
 6881TIP3   OH242277   1.121   2.759   1.955  0.7044  0.1341  0.8651
 6881TIP3    H142278   1.198   2.702   1.950 -0.4307 -1.3480 -0.3689
 6881TIP3    H242279   1.126   2.797   2.043  1.1320 -2.4099  2.0256
 6882TIP3   OH242280   3.283   6.385   7.741  0.3746 -0.1344  0.7215
 6882TIP3    H142281   3.328   6.337   7.811  0.4769 -0.1595  0.6384
 6882TIP3    H242282   3.224   6.319   7.702  1.5058 -0.5867 -0.2969
 6883TIP3   OH242283   2.757   6.352   0.535 -0.0730  0.9232 -0.0546
 6883TIP3    H142284   2.700   6.428   0.525 -0.7055  0.3899 -0.5650
 6883TIP3    H242285   2.713   6.281   0.488  0.3203  0.1382  0.7084
 6884TIP3   OH242286   1.603   6.861   2.118  0.3638  0.5126 -0.7198
 6884TIP3    H142287   1.617   6.860   2.212 -3.1197 -2.4692  0.0037
 6884TIP3    H242288   1.559   6.944   2.101 -1.1839  0.0623  0.8066
 6885TIP3   OH242289   7.053   6.247   7.635 -0.1417  0.2194 -0.0879
 6885TIP3    H142290   7.105   6.168   7.647 -0.4746 -0.1144 -0.7487
 6885TIP3    H242291   7.049   6.259   7.540  0.3643  1.3438  0.0156
 6886TIP3   OH242292   2.477   0.771   2.163  0.1331 -0.2464  0.3815
 6886TIP3    H142293   2.382   0.770   2.155  0.1921 -1.8612 -0.5956
 6886TIP3    H242294   2.498   0.692   2.211  1.0379 -0.4822 -0.3669
 6887TIP3   OH242295   2.087   2.899   7.303  0.0506  0.5572 -0.2222
 6887TIP3    H142296   2.080   2.873   7.211  0.0950 -2.6581  0.5758
 6887TIP3    H242297   2.008   2.863   7.344  1.4886 -0.8201  1.5146
 6888TIP3   OH242298   5.208   6.030   7.628  0.1710 -0.1877  0.1323
 6888TIP3    H142299   5.300   6.031   7.652  0.2738  2.8725 -0.0490
 6888TIP3    H242300   5.193   6.114   7.583 -2.5784 -0.8053 -0.3079
 6889TIP3   OH242301   4.119   0.457   8.079 -0.4291 -0.1122 -0.5461
 6889TIP3    H142302   4.062   0.420   8.012 -0.7894  0.0160 -0.3096
 6889TIP3    H242303   4.064   0.519   8.127  0.2489  1.0532 -1.1979
 6890TIP3   OH242304   4.056   2.806   0.398 -0.7730 -0.4023  0.4663
 6890TIP3    H142305   4.108   2.765   0.468  0.5255 -1.2368 -0.9242
 6890TIP3    H242306   3.995   2.738   0.371 -1.4530  0.0086  0.9437
 6891TIP3   OH242307   5.098   0.195   6.632 -0.5454 -0.2822  0.0222
 6891TIP3    H142308   5.133   0.274   6.592 -2.2358  0.9601  0.8403
 6891TIP3    H242309   5.129   0.198   6.723 -0.3820 -0.7188 -0.0160
 6892TIP3   OH242310   4.938   6.062   0.223 -0.2264  0.0540 -0.2387
 6892TIP3    H142311   5.033   6.074   0.227 -0.3425  0.5717  1.9253
 6892TIP3    H242312   4.904   6.148   0.198 -0.1863  0.1359 -0.0098
 6893TIP3   OH242313   4.784   6.213   7.147 -0.2986  0.3503  0.0638
 6893TIP3    H142314   4.690   6.200   7.133 -0.7309  2.2339  0.8215
 6893TIP3    H242315   4.789   6.268   7.226  1.5439 -1.2339  1.1495
 6894TIP3   OH242316   0.879   5.521   1.743  0.2762  0.1627 -0.2497
 6894TIP3    H142317   0.910   5.612   1.745 -2.6293  1.2364 -0.2504
 6894TIP3    H242318   0.790   5.526   1.709 -1.0019 -2.3751  2.2712
 6895TIP3   OH242319   0.727   4.839   6.258 -0.1815  0.6033 -0.0580
 6895TIP3    H142320   0.776   4.807   6.333 -0.6177 -0.5883 -0.2669
 6895TIP3    H242321   0.739   4.772   6.191 -0.4347  1.2749 -0.7975
 6896TIP3   OH242322   4.960   1.316   8.033 -0.3377 -0.4461 -0.3156
 6896TIP3    H142323   4.906   1.270   8.097 -0.5674  0.0918 -0.1133
 6896TIP3    H242324   4.902   1.383   7.996 -0.3572 -1.0479 -1.4357
 6897TIP3   OH242325   6.877   6.035   8.142  0.0491 -0.2339  0.1227
 6897TIP3    H142326   6.837   6.078   8.218 -2.0825  3.0326 -2.5498
 6897TIP3    H242327   6.820   5.960   8.124 -0.3903 -0.0649  0.7774
 6898TIP3   OH242328   0.144   3.829   6.890  0.4107 -0.1323 -0.1491
 6898TIP3    H142329   0.155   3.827   6.795 -0.0789 -1.4939 -0.1960
 6898TIP3    H242330   0.217   3.883   6.921  0.7931  0.0280 -1.2644
 6899TIP3   OH242331   1.515   6.568   6.114 -0.2324 -0.4061 -0.2892
 6899TIP3    H142332   1.476   6.545   6.030 -0.6504  1.8776 -0.7872
 6899TIP3    H242333   1.593   6.618   6.092 -0.2685  0.1076  0.6765
 6900TIP3   OH242334   1.416   0.734   7.731 -0.9531 -0.3594  0.2222
 6900TIP3    H142335   1.342   0.778   7.690  0.0060  0.2080 -0.9798
 6900TIP3    H242336   1.383   0.704   7.816 -2.0175  1.5548  0.5472
 6901TIP3   OH242337   2.274   3.322   0.615 -0.2267  0.2603 -0.2758
 6901TIP3    H142338   2.327   3.395   0.648 -0.1038  0.2028 -0.3449
 6901TIP3    H242339   2.193   3.363   0.587 -0.4328  0.2786  0.3282
 6902TIP3   OH242340   3.182   5.315   0.618  0.0776 -0.5785 -0.1094
 6902TIP3    H142341   3.094   5.281   0.637 -0.7062  1.8887  1.1625
 6902TIP3    H242342   3.236   5.237   0.609 -1.5740 -2.1883  2.4499
 6903TIP3   OH242343   5.310   5.646   0.371 -0.3044  0.1126  0.9629
 6903TIP3    H142344   5.221   5.637   0.404 -0.2854  0.4794  1.1212
 6903TIP3    H242345   5.362   5.585   0.425 -0.4214  0.0627  1.0190
 6904TIP3   OH242346   0.689   6.179   1.863 -0.1743  0.2229 -0.3973
 6904TIP3    H142347   0.665   6.087   1.864 -1.6921  0.4433  3.7678
 6904TIP3    H242348   0.748   6.189   1.938 -0.1249  2.6491 -0.6870
 6905TIP3   OH242349   3.506   3.167   7.096  0.5888 -0.3031  0.0893
 6905TIP3    H142350   3.482   3.118   7.017  2.0690 -1.4327  0.3037
 6905TIP3    H242351   3.423   3.202   7.129 -0.3627 -1.7212 -0.7049
 6906TIP3   OH242352   0.918   0.133   6.899  0.9489 -0.1459  0.1835
 6906TIP3    H142353   0.893   0.201   6.837 -1.0336 -1.9436 -1.1481
 6906TIP3    H242354   0.948   0.060   6.844 -1.7510 -2.1478  1.1586
 6907TIP3   OH242355   1.067   3.715   0.802 -0.3349 -0.5121  0.5802
 6907TIP3    H142356   1.047   3.624   0.780  1.8940 -0.9320 -0.0021
 6907TIP3    H242357   1.094   3.755   0.719 -1.6988  0.8431  0.7436
 6908TIP3   OH242358   3.847   2.187   1.679  0.0389 -0.1370 -0.1413
 6908TIP3    H142359   3.916   2.189   1.746  0.1139  0.1729 -0.2259
 6908TIP3    H242360   3.826   2.279   1.663 -0.6255 -0.2372  0.1173
 6909TIP3   OH242361   4.614   1.791   7.090 -0.5214 -0.2124 -0.4817
 6909TIP3    H142362   4.661   1.755   7.015 -0.9547  2.1442 -1.9960
 6909TIP3    H242363   4.676   1.785   7.162  0.1971 -1.8428 -1.1948
 6910TIP3   OH242364   5.250   1.776   0.931  0.1145 -0.7606 -0.2010
 6910TIP3    H142365   5.301   1.699   0.956  1.2459  0.4540  1.4446
 6910TIP3    H242366   5.307   1.824   0.870  0.0476 -0.4780 -0.0439
 6911TIP3   OH242367   1.000   2.618   0.977  0.0612 -0.8952 -0.1525
 6911TIP3    H142368   1.052   2.666   1.041 -1.1392 -2.3073  1.9698
 6911TIP3    H242369   0.919   2.670   0.969  0.0426 -0.9343 -0.2165
 6912TIP3   OH242370   2.177   2.311   6.471 -0.4274  0.2192 -0.3159
 6912TIP3    H142371   2.157   2.258   6.394 -0.6404  0.9693 -0.7889
 6912TIP3    H242372   2.154   2.400   6.445 -0.5314  0.4780  0.6273
 6913TIP3   OH242373   6.842   1.060   0.912  0.3396 -0.0911 -0.1925
 6913TIP3    H142374   6.759   1.099   0.942 -0.4053 -2.2539  0.8040
 6913TIP3    H242375   6.817   1.010   0.834  1.0116  0.3438 -0.6935
 6914TIP3   OH242376   1.321   6.871   0.220  0.1431 -0.1517 -0.5401
 6914TIP3    H142377   1.316   6.961   0.252  0.4341 -0.4223  0.2959
 6914TIP3    H242378   1.370   6.825   0.288 -0.7678 -1.1271 -0.5224
 6915TIP3   OH242379   4.212   0.257   0.174 -0.3072  0.5623 -1.0753
 6915TIP3    H142380   4.220   0.244   0.080 -0.1440 -0.1549 -0.9700
 6915TIP3    H242381   4.137   0.204   0.199 -0.4909  0.9325 -0.8315
 6916TIP3   OH242382   0.746   3.971   7.720  0.2130 -0.0621 -0.3093
 6916TIP3    H142383   0.704   3.979   7.634 -0.7416  1.0755  0.2295
 6916TIP3    H242384   0.769   4.061   7.743  2.4350 -0.5881 -0.2984
 6917TIP3   OH242385   4.396   1.211   0.602  0.0563 -0.0185 -0.2659
 6917TIP3    H142386   4.334   1.198   0.674  0.8352 -1.6326  0.1910
 6917TIP3    H242387   4.370   1.147   0.536  0.7188 -0.1579 -0.4039
 6918TIP3   OH242388   6.783   6.399   2.045 -0.1177 -0.3392 -0.3068
 6918TIP3    H142389   6.725   6.386   2.120 -0.3136  1.1075 -0.1836
 6918TIP3    H242390   6.769   6.490   2.019  0.1561 -0.7278 -1.9326
 6919TIP3   OH242391   5.215   1.395   0.899  0.0758 -0.1892  0.2628
 6919TIP3    H142392   5.307   1.402   0.875 -0.0567  1.4542  0.1183
 6919TIP3    H242393   5.215   1.378   0.993  0.5239  0.2131  0.3382
 6920TIP3   OH242394   5.245   4.024   8.184 -0.7379 -0.0167  0.7861
 6920TIP3    H142395   5.229   3.994   8.274  1.3299 -1.1705  0.8525
 6920TIP3    H242396   5.329   3.984   8.161 -0.2344  1.8674 -0.9560
 6921TIP3   OH242397   4.940   4.228   7.222 -0.2157  0.2146 -0.0344
 6921TIP3    H142398   4.973   4.309   7.182 -0.2921  1.3227  2.0275
 6921TIP3    H242399   5.018   4.183   7.254 -0.0544 -1.1670 -2.1579
 6922TIP3   OH242400   0.583   6.821   1.481  0.5400  0.1299  0.3945
 6922TIP3    H142401   0.630   6.740   1.500  2.2080  0.8662 -0.3644
 6922TIP3    H242402   0.572   6.864   1.567  0.9778 -0.2014  0.6154
 6923TIP3   OH242403   3.931   3.841   7.544 -0.3690  0.1196  0.2347
 6923TIP3    H142404   4.001   3.902   7.568 -1.3705  1.2347  0.3900
 6923TIP3    H242405   3.862   3.897   7.509 -1.1798 -0.9653  0.0765
 6924TIP3   OH242406   0.969   3.459   0.736  0.1651 -0.1155 -0.4472
 6924TIP3    H142407   0.881   3.494   0.753 -0.2892 -0.0426 -2.6272
 6924TIP3    H242408   0.973   3.378   0.786 -1.1529 -0.1075 -0.2871
 6925TIP3   OH242409   2.532   5.306   2.101 -0.3459 -0.5495 -0.1710
 6925TIP3    H142410   2.607   5.363   2.119 -0.4427 -0.4285 -0.1452
 6925TIP3    H242411   2.459   5.367   2.087 -0.3141 -0.6542 -0.7845
 6926TIP3   OH242412   6.210   4.622   6.831 -0.5319 -0.5072  0.3599
 6926TIP3    H142413   6.182   4.533   6.808 -0.5207  0.4595 -4.3247
 6926TIP3    H242414   6.304   4.614   6.849 -0.8575 -1.6140  1.7627
 6927TIP3   OH242415   6.791   5.662   7.146  0.1685  0.0005 -0.1879
 6927TIP3    H142416   6.791   5.756   7.164  1.0027  0.5851 -2.8087
 6927TIP3    H242417   6.871   5.629   7.187  0.1575  0.5363  0.2709
 6928TIP3   OH242418   1.561   5.151   7.044  0.0599 -0.0309 -0.2177
 6928TIP3    H142419   1.481   5.146   7.096  1.0112 -1.1926  1.2151
 6928TIP3    H242420   1.570   5.243   7.023 -2.4393 -0.0385 -1.7279
 6929TIP3   OH242421   2.879   4.261   7.048 -0.3117  0.7289  0.3603
 6929TIP3    H142422   2.839   4.209   7.118 -3.9636  1.3565 -1.0392
 6929TIP3    H242423   2.895   4.347   7.087  0.2742  0.2810  1.1233
 6930TIP3   OH242424   0.604   6.581   0.966 -0.0429 -0.0635 -0.4521
 6930TIP3    H142425   0.618   6.654   1.026  1.1282  0.2731 -1.1027
 6930TIP3    H242426   0.612   6.620   0.879 -2.1813 -0.4419 -0.8956
 6931TIP3   OH242427   6.439   3.609   0.358 -0.2420  0.3397  0.3273
 6931TIP3    H142428   6.534   3.613   0.352 -0.3243  0.2489 -1.3784
 6931TIP3    H242429   6.419   3.516   0.366 -0.1986  0.3419  0.4628
 6932TIP3   OH242430   2.697   0.837   7.608  0.0146 -0.3522  0.1658
 6932TIP3    H142431   2.711   0.884   7.690  0.4382 -0.9749  0.4548
 6932TIP3    H242432   2.782   0.834   7.566 -0.3834  0.8091 -0.7695
 6933TIP3   OH242433   0.857   2.291   7.239  0.7046 -0.1901 -0.0155
 6933TIP3    H142434   0.840   2.375   7.282 -2.1330 -0.8015  0.2640
 6933TIP3    H242435   0.806   2.295   7.159 -1.0655 -2.3272  0.9220
 6934TIP3   OH242436   4.106   0.952   6.608 -0.5699 -0.3975  0.2230
 6934TIP3    H142437   4.045   0.893   6.564  0.9950 -0.8121 -1.5185
 6934TIP3    H242438   4.054   1.030   6.628 -1.9903 -1.2732  0.0820
 6935TIP3   OH242439   6.450   6.897   6.398  0.8734 -0.0458 -0.1580
 6935TIP3    H142440   6.437   6.802   6.404  1.8238 -0.1884 -0.1206
 6935TIP3    H242441   6.545   6.907   6.391  0.8615  0.9685  0.8874
 6936TIP3   OH242442   6.272   3.375   0.640  0.3365 -0.0183  0.1509
 6936TIP3    H142443   6.329   3.342   0.571 -1.1704 -3.2332  0.2738
 6936TIP3    H242444   6.308   3.340   0.721 -0.5230 -0.2199  0.4594
 6937TIP3   OH242445   5.755   5.890   6.613  0.3238 -0.0627  0.0612
 6937TIP3    H142446   5.720   5.886   6.702 -0.0753  0.8122 -0.0475
 6937TIP3    H242447   5.712   5.966   6.574  1.2760  0.1688 -0.5480
 6938TIP3   OH242448   2.276   1.987   0.907 -0.0390 -0.5054 -0.4683
 6938TIP3    H142449   2.212   2.026   0.966 -1.0148 -0.5586 -1.4470
 6938TIP3    H242450   2.239   1.901   0.885  1.9505 -1.9808  1.4662
 6939TIP3   OH242451   3.999   0.882   7.845 -0.0335 -0.7878  0.7029
 6939TIP3    H142452   4.018   0.963   7.797  2.7100 -1.4434  0.5304
 6939TIP3    H242453   3.958   0.911   7.926  1.6446  0.8683  1.0167
 6940TIP3   OH242454   0.570   2.764   1.900  0.1656 -0.1735  0.1012
 6940TIP3    H142455   0.598   2.794   1.986  1.5235  0.1266 -0.4226
 6940TIP3    H242456   0.604   2.675   1.893 -0.1396 -0.2822 -0.0399
 6941TIP3   OH242457   2.884   2.851   0.146 -0.2258  0.9647  0.1362
 6941TIP3    H142458   2.911   2.835   0.236 -0.3442  0.7574  0.1369
 6941TIP3    H242459   2.832   2.774   0.123  1.7170 -0.1133 -0.8855
 6942TIP3   OH242460   4.134   6.356   7.881 -0.5948  0.5412  0.5857
 6942TIP3    H142461   4.083   6.413   7.823  1.6192  2.2015  0.1637
 6942TIP3    H242462   4.147   6.408   7.960 -1.6263 -0.8337  1.7131
 6943TIP3   OH242463   0.054   2.421   1.180 -0.6252  0.0423  0.1597
 6943TIP3    H142464   0.032   2.360   1.250  0.2640  1.5910  1.8656
 6943TIP3    H242465   0.046   2.508   1.220 -0.0443  0.9850 -1.6529
 6944TIP3   OH242466   2.942   4.624   1.139  0.7657  0.3804 -0.1615
 6944TIP3    H142467   2.860   4.674   1.135  0.8945  0.5357 -1.7187
 6944TIP3    H242468   2.955   4.605   1.232 -1.7043 -0.7531  0.0170
 6945TIP3   OH242469   2.575   1.375   7.098  0.6761 -0.5252 -0.3289
 6945TIP3    H142470   2.543   1.287   7.117  0.8988 -0.5730 -0.1714
 6945TIP3    H242471   2.671   1.366   7.093  0.8134 -0.0703  0.9349
 6946TIP3   OH242472   3.725   1.199   6.799 -0.1098  0.1963 -0.1511
 6946TIP3    H142473   3.739   1.140   6.725  1.5968  0.8051 -0.3745
 6946TIP3    H242474   3.651   1.162   6.847  1.5561 -2.7459  0.3559
 6947TIP3   OH242475   1.845   1.835   7.283 -0.2129  0.5749  0.2788
 6947TIP3    H142476   1.876   1.919   7.250 -1.0447  0.2061 -1.5857
 6947TIP3    H242477   1.822   1.785   7.204 -1.8386 -0.5856  1.4120
 6948TIP3   OH242478   0.057   3.281   0.490  0.3540  0.1123  0.2923
 6948TIP3    H142479   0.059   3.352   0.553 -1.3025  0.3524  0.1261
 6948TIP3    H242480   0.077   3.203   0.541 -2.9762 -0.0061  1.6668
 6949TIP3   OH242481   3.455   1.745   0.459  0.0593 -0.4381  0.6651
 6949TIP3    H142482   3.486   1.802   0.529 -0.1497 -0.7995  1.0549
 6949TIP3    H242483   3.375   1.786   0.428  0.0200 -0.4057  0.8084
 6950TIP3   OH242484   1.948   1.257   7.614 -0.4383  0.0043  0.5691
 6950TIP3    H142485   1.912   1.315   7.681  1.2057  0.5767  1.0297
 6950TIP3    H242486   1.953   1.311   7.535 -1.7822 -0.4794  0.1268
 6951TIP3   OH242487   6.996   6.883   6.485  0.1978 -0.4518  0.5742
 6951TIP3    H142488   7.065   6.823   6.456  0.3362  0.8750 -2.0872
 6951TIP3    H242489   7.043   6.960   6.518  0.1246  0.9685 -2.3659
 6952TIP3   OH242490   0.502   3.686   6.823  0.6633  0.9455 -0.1750
 6952TIP3    H142491   0.570   3.623   6.847 -1.3310 -1.0209  0.7410
 6952TIP3    H242492   0.501   3.748   6.896  1.5803  1.1089 -0.2920
 6953TIP3   OH242493   0.885   4.412   7.567 -0.4517 -0.4945  0.1758
 6953TIP3    H142494   0.936   4.479   7.522 -0.2365 -1.4497 -1.0623
 6953TIP3    H242495   0.795   4.443   7.565 -0.2677  0.0435  0.1847
 6954TIP3   OH242496   2.610   1.474   1.742 -0.0258  0.4435  0.2445
 6954TIP3    H142497   2.519   1.448   1.755 -0.0713  0.9070  0.9271
 6954TIP3    H242498   2.605   1.556   1.692  0.0021  0.5252  0.3724
 6955TIP3   OH242499   6.090   2.065   6.771 -0.5363 -0.3482 -0.0147
 6955TIP3    H142500   6.112   2.072   6.864 -0.2403  0.8116 -0.1547
 6955TIP3    H242501   6.173   2.080   6.725 -0.5077 -1.7642 -0.4674
 6956TIP3   OH242502   2.667   4.627   6.895  0.8166  0.1911  0.6425
 6956TIP3    H142503   2.750   4.675   6.897  1.5593 -1.0335 -0.0020
 6956TIP3    H242504   2.621   4.661   6.819  0.6577  0.9605  1.0701
 6957TIP3   OH242505   6.078   1.989   7.066 -0.0253 -0.0437 -0.8878
 6957TIP3    H142506   6.113   1.974   7.154 -0.7612  1.0224 -0.3869
 6957TIP3    H242507   6.026   1.912   7.048 -2.5521  1.0605  1.0154
 6958TIP3   OH242508   7.016   2.109   1.105  0.3014 -0.0146  0.2368
 6958TIP3    H142509   6.925   2.133   1.125  0.3767  1.2167 -0.7139
 6958TIP3    H242510   7.064   2.127   1.186 -0.1264  0.4626  0.3937
 6959TIP3   OH242511   0.046   2.588   0.440  0.2683 -0.3078 -0.1044
 6959TIP3    H142512   0.023   2.507   0.394  1.6566 -0.3361 -0.7834
 6959TIP3    H242513  -0.018   2.652   0.408 -2.1155 -1.5011  1.8846
 6960TIP3   OH242514   1.737   2.729   8.222  0.0361 -0.2665 -0.6741
 6960TIP3    H142515   1.655   2.680   8.220 -0.6331  0.8233 -1.1608
 6960TIP3    H242516   1.715   2.813   8.182  1.6521 -0.3279 -1.7855
 6961TIP3   OH242517   3.091   5.897   7.455  0.1845 -0.3286  0.2217
 6961TIP3    H142518   3.185   5.881   7.445  0.2762 -0.0833  0.7057
 6961TIP3    H242519   3.064   5.934   7.371  0.3982 -0.9686 -0.1363
 6962TIP3   OH242520   6.053   1.246   2.577 -0.3161  0.2481  0.3204
 6962TIP3    H142521   6.084   1.336   2.576 -0.8031  0.4195 -0.3985
 6962TIP3    H242522   6.031   1.227   2.486  0.7323 -0.9415  0.2776
 6963TIP3   OH242523   4.560   1.023   5.963  0.3215 -0.2814  0.1202
 6963TIP3    H142524   4.655   1.015   5.974  0.5152  1.1690 -0.3965
 6963TIP3    H242525   4.535   1.096   6.020 -0.4515 -0.4839  0.0496
 6964TIP3   OH242526   0.918   7.021   1.105 -0.1169 -0.1809  0.3696
 6964TIP3    H142527   0.851   6.989   1.165 -1.6895 -0.2649 -1.3090
 6964TIP3    H242528   0.936   7.111   1.134 -2.0895  0.3825  0.0256
 6965TIP3   OH242529   4.601   6.003   0.249 -0.1585  0.2447 -0.1608
 6965TIP3    H142530   4.537   6.044   0.190  0.5901  0.5771 -0.7614
 6965TIP3    H242531   4.646   5.939   0.195  1.2193  1.2438 -0.2565
 6966TIP3   OH242532   6.344   3.268   0.043  0.2513 -0.1461  0.4134
 6966TIP3    H142533   6.383   3.191   0.001 -0.7496  0.4617 -1.7352
 6966TIP3    H242534   6.324   3.239   0.132  1.4376 -1.8281  0.1760
 6967TIP3   OH242535   2.384   4.846   1.153  0.3462 -0.4335  0.3655
 6967TIP3    H142536   2.290   4.863   1.158  0.3726 -0.5915  2.3733
 6967TIP3    H242537   2.408   4.868   1.063 -1.4272  0.5195  0.0800
 6968TIP3   OH242538   4.780   7.051   1.023 -0.0057  0.7120 -0.4909
 6968TIP3    H142539   4.852   7.070   0.963 -0.4482 -0.3178 -1.3894
 6968TIP3    H242540   4.708   7.105   0.992  0.7471  2.9457  1.3508
 6969TIP3   OH242541   5.231   0.987   7.216 -0.3918  0.3210 -0.1789
 6969TIP3    H142542   5.230   0.891   7.222  0.8014  0.3599  1.7440
 6969TIP3    H242543   5.316   1.008   7.177 -0.2559  0.5985  0.2547
 6970TIP3   OH242544   3.288   2.703   5.890 -0.5622  0.0743 -0.2840
 6970TIP3    H142545   3.222   2.771   5.879 -2.3733 -1.5616 -0.0801
 6970TIP3    H242546   3.325   2.719   5.977  0.6560  2.0572 -1.0900
 6971TIP3   OH242547   5.855   5.465   0.952 -0.3963  0.4632  0.0871
 6971TIP3    H142548   5.925   5.469   0.887 -0.2483  0.0679  0.2219
 6971TIP3    H242549   5.891   5.510   1.028 -0.3166  0.3276  0.1299
 6972TIP3   OH242550   0.639   1.411   7.495 -0.3478 -0.2431  0.0556
 6972TIP3    H142551   0.566   1.447   7.445  0.4862  0.5967 -0.6146
 6972TIP3    H242552   0.688   1.488   7.524 -0.1275 -0.7641  1.1235
 6973TIP3   OH242553   6.486   3.818   1.236 -0.0392  0.0851  0.2787
 6973TIP3    H142554   6.517   3.881   1.171 -1.5874  0.5207 -0.0592
 6973TIP3    H242555   6.539   3.740   1.220  2.0964  1.3342  0.8721
 6974TIP3   OH242556   5.619   1.766   7.365 -0.0914 -0.0299 -1.1661
 6974TIP3    H142557   5.623   1.831   7.435 -1.5225 -1.0868 -0.0379
 6974TIP3    H242558   5.531   1.776   7.328 -0.1748 -0.9957 -1.2650
 6975TIP3   OH242559   0.137   4.209   1.560 -0.0132  0.0722  0.5460
 6975TIP3    H142560   0.096   4.125   1.578 -0.5752 -0.0099 -0.9680
 6975TIP3    H242561   0.118   4.262   1.638 -2.5649 -0.1310  0.1411
 6976TIP3   OH242562   4.872   5.224   1.121  0.0013 -0.5144  0.0703
 6976TIP3    H142563   4.801   5.271   1.165 -1.2655 -0.9905 -1.3824
 6976TIP3    H242564   4.949   5.280   1.134 -1.3591  1.8245 -1.2479
 6977TIP3   OH242565   7.030   2.296   0.402  0.8575 -0.4178  0.2754
 6977TIP3    H142566   6.950   2.254   0.433  1.0521 -0.3673  0.8582
 6977TIP3    H242567   7.099   2.265   0.462  1.5056 -1.3893 -0.9212
 6978TIP3   OH242568   6.447   2.281   7.966 -0.2498  0.3433 -0.9727
 6978TIP3    H142569   6.382   2.351   7.962 -0.0918  0.5092 -0.6471
 6978TIP3    H242570   6.528   2.322   7.937 -0.0758  0.3950 -0.4262
 6979TIP3   OH242571   6.187   5.128   1.862  0.6763  0.6899  0.0434
 6979TIP3    H142572   6.164   5.217   1.836  0.2767  0.5883  0.0499
 6979TIP3    H242573   6.221   5.088   1.782  3.7947  1.7797  0.6711
 6980TIP3   OH242574   4.585   0.370   2.035  0.5588  0.4445  0.3042
 6980TIP3    H142575   4.611   0.455   1.999  0.6585  0.3333  0.1093
 6980TIP3    H242576   4.505   0.388   2.084 -0.4245  0.3576 -1.1906
 6981TIP3   OH242577   5.065   3.635   1.345 -0.2063  0.7823 -0.8099
 6981TIP3    H142578   5.010   3.670   1.415  0.8088  0.1332  0.3536
 6981TIP3    H242579   5.027   3.671   1.264 -1.7562  1.0862  0.0135
 6982TIP3   OH242580   7.026   1.773   6.847  0.1369 -0.0775  0.0802
 6982TIP3    H142581   6.951   1.761   6.906 -0.0401 -0.2335 -0.1787
 6982TIP3    H242582   7.024   1.867   6.827 -1.9249 -0.5685 -2.4835
 6983TIP3   OH242583   0.121   4.560   7.102  0.1082 -0.3493 -0.1559
 6983TIP3    H142584   0.119   4.508   7.183  1.5028 -0.2027 -0.0012
 6983TIP3    H242585   0.106   4.650   7.132 -0.5798 -0.4363 -0.2177
 6984TIP3   OH242586   6.532   6.862   7.145  0.4240  0.7583 -0.7383
 6984TIP3    H142587   6.505   6.840   7.056  0.1714  2.1398 -1.0303
 6984TIP3    H242588   6.545   6.957   7.143  0.2725  0.8295  0.7357
 6985TIP3   OH242589   1.667   2.962   6.925 -0.3854  0.6842 -0.2253
 6985TIP3    H142590   1.723   2.901   6.973 -0.9007  0.0170 -0.4575
 6985TIP3    H242591   1.727   3.027   6.889  0.2778 -0.1995 -0.7364
 6986TIP3   OH242592   0.908   6.769   6.906 -0.0802 -0.0734 -0.0855
 6986TIP3    H142593   0.859   6.775   6.987 -3.0528  0.5201 -1.7759
 6986TIP3    H242594   0.979   6.832   6.915 -1.9581  2.0035  1.0639
 6987TIP3   OH242595   0.712   2.716   0.995  0.3171 -0.3237 -0.1093
 6987TIP3    H142596   0.747   2.777   1.060  0.3145 -0.7467  0.2969
 6987TIP3    H242597   0.679   2.771   0.925 -0.0195  0.1519  0.4210
 6988TIP3   OH242598   1.094   0.364   6.993 -0.5368  0.0394  0.4534
 6988TIP3    H142599   1.142   0.372   6.911 -1.8211  0.7362 -0.2587
 6988TIP3    H242600   1.022   0.427   6.986 -1.0788 -0.3735  1.8259
 6989TIP3   OH242601   4.884   6.234   7.740 -0.3253  0.0087  0.2098
 6989TIP3    H142602   4.948   6.301   7.765  0.6850 -0.7778 -0.2012
 6989TIP3    H242603   4.804   6.258   7.787 -0.1458  1.7946 -0.3274
 6990TIP3   OH242604   1.981   4.796   6.150 -0.4990  0.2036  0.6680
 6990TIP3    H142605   1.992   4.856   6.076  0.6704 -1.2960 -0.4336
 6990TIP3    H242606   2.065   4.798   6.196 -0.5319 -0.4039  0.7615
 6991TIP3   OH242607   6.248   2.380   1.539 -0.1547 -0.8086 -0.1030
 6991TIP3    H142608   6.330   2.347   1.504 -0.8755 -1.1841 -1.5239
 6991TIP3    H242609   6.229   2.323   1.613  0.6405 -1.0011 -0.0428
 6992TIP3   OH242610   5.131   1.257   1.582  0.5162 -0.0696  0.0065
 6992TIP3    H142611   5.223   1.280   1.567  0.4131  1.5535  1.5346
 6992TIP3    H242612   5.098   1.234   1.495  2.3262 -0.6208 -0.5942
 6993TIP3   OH242613   1.390   0.051   0.933  0.4863  0.4212  0.0049
 6993TIP3    H142614   1.347   0.006   1.006  3.2066 -0.0353  1.4650
 6993TIP3    H242615   1.332   0.124   0.913 -2.4032 -1.7364 -0.1843
 6994TIP3   OH242616   0.399   1.069   0.340 -0.0620  0.0249  0.2437
 6994TIP3    H142617   0.370   1.114   0.261  1.2671 -0.2817 -0.4395
 6994TIP3    H242618   0.320   1.029   0.375 -0.7189  0.4059 -0.7690
 6995TIP3   OH242619   6.172   0.275   6.750  0.0474  0.0201  0.7897
 6995TIP3    H142620   6.098   0.288   6.691 -1.3859 -0.3868  2.4285
 6995TIP3    H242621   6.245   0.251   6.692 -0.5601  2.1996 -1.0588
 6996TIP3   OH242622   5.492   3.897   0.571 -0.1672  0.8396  0.1603
 6996TIP3    H142623   5.513   3.818   0.620 -2.8037  0.4326  0.7888
 6996TIP3    H242624   5.465   3.865   0.485 -2.2779  0.8600  0.7493
 6997TIP3   OH242625   2.470   5.254   1.828  0.3122 -0.6348  0.3888
 6997TIP3    H142626   2.436   5.166   1.812 -1.7729 -0.0483  1.3205
 6997TIP3    H242627   2.462   5.267   1.922  0.1755  0.7061  0.2175
 6998TIP3   OH242628   6.311   1.350   1.467  0.1827 -0.5664 -0.1482
 6998TIP3    H142629   6.334   1.336   1.375 -3.5812  0.5499 -1.4507
 6998TIP3    H242630   6.276   1.266   1.496 -0.2793 -0.4466 -0.3428
 6999TIP3   OH242631   2.230   5.759   7.747  0.3152  0.5742  0.3009
 6999TIP3    H142632   2.221   5.664   7.734  0.4557  0.0185  3.4281
 6999TIP3    H242633   2.317   5.769   7.786 -0.1301  1.8466  1.0032
 7000TIP3   OH242634   2.165   3.053   7.992 -0.4037  0.0649 -0.4536
 7000TIP3    H142635   2.196   3.140   7.965 -1.5417  1.0118  1.0970
 7000TIP3    H242636   2.070   3.062   7.998 -0.4832 -1.1005  0.3727
 7001TIP3   OH242637   4.582   6.487   6.232  0.2301 -0.2712 -0.1193
 7001TIP3    H142638   4.563   6.554   6.298  0.3628 -0.1943 -0.1586
 7001TIP3    H242639   4.622   6.415   6.282  3.8147  1.2291 -0.5542
 7002TIP3   OH242640   2.079   6.617   1.926  0.4745  0.1216  0.1413
 7002TIP3    H142641   2.135   6.689   1.955  0.9899  0.7707 -2.2646
 7002TIP3    H242642   2.134   6.539   1.933  0.7995  0.3597  0.2461
 7003TIP3   OH242643   3.693   6.983   6.268  0.3576  0.6869  0.1769
 7003TIP3    H142644   3.668   6.929   6.193 -1.0328  1.8882 -0.2790
 7003TIP3    H242645   3.674   7.073   6.240 -1.5482  1.0824  2.4342
 7004TIP3   OH242646   1.591   5.305   0.816 -0.4783 -0.2362  0.0806
 7004TIP3    H142647   1.593   5.309   0.720  1.6405  0.9526  0.1087
 7004TIP3    H242648   1.591   5.397   0.844  1.4728 -0.5239  1.1880
 7005TIP3   OH242649   4.354   3.498   7.045  0.0052 -0.3234  0.1867
 7005TIP3    H142650   4.290   3.547   6.992 -0.6205 -0.9651  0.3380
 7005TIP3    H242651   4.381   3.425   6.989 -0.4175 -0.8227  0.6221
 7006TIP3   OH242652   5.404   0.518   2.178 -0.2198 -0.3840  0.1151
 7006TIP3    H142653   5.381   0.569   2.255  0.6271 -1.8630  1.4135
 7006TIP3    H242654   5.368   0.567   2.104 -1.3331  0.9094  1.4680
 7007TIP3   OH242655   3.771   3.383   0.120  0.4519  0.7168  0.2026
 7007TIP3    H142656   3.774   3.395   0.025  0.8266  1.0326  0.2505
 7007TIP3    H242657   3.745   3.468   0.154 -1.3016  0.1695  0.2993
 7008TIP3   OH242658   6.488   3.045   8.240 -0.2387 -0.4747  0.5857
 7008TIP3    H142659   6.559   2.981   8.237 -0.9219 -1.2561 -2.5438
 7008TIP3    H242660   6.409   2.993   8.253 -0.7837 -0.3532 -1.8240
 7009TIP3   OH242661   6.654   2.830   0.850  0.3619  0.0447 -0.2011
 7009TIP3    H142662   6.616   2.877   0.924 -0.0758  0.3966 -0.6433
 7009TIP3    H242663   6.650   2.891   0.777 -0.1898 -0.6563 -0.7803
 7010TIP3   OH242664   3.842   4.562   7.169  0.1034  0.2272  0.2369
 7010TIP3    H142665   3.801   4.648   7.173  1.8579  1.1991 -1.3394
 7010TIP3    H242666   3.934   4.580   7.152  0.6496 -1.9674  0.5707
 7011TIP3   OH242667   1.427   2.176   1.434  0.1091  0.4173  0.2193
 7011TIP3    H142668   1.503   2.186   1.492 -2.1147  3.0397  3.0485
 7011TIP3    H242669   1.437   2.244   1.368  0.1628  0.8993  0.7143
 7012TIP3   OH242670   0.724   2.466   1.087 -0.8323  0.3184 -0.0432
 7012TIP3    H142671   0.738   2.544   1.032 -1.5220  0.3592 -0.1712
 7012TIP3    H242672   0.790   2.473   1.155 -0.8901  1.0326 -0.0463
 7013TIP3   OH242673   1.655   4.929   0.064  0.2338  0.3503 -0.2028
 7013TIP3    H142674   1.710   4.857   0.097 -0.5426 -0.9297 -1.5533
 7013TIP3    H242675   1.702   4.962  -0.012 -0.1054  0.3017 -0.4349
 7014TIP3   OH242676   4.062   5.326   8.145  0.6428 -0.6340  0.1907
 7014TIP3    H142677   4.100   5.341   8.059  0.9102  2.0103  0.6848
 7014TIP3    H242678   4.066   5.231   8.157  0.5913 -1.0617 -2.6706
 7015TIP3   OH242679   6.826   4.424   7.446  0.3741 -0.1678  0.1682
 7015TIP3    H142680   6.733   4.416   7.466 -0.2927  1.4312 -1.8563
 7015TIP3    H242681   6.843   4.353   7.384  0.7277 -0.9423  1.1324
 7016TIP3   OH242682   2.399   2.774   6.925  0.2971  0.9604 -0.5154
 7016TIP3    H142683   2.359   2.854   6.891 -1.9769  1.1770  2.2687
 7016TIP3    H242684   2.359   2.762   7.011  1.4722 -2.5303 -0.2916
 7017TIP3   OH242685   3.137   4.428   1.797 -0.3643 -0.3519  0.1243
 7017TIP3    H142686   3.075   4.356   1.785 -0.1108 -0.5472 -0.0200
 7017TIP3    H242687   3.124   4.484   1.721 -1.1418  0.1969  0.6373
 7018TIP3   OH242688   1.003   0.459   1.252 -0.6122 -0.1726  0.1972
 7018TIP3    H142689   1.087   0.475   1.294 -0.1355 -0.0659 -0.7603
 7018TIP3    H242690   0.953   0.540   1.266 -0.5433 -0.2252  0.7428
 7019TIP3   OH242691   0.356   2.125   5.912  0.2442  0.2048 -0.2931
 7019TIP3    H142692   0.325   2.132   6.002 -1.5360  0.5093 -0.8852
 7019TIP3    H242693   0.402   2.208   5.897 -0.7649  0.8280 -0.1013
 7020TIP3   OH242694   2.425   3.703   0.652  0.5396 -0.2814 -0.3138
 7020TIP3    H142695   2.465   3.654   0.579 -0.4974  2.4395 -2.9089
 7020TIP3    H242696   2.335   3.671   0.656  0.0161  0.8774 -1.6620
 7021TIP3   OH242697   6.257   3.835   6.708 -0.2815 -0.3718  0.0417
 7021TIP3    H142698   6.332   3.777   6.694 -1.4020 -1.7136 -0.7027
 7021TIP3    H242699   6.288   3.922   6.682  0.7511 -1.0718 -1.1434
 7022TIP3   OH242700   2.723   5.982   0.968  0.1808 -0.0042  0.1162
 7022TIP3    H142701   2.776   5.994   0.889 -0.2003  1.9376  0.1203
 7022TIP3    H242702   2.757   5.902   1.007  1.8103  0.1464 -0.8928
 7023TIP3   OH242703   3.429   1.122   7.408  0.4434 -0.0494 -0.2893
 7023TIP3    H142704   3.438   1.186   7.337  1.0539 -0.7568 -0.8683
 7023TIP3    H242705   3.352   1.070   7.384 -0.6302  1.0340  0.6635
 7024TIP3   OH242706   1.458   5.238   1.589  0.0478 -0.0619 -0.5136
 7024TIP3    H142707   1.551   5.261   1.582  0.0434 -0.1263 -0.7843
 7024TIP3    H242708   1.440   5.242   1.683  0.0098  1.2111 -0.5478
 7025TIP3   OH242709   0.157   1.823   6.079  0.6677 -0.5255 -0.1012
 7025TIP3    H142710   0.238   1.866   6.105  1.5731 -0.9063 -2.0462
 7025TIP3    H242711   0.114   1.887   6.022 -0.5446 -0.2433  1.0821
 7026TIP3   OH242712   1.030   4.724   7.108  0.0332  0.0537  0.0220
 7026TIP3    H142713   1.047   4.786   7.180  0.6462 -0.4203  0.2858
 7026TIP3    H242714   0.946   4.754   7.072 -0.5652 -0.0231  1.2805
 7027TIP3   OH242715   6.170   3.304   6.124 -0.5068 -0.4727  0.4134
 7027TIP3    H142716   6.122   3.386   6.119  1.5788  0.7649 -0.9417
 7027TIP3    H242717   6.118   3.242   6.072 -1.0883  0.5444 -0.2428
 7028TIP3   OH242718   4.482   3.886   6.428  0.6976  0.5199 -0.2436
 7028TIP3    H142719   4.408   3.871   6.486  1.1598  2.0918  0.8110
 7028TIP3    H242720   4.443   3.922   6.348  0.1077 -1.1738 -0.7606
 7029TIP3   OH242721   2.092   1.629   6.793  0.1108 -0.6553  0.4183
 7029TIP3    H142722   2.145   1.683   6.852 -0.1283 -0.1775  0.2068
 7029TIP3    H242723   2.065   1.690   6.724 -2.3393 -0.3729  1.5265
 7030TIP3   OH242724   1.681   1.786   0.950  0.1040  0.5537 -0.2193
 7030TIP3    H142725   1.763   1.814   0.909 -0.1376  0.0564 -1.0782
 7030TIP3    H242726   1.657   1.706   0.902 -1.1790  1.0130 -0.3701
 7031TIP3   OH242727   5.725   6.211   7.853 -0.0686 -0.2661  0.0318
 7031TIP3    H142728   5.798   6.235   7.796 -0.3147 -0.0432 -0.1921
 7031TIP3    H242729   5.738   6.263   7.932  0.9105 -1.4086  0.6634
 7032TIP3   OH242730   4.084   2.876   7.248 -0.4330  0.0812  0.3070
 7032TIP3    H142731   3.988   2.886   7.248 -0.5045 -0.4957 -0.4213
 7032TIP3    H242732   4.115   2.941   7.186 -0.3958 -0.0773  0.1592
 7033TIP3   OH242733   1.097   4.216   1.424  0.2198 -0.1965 -0.2138
 7033TIP3    H142734   1.142   4.175   1.350 -1.8075 -1.8121 -0.6481
 7033TIP3    H242735   1.115   4.158   1.498 -0.8830 -0.7349 -0.3421
 7034TIP3   OH242736   0.774   3.716   0.872 -0.7364  0.1099  0.4127
 7034TIP3    H142737   0.764   3.729   0.778 -0.4702  0.3530  0.4161
 7034TIP3    H242738   0.792   3.803   0.907 -2.0740  0.2249  0.8578
 7035TIP3   OH242739   6.408   3.936   0.871  0.2148 -0.1331  0.1143
 7035TIP3    H142740   6.326   3.933   0.921 -1.0627  0.6704 -1.8277
 7035TIP3    H242741   6.396   3.873   0.800  2.0585 -1.3577  0.7765
 7036TIP3   OH242742   2.837   1.964   6.906  0.4657 -0.2704 -0.0541
 7036TIP3    H142743   2.880   1.878   6.906  1.8094  0.3682  0.1390
 7036TIP3    H242744   2.838   1.991   6.998 -0.1786 -0.1596 -0.0806
 7037TIP3   OH242745   0.520   5.725   8.158 -0.1191 -0.6806  0.1867
 7037TIP3    H142746   0.541   5.761   8.071  0.9423  0.5149  0.9036
 7037TIP3    H242747   0.603   5.690   8.190 -0.9551 -3.1451 -0.1445
 7038TIP3   OH242748   0.708   2.466   0.267 -0.6114  0.0172  0.2145
 7038TIP3    H142749   0.786   2.446   0.215 -0.9170  0.1526 -0.3042
 7038TIP3    H242750   0.699   2.561   0.263 -0.6822  0.0230  0.4576
 7039TIP3   OH242751   4.850   0.711   6.674 -0.5699  0.0088  0.0612
 7039TIP3    H142752   4.819   0.744   6.758 -2.5554 -1.3735 -0.0556
 7039TIP3    H242753   4.932   0.666   6.694 -0.1423  1.1244  0.9333
 7040TIP3   OH242754   2.400   0.625   7.216 -0.5566 -0.1543 -0.8961
 7040TIP3    H142755   2.397   0.706   7.268 -0.7727 -0.7768  0.0896
 7040TIP3    H242756   2.441   0.651   7.134  0.4817  0.7159 -0.1343
 7041TIP3   OH242757   4.659   0.835   0.170  0.6158 -0.0961 -0.1582
 7041TIP3    H142758   4.680   0.805   0.081 -1.9554 -2.1755 -0.2025
 7041TIP3    H242759   4.717   0.786   0.227  2.1256  1.0805 -0.6302
 7042TIP3   OH242760   3.285   2.919   7.578 -0.2302 -0.0168 -1.0549
 7042TIP3    H142761   3.231   2.863   7.523 -1.3663  0.1873 -0.1851
 7042TIP3    H242762   3.241   2.918   7.663  0.6659  0.8505 -0.5673
 7043TIP3   OH242763   6.983   5.872   7.857  0.3257 -0.0561 -0.3624
 7043TIP3    H142764   7.006   5.831   7.941 -1.1642  0.6566  0.4365
 7043TIP3    H242765   6.988   5.966   7.875 -1.8293  0.1282 -0.4859
 7044TIP3   OH242766   0.746   0.759   7.203  0.0205  0.6546 -0.0957
 7044TIP3    H142767   0.694   0.814   7.144  2.0108  0.1669 -2.4556
 7044TIP3    H242768   0.812   0.819   7.239  0.4507  0.4161 -0.4732
 7045TIP3   OH242769   3.909   3.174   1.761 -0.3925 -0.5666 -0.4460
 7045TIP3    H142770   3.878   3.096   1.715  0.6668 -0.8886 -0.6276
 7045TIP3    H242771   4.003   3.176   1.746 -0.1400 -0.2156  1.0073
 7046TIP3   OH242772   5.417   1.128   0.665  0.3248  0.1258 -0.6327
 7046TIP3    H142773   5.493   1.134   0.608  0.4032 -0.2366 -0.5719
 7046TIP3    H242774   5.385   1.038   0.653 -0.1178  0.2885 -0.6923
 7047TIP3   OH242775   3.052   1.727   7.235 -0.4795 -0.3694 -0.2545
 7047TIP3    H142776   3.145   1.746   7.252  0.1300 -0.8962 -2.6158
 7047TIP3    H242777   3.040   1.638   7.268 -0.2146 -0.2011  0.3012
 7048TIP3   OH242778   2.910   1.344   1.771  1.0200 -0.0278 -0.2697
 7048TIP3    H142779   2.820   1.338   1.804  0.8049  0.2064 -0.7994
 7048TIP3    H242780   2.964   1.349   1.850  0.4251  1.8549  0.0637
 7049TIP3   OH242781   4.035   5.582   7.912  1.1331  0.3921  0.0443
 7049TIP3    H142782   3.974   5.654   7.903 -0.7230 -1.0445  0.5863
 7049TIP3    H242783   4.065   5.586   8.003  1.2414  0.6318 -0.0023
 7050TIP3   OH242784   1.333   6.367   7.122 -0.4749  0.4811 -0.0202
 7050TIP3    H142785   1.363   6.447   7.165  1.0134  0.8705 -1.6648
 7050TIP3    H242786   1.403   6.303   7.141 -1.7073 -0.5265  1.3910
 7051TIP3   OH242787   1.593   3.074   7.464  0.0563  0.5049 -0.5051
 7051TIP3    H142788   1.668   3.036   7.509 -1.0303  0.5199  1.4192
 7051TIP3    H242789   1.631   3.125   7.392  1.8070 -0.1720 -0.0966
 7052TIP3   OH242790   6.862   5.867   2.402  0.1228  0.0530  0.0149
 7052TIP3    H142791   6.930   5.828   2.348 -0.5271 -0.9318 -0.1282
 7052TIP3    H242792   6.895   5.858   2.492  0.0268 -0.7658 -0.0235
 7053TIP3   OH242793   4.889   5.551   7.523  0.3234  0.3507 -0.4162
 7053TIP3    H142794   4.948   5.485   7.487  1.6528  1.1657  0.1758
 7053TIP3    H242795   4.887   5.533   7.617 -0.8613 -0.0260 -0.4993
 7054TIP3   OH242796   3.814   2.531   8.093  0.1241 -0.0730 -0.1176
 7054TIP3    H142797   3.745   2.539   8.027 -1.7709  1.0413  1.8518
 7054TIP3    H242798   3.863   2.452   8.068 -1.4008 -0.4805 -2.0224
 7055TIP3   OH242799   4.032   4.010   6.595  0.6023  0.2595 -0.3850
 7055TIP3    H142800   4.055   4.004   6.502 -0.1575  0.5135 -0.6004
 7055TIP3    H242801   4.106   3.972   6.641  1.1398  0.4417 -1.0828
 7056TIP3   OH242802   4.320   5.170   7.802  0.3144 -0.0128  0.2463
 7056TIP3    H142803   4.368   5.160   7.884  0.3534 -2.4857  0.0074
 7056TIP3    H242804   4.247   5.228   7.824  1.0535  0.4284  1.6837
 7057TIP3   OH242805   5.106   2.237   7.875 -0.7219  0.0274 -0.6469
 7057TIP3    H142806   5.188   2.286   7.883 -1.3634  0.9125  1.3562
 7057TIP3    H242807   5.038   2.302   7.892 -1.6923 -1.1729  0.2959
 7058TIP3   OH242808   6.248   0.125   0.152  0.0437 -0.1949 -0.7394
 7058TIP3    H142809   6.304   0.047   0.145  0.5557 -0.0336  1.0600
 7058TIP3    H242810   6.163   0.091   0.178 -0.3014 -0.3039 -1.9536
 7059TIP3   OH242811   0.962   0.386   0.333 -0.5612  0.0812  0.8304
 7059TIP3    H142812   1.056   0.371   0.321 -0.5924 -0.4533  1.2251
 7059TIP3    H242813   0.924   0.298   0.337 -1.2083  0.2915 -0.2797
 7060TIP3   OH242814   0.022   6.296   6.910  0.3989 -0.0060  1.1306
 7060TIP3    H142815   0.095   6.318   6.853 -1.7286 -2.9478 -3.3024
 7060TIP3    H242816  -0.043   6.364   6.895  0.2056 -0.2688  0.7557
 7061TIP3   OH242817   3.526   4.696   0.820  0.0358 -0.1638 -0.2974
 7061TIP3    H142818   3.602   4.639   0.826  0.2834  0.2857  1.5429
 7061TIP3    H242819   3.551   4.776   0.867 -1.0592  0.5854 -0.9299
 7062TIP3   OH242820   3.403   4.325   5.948  0.1131  0.6575 -0.1224
 7062TIP3    H142821   3.441   4.407   5.978 -1.7844  1.9506 -1.0233
 7062TIP3    H242822   3.325   4.314   6.004 -0.4168  0.2340 -0.9281
 7063TIP3   OH242823   2.059   4.942   0.970 -0.6577 -0.6330  0.0287
 7063TIP3    H142824   2.022   4.862   1.009  0.0495 -0.4776  1.0856
 7063TIP3    H242825   1.989   5.006   0.976 -0.5520 -0.5905  1.1843
 7064TIP3   OH242826   0.122   6.198   7.417  0.0448 -0.0229  0.1798
 7064TIP3    H142827   0.213   6.201   7.388 -0.9380  3.1642 -3.4213
 7064TIP3    H242828   0.079   6.136   7.358 -0.3803 -0.7183  1.1778
 7065TIP3   OH242829   0.262   0.296   6.843  0.3693  0.1477  0.3064
 7065TIP3    H142830   0.196   0.255   6.787 -0.4960 -1.9938  2.6917
 7065TIP3    H242831   0.234   0.388   6.849 -1.3645 -0.3123 -0.1682
 7066TIP3   OH242832   3.848   1.782   0.089  0.2292 -0.7198  0.4663
 7066TIP3    H142833   3.854   1.775   0.184 -0.4341 -0.0763  0.5690
 7066TIP3    H242834   3.769   1.835   0.074  0.4133 -0.6824 -0.4336
 7067TIP3   OH242835   3.782   3.947   6.204 -0.1246  0.4695  0.1988
 7067TIP3    H142836   3.758   4.039   6.190 -1.0055  0.0190 -1.6492
 7067TIP3    H242837   3.776   3.908   6.117  0.9722 -1.1886  0.8207
 7068TIP3   OH242838   0.068   1.020   0.090 -0.3286  0.1444  0.0853
 7068TIP3    H142839  -0.004   0.999   0.031 -0.0467  0.6564 -0.4560
 7068TIP3    H242840   0.057   0.960   0.163  1.3465 -3.0228 -2.0372
 7069TIP3   OH242841   7.082   4.981   6.503 -0.0577 -0.2997 -0.1000
 7069TIP3    H142842   6.987   4.973   6.494 -0.1572  1.1645 -0.6769
 7069TIP3    H242843   7.097   5.075   6.515  1.3360 -0.4704 -0.3316
 7070TIP3   OH242844   0.211   5.025   7.899 -0.5124  0.0896  0.0330
 7070TIP3    H142845   0.263   5.094   7.857  1.7667 -1.1894  0.5557
 7070TIP3    H242846   0.156   5.071   7.962  0.2631  1.5247 -0.2987
 7071TIP3   OH242847   5.744   0.150   1.749  0.0929 -0.4125 -0.1152
 7071TIP3    H142848   5.772   0.155   1.840  1.8500 -0.5258 -0.6045
 7071TIP3    H242849   5.660   0.196   1.746  2.5780  4.9475  0.5754
 7072TIP3   OH242850   4.643   5.850   0.630  0.0784  0.4789 -0.4789
 7072TIP3    H142851   4.688   5.899   0.561 -0.7493  0.3243 -1.1393
 7072TIP3    H242852   4.595   5.781   0.584  2.0915 -1.7119  0.5126
 7073TIP3   OH242853   1.828   4.632   7.378  0.4645 -0.2238 -0.5750
 7073TIP3    H142854   1.828   4.727   7.363 -0.7318 -0.6247 -4.3119
 7073TIP3    H242855   1.741   4.613   7.413  0.2378 -0.0389 -1.0288
 7074TIP3   OH242856   5.469   0.699   0.869 -0.0522  0.0598 -0.5078
 7074TIP3    H142857   5.536   0.733   0.928 -0.2689  1.4704 -1.0399
 7074TIP3    H242858   5.409   0.772   0.857  0.1977 -0.0531 -2.8019
 7075TIP3   OH242859   3.507   6.066   1.569  0.5689 -0.1617  0.5803
 7075TIP3    H142860   3.426   6.113   1.549 -0.7134 -1.5883  2.0966
 7075TIP3    H242861   3.490   5.977   1.537  2.3074 -0.0667 -0.7695
 7076TIP3   OH242862   6.984   0.661   7.179  0.4159 -0.4731 -0.0557
 7076TIP3    H142863   7.063   0.622   7.215  0.6463 -1.2562 -1.3225
 7076TIP3    H242864   6.920   0.589   7.179 -0.8526  0.5279  2.3972
 7077TIP3   OH242865   4.578   4.141   6.326 -0.3952 -0.5111  0.5593
 7077TIP3    H142866   4.501   4.102   6.285 -2.1865  0.3670  2.8630
 7077TIP3    H242867   4.572   4.115   6.418  1.6537  0.2447  0.9763
 7078TIP3   OH242868   3.117   1.075   7.648  0.2920  0.1636  0.5885
 7078TIP3    H142869   3.066   1.138   7.699  0.0721  0.7841 -0.3733
 7078TIP3    H242870   3.208   1.094   7.670  0.2631  1.3541 -0.2999
 7079TIP3   OH242871   3.554   5.237   6.289 -0.1764  0.3611 -0.3519
 7079TIP3    H142872   3.514   5.320   6.315 -0.1459  0.1311  0.4424
 7079TIP3    H242873   3.644   5.243   6.321 -0.1368  0.0739 -0.4081
 7080TIP3   OH242874   5.851   3.230   0.999  0.0608 -0.5898 -1.0133
 7080TIP3    H142875   5.791   3.298   1.031 -0.4133 -1.0593 -0.8961
 7080TIP3    H242876   5.810   3.148   1.025  0.4043 -0.9387 -1.5653
 7081TIP3   OH242877   3.376   1.597   7.256  0.5446  0.3330 -0.7659
 7081TIP3    H142878   3.414   1.558   7.178 -0.2363  0.7080 -1.3436
 7081TIP3    H242879   3.284   1.569   7.254 -0.1837  2.6018 -1.4761
 7082TIP3   OH242880   4.803   3.106   7.314  0.1780  0.8232 -0.1927
 7082TIP3    H142881   4.751   3.027   7.326  0.1760  0.6396 -1.3309
 7082TIP3    H242882   4.766   3.147   7.236  0.7725  1.4745 -0.1404
 7083TIP3   OH242883   3.850   6.668   0.133 -0.0630 -0.1299 -0.4687
 7083TIP3    H142884   3.792   6.594   0.154 -0.1293 -0.4180 -1.5711
 7083TIP3    H242885   3.864   6.660   0.038  0.4806  0.8825 -0.4807
 7084TIP3   OH242886   6.656   3.821   7.492  0.0073 -0.0583  0.4608
 7084TIP3    H142887   6.614   3.901   7.462  0.4999  0.3466  0.8283
 7084TIP3    H242888   6.722   3.801   7.426 -1.4280 -1.2818 -0.6701
 7085TIP3   OH242889   2.922   6.378   1.089 -0.1433 -0.1446 -0.6058
 7085TIP3    H142890   2.894   6.306   1.146  0.3826 -0.1409 -0.3376
 7085TIP3    H242891   2.842   6.403   1.042 -0.6793  0.1263  0.4155
 7086TIP3   OH242892   7.012   1.011   7.842 -0.3228 -0.0968  0.0126
 7086TIP3    H142893   7.018   1.044   7.752 -1.4961 -0.7125 -0.3122
 7086TIP3    H242894   6.990   0.918   7.831 -3.2050  0.3950  0.9118
 7087TIP3   OH242895   5.420   4.041   6.642  0.2183 -0.7858 -0.2780
 7087TIP3    H142896   5.345   4.095   6.617 -0.6585 -2.1608 -0.7793
 7087TIP3    H242897   5.456   4.084   6.720 -1.0052 -0.0174 -0.1063
 7088TIP3   OH242898   5.307   0.614   0.587 -0.1421  0.0985  0.7320
 7088TIP3    H142899   5.381   0.670   0.610  1.0229 -0.7977 -0.6231
 7088TIP3    H242900   5.342   0.553   0.522 -2.2073 -0.0224 -0.3754
 7089TIP3   OH242901   0.035   5.185   1.470  0.1522  0.7010 -0.5423
 7089TIP3    H142902  -0.032   5.224   1.414  0.4120  1.0116 -0.6359
 7089TIP3    H242903   0.034   5.238   1.549  0.1806  0.6079 -0.4791
 7090TIP3   OH242904   3.209   5.856   7.844 -0.0213 -0.2076  0.3599
 7090TIP3    H142905   3.234   5.855   7.937  0.4053 -0.4392  0.2439
 7090TIP3    H242906   3.253   5.933   7.808 -1.2400  0.6463  0.6291
 7091TIP3   OH242907   3.469   2.342   0.607  0.0863  0.6163  0.0771
 7091TIP3    H142908   3.486   2.263   0.658 -0.8779  0.9706  0.9894
 7091TIP3    H242909   3.540   2.401   0.629  1.6279 -0.4499 -1.7003
 7092TIP3   OH242910   6.166   0.311   0.461  0.1449  0.1381  0.1851
 7092TIP3    H142911   6.108   0.262   0.518 -0.2574  0.3010 -0.0779
 7092TIP3    H242912   6.202   0.246   0.401 -1.7850  0.3654 -1.3570
 7093TIP3   OH242913   0.596   3.160   6.543  0.3689 -0.3479 -0.8005
 7093TIP3    H142914   0.675   3.210   6.521  0.0581  1.0887  1.1302
 7093TIP3    H242915   0.629   3.083   6.590  0.6900 -0.5716 -1.3776
 7094TIP3   OH242916   6.331   4.120   5.926 -0.0696 -0.0471 -0.2346
 7094TIP3    H142917   6.299   4.168   5.850 -1.9856  1.1646  1.2583
 7094TIP3    H242918   6.409   4.168   5.954 -2.1318  2.6362  1.4363
 7095TIP3   OH242919   4.973   5.028   7.341 -0.4026  0.2842 -0.5800
 7095TIP3    H142920   4.898   4.969   7.349 -0.7666  0.8391  0.1726
 7095TIP3    H242921   5.043   4.972   7.306 -1.6721  0.2058 -3.2416
 7096TIP3   OH242922   1.153   0.243   7.261  0.0969 -0.6054 -0.2870
 7096TIP3    H142923   1.207   0.298   7.317 -0.0870  0.0459 -0.7372
 7096TIP3    H242924   1.131   0.299   7.186  0.7328 -1.5792 -1.2480
 7097TIP3   OH242925   4.124   5.017   7.040  0.1706 -0.4281 -0.2441
 7097TIP3    H142926   4.144   4.932   7.079 -0.0917 -1.5259 -2.3255
 7097TIP3    H242927   4.033   5.034   7.064  0.0384 -1.0339 -0.3068
 7098TIP3   OH242928   4.313   3.514   6.632 -0.3613 -0.2088 -0.0145
 7098TIP3    H142929   4.262   3.589   6.602 -0.6782 -0.6709 -0.6474
 7098TIP3    H242930   4.371   3.551   6.699  1.2873  1.1361 -2.0613
 7099TIP3   OH242931   0.215   5.892   7.626  0.0460 -0.3321 -0.4813
 7099TIP3    H142932   0.272   5.896   7.549 -0.3414 -1.2722 -0.8350
 7099TIP3    H242933   0.170   5.807   7.618 -1.2814  0.3081 -0.1452
 7100TIP3   OH242934   1.172   0.376   6.703 -0.3519 -0.5066 -0.2018
 7100TIP3    H142935   1.109   0.389   6.633  1.4429  3.5432 -1.3275
 7100TIP3    H242936   1.255   0.358   6.657  0.6819  1.3976  0.7913
 7101TIP3   OH242937   6.109   0.597   0.374  0.5467 -0.2325  0.4836
 7101TIP3    H142938   6.014   0.594   0.382  0.6782 -0.1332  3.2647
 7101TIP3    H242939   6.138   0.507   0.392  1.0141  0.0866  1.4046
 7102TIP3   OH242940   4.932   3.629   7.299  0.0026  0.1726  0.6049
 7102TIP3    H142941   4.940   3.652   7.206 -1.9238  0.1497  0.4087
 7102TIP3    H242942   4.912   3.712   7.342  0.6157  0.1316  0.9800
 7103TIP3   OH242943   0.417   1.515   1.189  0.0740 -0.5044  0.2130
 7103TIP3    H142944   0.351   1.486   1.252 -0.0052  0.4816  0.5895
 7103TIP3    H242945   0.387   1.479   1.105 -0.4491 -0.8208  0.5306
 7104TIP3   OH242946   4.158   3.604   7.603  0.4883  0.1143  0.1965
 7104TIP3    H142947   4.178   3.641   7.689  1.0079  0.3883 -0.0364
 7104TIP3    H242948   4.179   3.674   7.541  0.9866 -0.3910 -0.2156
 7105TIP3   OH242949   7.045   0.279   7.398 -0.0040  0.1718  0.2570
 7105TIP3    H142950   7.014   0.288   7.488 -0.4908  0.8165  0.0330
 7105TIP3    H242951   7.073   0.188   7.391 -1.7239 -0.4149  0.5249
 7106TIP3   OH242952   4.105   5.551   0.570  0.3003  0.0665  0.0890
 7106TIP3    H142953   4.054   5.578   0.647  0.0750  1.0657 -0.3980
 7106TIP3    H242954   4.044   5.560   0.497  0.7678 -0.0679 -0.3186
 7107TIP3   OH242955   6.216   1.411   7.134  0.4243 -0.4899 -0.0059
 7107TIP3    H142956   6.306   1.379   7.144  0.8827  0.5816 -0.4780
 7107TIP3    H242957   6.211   1.440   7.043 -0.4242 -0.6048 -0.0020
 7108TIP3   OH242958   2.946   0.637   0.704  0.6297 -0.3154  0.3446
 7108TIP3    H142959   2.865   0.595   0.734 -0.5475  0.9069 -0.9486
 7108TIP3    H242960   2.958   0.605   0.615 -0.0401  1.6427 -0.5007
 7109TIP3   OH242961   6.296   3.474   1.055  0.7344  0.6515 -0.1458
 7109TIP3    H142962   6.241   3.541   1.016 -0.8224 -0.6899 -0.3634
 7109TIP3    H242963   6.244   3.439   1.128  0.3740 -1.9489 -1.5075
 7110TIP3   OH242964   3.978   0.129   0.275  0.1844  0.3584  0.1888
 7110TIP3    H142965   3.957   0.140   0.368  1.2053 -0.1007  0.4884
 7110TIP3    H242966   3.893   0.110   0.234 -0.4568  1.7081  0.8250
 7111TIP3   OH242967   1.139   3.938   6.506 -0.6335  0.1697 -0.6737
 7111TIP3    H142968   1.232   3.920   6.495 -0.7810 -1.4174  0.2566
 7111TIP3    H242969   1.136   4.020   6.555  0.3668 -0.6719  0.8987
 7112TIP3   OH242970   0.348   5.959   7.024  0.6481  0.5099 -0.6333
 7112TIP3    H142971   0.260   5.973   7.059  0.7608  0.1825 -0.2119
 7112TIP3    H242972   0.377   6.046   6.996 -0.1425  0.4874 -1.5793
 7113TIP3   OH242973   2.173   2.859   1.056  0.0668  0.3087 -0.6535
 7113TIP3    H142974   2.259   2.817   1.064 -0.3450 -0.2456  1.8005
 7113TIP3    H242975   2.110   2.787   1.066 -0.6752  0.9162 -0.8233
 7114TIP3   OH242976   0.585   1.174   7.655  0.0804 -0.0616 -0.9609
 7114TIP3    H142977   0.660   1.133   7.611 -0.3500 -0.9229 -0.9237
 7114TIP3    H242978   0.575   1.259   7.613  0.9112 -0.0537 -1.1497
 7115TIP3   OH242979   5.622   0.486   0.840  0.1857  0.6272  0.1990
 7115TIP3    H142980   5.700   0.540   0.850  0.5632  0.6541 -2.2102
 7115TIP3    H242981   5.551   0.549   0.827  0.0869  0.5784  0.4981
 7116TIP3   OH242982   0.548   4.857   1.470  0.2065 -0.3050 -0.4046
 7116TIP3    H142983   0.509   4.940   1.444 -0.4679 -0.1227  1.1112
 7116TIP3    H242984   0.555   4.862   1.565 -0.7922 -2.3864 -0.1714
 7117TIP3   OH242985   3.745   4.551   0.847 -0.1853 -0.0122  0.4701
 7117TIP3    H142986   3.818   4.499   0.812 -1.8609 -1.7909 -0.5394
 7117TIP3    H242987   3.786   4.604   0.916  2.2308 -0.2380 -0.6579
 7118TIP3   OH242988   0.296   5.981   0.923 -0.4164 -0.6098 -0.2582
 7118TIP3    H142989   0.380   5.968   0.879 -0.0287 -1.6047  0.7254
 7118TIP3    H242990   0.283   5.901   0.974 -0.6522  0.6257  1.7187
 7119TIP3   OH242991   2.061   2.597   1.330  0.1130 -0.4281  0.2259
 7119TIP3    H142992   2.138   2.579   1.276 -0.0032 -1.4079  0.3538
 7119TIP3    H242993   1.990   2.610   1.268  0.0516 -1.2083  0.1126
 7120TIP3   OH242994   4.839   5.190   7.526 -0.0194  0.1080  0.3790
 7120TIP3    H142995   4.907   5.138   7.483 -0.6046  0.1399 -0.6134
 7120TIP3    H242996   4.848   5.168   7.619  1.6711  0.4937  0.3465
 7121TIP3   OH242997   5.655   7.081   6.749  0.5320  0.2426 -0.3745
 7121TIP3    H142998   5.639   7.106   6.658  0.7557 -1.0991 -0.7966
 7121TIP3    H242999   5.662   6.986   6.748 -2.7706 -0.1768  1.5507
 7122TIP3   OH243000   1.537   4.303   0.872 -0.0121  0.2993  0.2440
 7122TIP3    H143001   1.482   4.267   0.803  1.6911 -1.2156 -0.4071
 7122TIP3    H243002   1.612   4.244   0.876  0.0064  0.3297  3.3613
 7123TIP3   OH243003   2.602   6.971   0.289 -0.4880 -0.0947 -0.4991
 7123TIP3    H143004   2.534   6.965   0.356 -0.9824 -0.4614 -1.0261
 7123TIP3    H243005   2.581   7.051   0.241  0.1253  0.4096  0.0534
 7124TIP3   OH243006   4.724   4.933   2.036 -0.1349  0.2246  0.7178
 7124TIP3    H143007   4.635   4.967   2.026  0.0751  0.5520 -0.0335
 7124TIP3    H243008   4.763   4.989   2.104  0.2206  1.5346 -0.5271
 7125TIP3   OH243009   2.860   6.661   8.212 -0.4064 -0.0181  0.3541
 7125TIP3    H143010   2.951   6.643   8.186 -0.3795  1.4451 -0.6793
 7125TIP3    H243011   2.807   6.627   8.140 -0.6487 -0.4370  0.7299
 7126TIP3   OH243012   5.354   6.541   1.603 -0.5001  0.0027 -0.6327
 7126TIP3    H143013   5.326   6.453   1.628 -0.9287  0.6421  1.3438
 7126TIP3    H243014   5.328   6.596   1.676  2.4269  1.3069 -0.4052
 7127TIP3   OH243015   1.094   3.339   7.153 -0.3406  0.3274 -0.5999
 7127TIP3    H143016   1.083   3.427   7.117 -1.1113  0.2050 -0.6729
 7127TIP3    H243017   1.156   3.350   7.225  0.7262  0.6820 -1.5441
 7128TIP3   OH243018   4.391   5.663   0.591 -0.2466  0.7116  0.0064
 7128TIP3    H143019   4.307   5.617   0.583  0.8341 -1.1661 -1.1754
 7128TIP3    H243020   4.410   5.695   0.503  0.9771 -0.2071 -0.0844
 7129TIP3   OH243021   0.777   3.097   6.890 -0.5026 -0.5612  0.1917
 7129TIP3    H143022   0.809   3.186   6.872 -2.1820  0.1757  0.6546
 7129TIP3    H243023   0.716   3.108   6.962 -1.0936 -2.0389 -0.0547
 7130TIP3   OH243024   2.497   5.025   0.496  0.5417  0.2809  0.2672
 7130TIP3    H143025   2.566   4.970   0.457 -0.2749  0.0177 -0.8522
 7130TIP3    H243026   2.519   5.114   0.468  0.4829  0.2082 -0.0176
 7131TIP3   OH243027   1.494   2.074   0.204 -0.2554  0.3309 -0.2101
 7131TIP3    H143028   1.410   2.037   0.177 -0.6322  0.7885  0.3093
 7131TIP3    H243029   1.510   2.144   0.141 -0.8323  0.9893  0.3474
 7132TIP3   OH243030   4.100   5.282   0.262 -0.2090 -0.3872  0.2612
 7132TIP3    H143031   4.005   5.277   0.253 -0.2191 -2.4577  1.0075
 7132TIP3    H243032   4.121   5.374   0.247 -2.4087  0.2561  0.7898
 7133TIP3   OH243033   1.265   1.038   0.134 -0.1796  0.5978 -0.5625
 7133TIP3    H143034   1.255   1.030   0.229 -0.7331 -1.0830 -0.7286
 7133TIP3    H243035   1.183   1.079   0.105 -0.3875  0.2980 -0.4061
 7134TIP3   OH243036   0.335   1.244   8.001  0.3880  0.4991  0.2288
 7134TIP3    H143037   0.321   1.314   7.938 -2.9729  0.1907  0.4112
 7134TIP3    H243038   0.276   1.265   8.074 -0.2943 -2.1460  0.5524
 7135TIP3   OH243039   2.347   3.284   1.896 -0.0089 -0.1799  0.8677
 7135TIP3    H143040   2.383   3.259   1.811  2.0517 -1.9124  2.1411
 7135TIP3    H243041   2.263   3.325   1.875  1.0943  0.8820 -2.0759
 7136TIP3   OH243042   0.817   6.716   5.766  0.0517 -0.0687 -0.0394
 7136TIP3    H143043   0.909   6.719   5.792  0.4800 -0.1806 -1.4473
 7136TIP3    H243044   0.792   6.624   5.778 -0.1192  0.1196  1.1006
 7137TIP3   OH243045   0.059   1.207   6.328 -0.3407 -0.3839 -0.3856
 7137TIP3    H143046   0.026   1.289   6.365 -0.9962 -0.0167 -1.7321
 7137TIP3    H243047   0.026   1.206   6.239  1.9754 -0.7830 -1.2988
 7138TIP3   OH243048   2.809   0.204   0.155  0.1715 -0.3191  0.3231
 7138TIP3    H143049   2.840   0.138   0.093  0.1796 -2.6271  2.6066
 7138TIP3    H243050   2.826   0.166   0.241 -0.7726  2.2743  1.7751
 7139TIP3   OH243051   6.902   0.423   0.432  0.5455 -0.7357  0.9177
 7139TIP3    H143052   6.834   0.367   0.395  0.5454 -0.2054  0.0913
 7139TIP3    H243053   6.853   0.491   0.479  0.4970 -0.3606  0.3324
 7140TIP3   OH243054   5.989   0.601   1.141 -0.3190  0.0498  0.1157
 7140TIP3    H143055   6.053   0.537   1.174  0.1934  0.8207  0.6439
 7140TIP3    H243056   5.986   0.669   1.208  0.7688  1.6963 -1.4016
 7141TIP3   OH243057   5.941   2.870   0.896  0.6375 -0.2040  0.6270
 7141TIP3    H143058   5.868   2.890   0.838  0.4029 -1.1531  0.5752
 7141TIP3    H243059   5.921   2.782   0.930  1.1957 -0.0162  1.4787
 7142TIP3   OH243060   3.163   6.121   6.955  0.1273 -0.1556  0.4381
 7142TIP3    H143061   3.251   6.086   6.972  0.7280  0.8976 -0.4017
 7142TIP3    H243062   3.155   6.119   6.859 -0.2738  0.8915  0.4372
 7143TIP3   OH243063   5.048   1.250   6.997  0.2904  0.0936  1.0169
 7143TIP3    H143064   5.127   1.302   7.000  0.0312  0.4869  1.0966
 7143TIP3    H243065   4.998   1.276   7.074 -1.3239  2.1554 -0.5661
 7144TIP3   OH243066   5.584   1.964   1.836 -0.0670 -0.3927  0.4720
 7144TIP3    H143067   5.658   2.001   1.883  0.8122 -0.0362 -1.1052
 7144TIP3    H243068   5.623   1.926   1.757 -1.4722 -0.9090 -0.0027
 7145TIP3   OH243069   5.063   5.354   0.153 -0.5251 -1.0446 -0.1354
 7145TIP3    H143070   5.071   5.275   0.099 -0.0331 -2.3807  1.7832
 7145TIP3    H243071   4.999   5.331   0.221 -0.7307  0.3841  0.1834
 7146TIP3   OH243072   4.123   5.373   7.207  0.2280  0.0802 -0.3205
 7146TIP3    H143073   4.058   5.314   7.169  0.1243  0.5233 -0.8425
 7146TIP3    H243074   4.126   5.349   7.300 -0.0900 -0.4839 -0.4514
 7147TIP3   OH243075   3.437   2.967   1.130  0.4373  0.3152  0.6578
 7147TIP3    H143076   3.397   3.038   1.179 -0.3735 -0.9317  1.9066
 7147TIP3    H243077   3.391   2.966   1.046  0.8655  1.6063  0.3987
 7148TIP3   OH243078   1.696   0.890   0.692 -0.2553 -0.0337 -0.3973
 7148TIP3    H143079   1.756   0.899   0.619 -0.9523  1.1113 -0.8605
 7148TIP3    H243080   1.745   0.922   0.768  0.2401 -0.5950 -0.4759
 7149TIP3   OH243081   5.165   4.020   5.901 -0.6634  0.1617 -0.5189
 7149TIP3    H143082   5.139   4.014   5.809 -3.2279  1.2052  0.0510
 7149TIP3    H243083   5.097   4.075   5.942 -0.9219 -2.1112  2.4643
 7150TIP3   OH243084   4.683   1.473   7.285 -0.0095 -0.9641  0.7128
 7150TIP3    H143085   4.768   1.440   7.256 -0.5487 -1.4451 -0.3556
 7150TIP3    H243086   4.705   1.544   7.346  1.1615 -0.4051 -0.3072
 7151TIP3   OH243087   0.875   2.397   1.522 -0.3707  0.0296 -0.1714
 7151TIP3    H143088   0.893   2.363   1.609  0.6030 -0.2679 -0.4785
 7151TIP3    H243089   0.780   2.390   1.513 -0.2972 -1.7738  0.1140
 7152TIP3   OH243090   6.022   0.664   6.828  0.3873  0.8437 -0.0466
 7152TIP3    H143091   5.982   0.603   6.767  1.4594  1.2959 -1.2472
 7152TIP3    H243092   6.061   0.609   6.896 -0.0632  0.2894 -0.2327
 7153TIP3   OH243093   5.302   4.137   1.525  0.0913  0.0113  0.4256
 7153TIP3    H143094   5.350   4.055   1.511 -0.2397 -0.1058 -0.0713
 7153TIP3    H243095   5.260   4.154   1.441  1.0272  1.2657  0.1796
 7154TIP3   OH243096   1.539   0.213   0.502 -0.7422 -0.1107 -0.1393
 7154TIP3    H143097   1.608   0.249   0.557 -1.2941  1.2291 -0.2962
 7154TIP3    H243098   1.459   0.224   0.553 -0.9226 -1.3064 -0.1201
 7155TIP3   OH243099   0.251   2.832   0.933 -0.1300  0.0306 -0.0082
 7155TIP3    H143100   0.340   2.830   0.896 -0.9578 -0.8101 -2.1309
 7155TIP3    H243101   0.237   2.743   0.965  0.1575  0.4573  1.3859
 7156TIP3   OH243102   2.613   1.004   2.129 -0.6462  0.3639  0.3087
 7156TIP3    H143103   2.671   0.958   2.069  0.2555  0.0236  1.4064
 7156TIP3    H243104   2.551   0.937   2.159 -1.6014  0.7091 -0.8022
 7157TIP3   OH243105   2.475   4.580   6.293 -0.8673 -0.0705 -0.3409
 7157TIP3    H143106   2.431   4.619   6.368  2.4131  1.8235  0.7960
 7157TIP3    H243107   2.458   4.641   6.221 -4.1837 -1.9892 -1.4069
 7158TIP3   OH243108   3.333   2.939   0.150  0.2653  0.8550 -0.0822
 7158TIP3    H143109   3.425   2.958   0.131  0.4263  0.7148  0.5357
 7158TIP3    H243110   3.330   2.843   0.158  0.4002  0.9624  1.5350
 7159TIP3   OH243111   6.294   2.299   1.838 -0.3023  0.2008  0.5284
 7159TIP3    H143112   6.386   2.272   1.839 -0.3479 -0.0000 -0.1665
 7159TIP3    H243113   6.262   2.280   1.926  0.6387  1.3955  1.1447
 7160TIP3   OH243114   5.729   1.463   6.148 -0.5099 -0.1050  0.0085
 7160TIP3    H143115   5.796   1.422   6.203 -1.3767  0.4614  1.5719
 7160TIP3    H243116   5.778   1.508   6.080  0.6904  0.1047  0.9728
 7161TIP3   OH243117   2.552   3.055   7.493  0.0365  0.2577 -0.2251
 7161TIP3    H143118   2.477   3.084   7.441 -0.0100  0.2538 -0.1618
 7161TIP3    H243119   2.512   3.009   7.567  0.1095  0.0473 -0.3173
 7162TIP3   OH243120   3.883   4.865   7.998 -0.5880  0.0439 -0.3482
 7162TIP3    H143121   3.868   4.849   7.904 -1.9317  1.9143 -0.5080
 7162TIP3    H243122   3.848   4.787   8.041  0.5129 -1.0674 -1.4160
 7163TIP3   OH243123   5.095   1.124   7.514  0.0296  0.3842  0.7650
 7163TIP3    H143124   5.082   1.174   7.434 -2.2833  1.0219  1.4703
 7163TIP3    H243125   5.127   1.189   7.578  0.2370  0.2384  0.8115
 7164TIP3   OH243126   1.767   6.462   8.069  0.5353 -0.0834 -0.5988
 7164TIP3    H143127   1.717   6.508   8.003  1.7492  0.6151 -1.0666
 7164TIP3    H243128   1.737   6.497   8.152 -3.1241 -2.9831 -0.4186
 7165TIP3   OH243129   3.904   4.484   6.804 -0.2491 -0.1987 -0.4480
 7165TIP3    H143130   3.910   4.533   6.722 -0.4925 -0.2285 -0.4848
 7165TIP3    H243131   3.929   4.547   6.872  2.7331 -0.8920 -0.7457
 7166TIP3   OH243132   0.383   0.397   0.578  0.1171  0.0790  0.6066
 7166TIP3    H143133   0.304   0.346   0.563  0.4680  0.4572 -4.0787
 7166TIP3    H243134   0.368   0.480   0.531  3.1994  0.1222 -0.5686
 7167TIP3   OH243135   6.712   3.950   6.246 -0.2544 -0.6208 -0.1059
 7167TIP3    H143136   6.734   4.011   6.176 -1.6749  2.0305  1.6035
 7167TIP3    H243137   6.718   3.864   6.206  2.8724  0.4906 -2.3986
 7168TIP3   OH243138   4.648   3.064   1.322  0.1152  0.0835 -0.6122
 7168TIP3    H143139   4.741   3.042   1.324 -0.2367 -1.4682  0.0694
 7168TIP3    H243140   4.630   3.099   1.410 -0.5881 -2.6846  0.4417
 7169TIP3   OH243141   2.424   5.656   0.059 -0.4151  0.1352  0.8384
 7169TIP3    H143142   2.360   5.618  -0.001 -0.9890 -0.2498  1.6755
 7169TIP3    H243143   2.486   5.702   0.002 -0.6921 -0.5955 -0.0744
 7170TIP3   OH243144   3.680   5.685   0.803 -0.3314 -0.3615 -0.2556
 7170TIP3    H143145   3.723   5.606   0.771  1.3817  0.2940  0.3172
 7170TIP3    H243146   3.735   5.714   0.875 -1.9322  0.3743  0.7149
 7171TIP3   OH243147   0.098   2.149   6.473  0.3781  0.4004  0.0276
 7171TIP3    H143148   0.029   2.186   6.528  0.3364  1.2098 -0.5420
 7171TIP3    H243149   0.130   2.223   6.422  0.2419 -0.3619 -1.2157
 7172TIP3   OH243150   0.693   1.113   1.284  0.6199  0.2517  0.2377
 7172TIP3    H143151   0.739   1.167   1.221  2.9549 -1.2765  0.5189
 7172TIP3    H243152   0.614   1.083   1.238  0.6300  1.7274 -0.7847
 7173TIP3   OH243153   0.202   0.850   6.946 -0.3135  0.1622 -0.4451
 7173TIP3    H143154   0.111   0.846   6.975 -0.4915 -2.6925 -1.1600
 7173TIP3    H243155   0.253   0.835   7.026 -0.5957 -1.1934 -0.5009
 7174TIP3   OH243156   4.931   2.449   1.525 -0.1182 -0.4184 -0.4231
 7174TIP3    H143157   4.990   2.498   1.582 -0.1673 -0.3077 -0.4675
 7174TIP3    H243158   4.944   2.357   1.550  1.1954 -0.5436 -1.4848
 7175TIP3   OH243159   6.369   6.299   6.818 -0.0813  0.0936  0.1224
 7175TIP3    H143160   6.461   6.282   6.799 -0.5737 -0.6174 -1.8468
 7175TIP3    H243161   6.370   6.356   6.895  1.9227 -1.7063  1.5438
 7176TIP3   OH243162   5.949   3.842   0.744 -0.5579 -0.1288  0.2841
 7176TIP3    H143163   5.981   3.895   0.671 -0.8201  1.4170  1.2508
 7176TIP3    H243164   5.859   3.820   0.719 -0.7239  0.5833  0.2305
 7177TIP3   OH243165   0.366   0.897   8.172  0.3750 -0.6420  0.1715
 7177TIP3    H143166   0.458   0.897   8.145  0.8170  0.0651  1.6037
 7177TIP3    H243167   0.317   0.888   8.090  1.6211  2.0316 -0.9876
 7178TIP3   OH243168   3.417   4.696   6.866 -0.1632  0.1036 -0.7691
 7178TIP3    H143169   3.333   4.665   6.834 -0.4477  1.0369 -0.9629
 7178TIP3    H243170   3.420   4.788   6.841  0.7744  0.1680 -0.4754
 7179TIP3   OH243171   6.341   2.458   1.250 -0.0912  0.1874  0.7329
 7179TIP3    H143172   6.293   2.520   1.305 -1.5844 -0.3096  0.0679
 7179TIP3    H243173   6.285   2.380   1.249 -0.0076  0.1045 -1.2838
 7180TIP3   OH243174   3.896   5.797   7.869  0.5391 -0.2952 -0.5314
 7180TIP3    H143175   3.945   5.820   7.789  2.3999 -0.1296  0.5909
 7180TIP3    H243176   3.912   5.870   7.928  1.7418 -1.7439  1.0469
 7181TIP3   OH243177   4.125   2.697   0.079  0.4648  0.3473  0.4766
 7181TIP3    H143178   4.142   2.611   0.117  1.2391 -0.2639 -1.1489
 7181TIP3    H243179   4.190   2.706   0.010  0.5160  2.3417  0.7226
 7182TIP3   OH243180   1.466   2.140   0.970  0.2044  0.0502  0.3012
 7182TIP3    H143181   1.524   2.195   1.022  0.7949 -0.5387  0.2778
 7182TIP3    H243182   1.449   2.191   0.891 -0.4708  0.8256  0.9303
 7183TIP3   OH243183   6.746   4.866   8.243 -0.0433  0.0270 -0.3120
 7183TIP3    H143184   6.777   4.850   8.332  0.5583  1.8430 -0.1533
 7183TIP3    H243185   6.795   4.803   8.189  1.6815  0.7566  0.3221
 7184TIP3   OH243186   2.221   5.592   1.811  0.0354 -0.2493 -0.2630
 7184TIP3    H143187   2.154   5.635   1.759  0.7157 -0.2964 -1.1956
 7184TIP3    H243188   2.271   5.540   1.748  0.6163 -0.6335  0.4971
 7185TIP3   OH243189   5.435   5.057   0.948  0.2493 -0.4694 -0.0361
 7185TIP3    H143190   5.436   5.131   0.886 -0.2272  0.8531  1.4738
 7185TIP3    H243191   5.344   5.051   0.976 -0.3440 -3.4696 -2.1558
 7186TIP3   OH243192   0.894   6.118   5.904  0.1353 -0.2504  0.3000
 7186TIP3    H143193   0.817   6.171   5.883 -0.5579 -0.7945  1.3802
 7186TIP3    H243194   0.921   6.081   5.820 -2.9776 -2.9656  0.2777
 7187TIP3   OH243195   2.536   4.422   7.013 -0.5920  0.7170  0.4643
 7187TIP3    H143196   2.557   4.504   6.969 -1.9997 -0.0872 -1.8539
 7187TIP3    H243197   2.620   4.376   7.021 -0.3684  0.5379 -2.2292
 7188TIP3   OH243198   4.882   6.128   0.937  0.3661  0.0280 -0.0080
 7188TIP3    H143199   4.797   6.084   0.946  0.3083  0.5344  2.8006
 7188TIP3    H243200   4.870   6.212   0.982  1.5628  1.4092 -2.0955
 7189TIP3   OH243201   1.702   6.955   6.660 -0.5236 -0.0459  0.5327
 7189TIP3    H143202   1.745   6.912   6.586  0.0806  1.3706  0.0274
 7189TIP3    H243203   1.615   6.916   6.663 -0.3826 -0.4917 -0.6205
 7190TIP3   OH243204   1.886   2.563   0.155 -0.0125  0.8880 -0.3581
 7190TIP3    H143205   1.831   2.542   0.231  0.4018  3.0151  0.6331
 7190TIP3    H243206   1.826   2.600   0.091 -0.1200  0.7333 -0.3458
   7.08235   7.08235   8.28387
