;;
;; Generated by CHARMM-GUI (http://www.charmm-gui.org) v1.7
;;
;; psf2itp_mol.py
;;
;; Correspondance:
;; jul316@lehigh.edu or wonpil@lehigh.edu
;;
;; GROMACS topology file for LIG
;;


[ moleculetype ]
; name	nrexcl
LIG	     3

[ atoms ]
; nr	type	resnr	residu	atom	cgnr	charge	mass
     1     OG3C51      1      LIG     O1      1     -0.134    15.9994   ; qtot -0.134
     2      OG301      1      LIG     O2      2     -0.376    15.9994   ; qtot -0.510
     3      OG311      1      LIG     O3      3     -0.570    15.9994   ; qtot -1.080
     4     OG3C61      1      LIG     O4      4     -0.354    15.9994   ; qtot -1.434
     5      OG311      1      LIG     O5      5     -0.646    15.9994   ; qtot -2.080
     6      OG311      1      LIG     O6      6     -0.641    15.9994   ; qtot -2.721
     7      OG311      1      LIG     O7      7     -0.646    15.9994   ; qtot -3.367
     8      OG311      1      LIG     O8      8     -0.525    15.9994   ; qtot -3.892
     9      OG2D1      1      LIG     O9      9     -0.559    15.9994   ; qtot -4.451
    10      NG301      1      LIG      N     10     -0.607    14.0070   ; qtot -5.058
    11     CG3RC1      1      LIG     C1     11      0.081    12.0110   ; qtot -4.977
    12      CG311      1      LIG     C2     12      0.020    12.0110   ; qtot -4.957
    13     CG3RC1      1      LIG     C3     13      0.019    12.0110   ; qtot -4.938
    14      CG311      1      LIG     C4     14      0.140    12.0110   ; qtot -4.798
    15      CG321      1      LIG     C5     15     -0.200    12.0110   ; qtot -4.998
    16     CG2RC0      1      LIG     C6     16     -0.056    12.0110   ; qtot -5.054
    17      CG321      1      LIG     C7     17     -0.233    12.0110   ; qtot -5.287
    18      CG321      1      LIG     C8     18      0.080    12.0110   ; qtot -5.207
    19      CG311      1      LIG     C9     19      0.248    12.0110   ; qtot -4.959
    20     CG2R61      1      LIG    C10     20     -0.053    12.0110   ; qtot -5.012
    21      CG2D1      1      LIG    C11     21     -0.285    12.0110   ; qtot -5.297
    22     CG2RC0      1      LIG    C12     22      0.150    12.0110   ; qtot -5.147
    23      CG2D1      1      LIG    C13     23     -0.324    12.0110   ; qtot -5.471
    24      CG331      1      LIG    C14     24     -0.098    12.0110   ; qtot -5.569
    25     CG2R61      1      LIG    C15     25     -0.157    12.0110   ; qtot -5.726
    26     CG2R61      1      LIG    C16     26      0.100    12.0110   ; qtot -5.626
    27     CG2R61      1      LIG    C17     27     -0.126    12.0110   ; qtot -5.752
    28      CG311      1      LIG    C18     28      0.274    12.0110   ; qtot -5.478
    29      CG311      1      LIG    C19     29      0.151    12.0110   ; qtot -5.327
    30      CG311      1      LIG    C20     30      0.156    12.0110   ; qtot -5.171
    31      CG311      1      LIG    C21     31      0.140    12.0110   ; qtot -5.031
    32      CG311      1      LIG    C22     32      0.092    12.0110   ; qtot -4.939
    33      CG2O2      1      LIG    C23     33      0.753    12.0110   ; qtot -4.186
    34       HGA1      1      LIG     H1     34      0.090     1.0080   ; qtot -4.096
    35       HGA1      1      LIG     H2     35      0.090     1.0080   ; qtot -4.006
    36       HGA1      1      LIG     H3     36      0.090     1.0080   ; qtot -3.916
    37       HGA2      1      LIG     H4     37      0.090     1.0080   ; qtot -3.826
    38       HGA2      1      LIG     H5     38      0.090     1.0080   ; qtot -3.736
    39       HGA2      1      LIG     H6     39      0.090     1.0080   ; qtot -3.646
    40       HGA2      1      LIG     H7     40      0.090     1.0080   ; qtot -3.556
    41       HGA2      1      LIG     H8     41      0.090     1.0080   ; qtot -3.466
    42       HGA2      1      LIG     H9     42      0.090     1.0080   ; qtot -3.376
    43       HGA1      1      LIG    H10     43      0.090     1.0080   ; qtot -3.286
    44       HGA4      1      LIG    H11     44      0.165     1.0080   ; qtot -3.121
    45       HGA4      1      LIG    H12     45      0.165     1.0080   ; qtot -2.956
    46       HGA3      1      LIG    H13     46      0.090     1.0080   ; qtot -2.866
    47       HGA3      1      LIG    H14     47      0.090     1.0080   ; qtot -2.776
    48       HGA3      1      LIG    H15     48      0.090     1.0080   ; qtot -2.686
    49      HGR61      1      LIG    H16     49      0.127     1.0080   ; qtot -2.559
    50      HGR61      1      LIG    H17     50      0.127     1.0080   ; qtot -2.432
    51       HGA1      1      LIG    H18     51      0.090     1.0080   ; qtot -2.342
    52       HGA1      1      LIG    H19     52      0.090     1.0080   ; qtot -2.252
    53       HGA1      1      LIG    H20     53      0.090     1.0080   ; qtot -2.162
    54       HGP1      1      LIG    H21     54      0.432     1.0080   ; qtot -1.730
    55       HGA1      1      LIG    H22     55      0.090     1.0080   ; qtot -1.640
    56       HGA1      1      LIG    H23     56      0.090     1.0080   ; qtot -1.550
    57       HGP1      1      LIG    H24     57      0.420     1.0080   ; qtot -1.130
    58       HGP1      1      LIG    H25     58      0.420     1.0080   ; qtot -0.710
    59       HGP1      1      LIG    H26     59      0.420     1.0080   ; qtot -0.290
    60       HGP1      1      LIG    H27     60      0.290     1.0080   ; qtot -0.000

[ bonds ]
; ai	aj	funct	b0	Kb
    1    13     1
    1    22     1
    2    19     1
    2    28     1
    3    26     1
    3    54     1
    4    28     1
    4    32     1
    5    29     1
    5    57     1
    6    30     1
    6    58     1
    7    31     1
    7    59     1
    8    33     1
    8    60     1
    9    33     1
   10    14     1
   10    18     1
   10    24     1
   11    12     1
   11    13     1
   11    15     1
   11    16     1
   12    14     1
   12    21     1
   12    34     1
   13    19     1
   13    35     1
   14    17     1
   14    36     1
   15    18     1
   15    37     1
   15    38     1
   16    20     1
   16    22     1
   17    20     1
   17    39     1
   17    40     1
   18    41     1
   18    42     1
   19    23     1
   19    43     1
   20    25     1
   21    23     1
   21    44     1
   22    26     1
   23    45     1
   24    46     1
   24    47     1
   24    48     1
   25    27     1
   25    49     1
   26    27     1
   27    50     1
   28    29     1
   28    51     1
   29    30     1
   29    52     1
   30    31     1
   30    53     1
   31    32     1
   31    55     1
   32    33     1
   32    56     1

[ pairs ]
; ai	aj	funct	c6	c12
    1     2     1 
    1     3     1 
    1    12     1 
    1    15     1 
    1    20     1 
    1    23     1 
    1    27     1 
    1    43     1 
    2     5     1 
    2    11     1 
    2    21     1 
    2    30     1 
    2    32     1 
    2    35     1 
    2    45     1 
    2    52     1 
    3    16     1 
    3    25     1 
    3    50     1 
    4     5     1 
    4     7     1 
    4     8     1 
    4     9     1 
    4    19     1 
    4    30     1 
    4    52     1 
    4    55     1 
    5     6     1 
    5    31     1 
    5    51     1 
    5    53     1 
    6     7     1 
    6    28     1 
    6    32     1 
    6    52     1 
    6    55     1 
    7    29     1 
    7    33     1 
    7    53     1 
    7    56     1 
    8    31     1 
    8    56     1 
    9    31     1 
    9    56     1 
    9    60     1 
   10    11     1 
   10    20     1 
   10    21     1 
   10    34     1 
   10    37     1 
   10    38     1 
   10    39     1 
   10    40     1 
   11    17     1 
   11    23     1 
   11    25     1 
   11    26     1 
   11    36     1 
   11    41     1 
   11    42     1 
   11    43     1 
   11    44     1 
   12    18     1 
   12    19     1 
   12    20     1 
   12    22     1 
   12    24     1 
   12    35     1 
   12    37     1 
   12    38     1 
   12    39     1 
   12    40     1 
   12    45     1 
   13    14     1 
   13    18     1 
   13    20     1 
   13    21     1 
   13    26     1 
   13    28     1 
   13    34     1 
   13    37     1 
   13    38     1 
   13    45     1 
   14    15     1 
   14    16     1 
   14    23     1 
   14    25     1 
   14    41     1 
   14    42     1 
   14    44     1 
   14    46     1 
   14    47     1 
   14    48     1 
   15    19     1 
   15    20     1 
   15    21     1 
   15    22     1 
   15    24     1 
   15    34     1 
   15    35     1 
   16    18     1 
   16    19     1 
   16    21     1 
   16    27     1 
   16    34     1 
   16    35     1 
   16    37     1 
   16    38     1 
   16    39     1 
   16    40     1 
   16    49     1 
   17    18     1 
   17    21     1 
   17    22     1 
   17    24     1 
   17    27     1 
   17    34     1 
   17    49     1 
   18    36     1 
   18    46     1 
   18    47     1 
   18    48     1 
   19    22     1 
   19    29     1 
   19    44     1 
   19    51     1 
   20    26     1 
   20    36     1 
   20    50     1 
   21    36     1 
   21    43     1 
   22    25     1 
   22    35     1 
   22    50     1 
   22    54     1 
   23    28     1 
   23    34     1 
   23    35     1 
   24    36     1 
   24    41     1 
   24    42     1 
   25    39     1 
   25    40     1 
   26    49     1 
   27    54     1 
   28    31     1 
   28    33     1 
   28    43     1 
   28    53     1 
   28    56     1 
   28    57     1 
   29    32     1 
   29    55     1 
   29    58     1 
   30    33     1 
   30    51     1 
   30    56     1 
   30    57     1 
   30    59     1 
   31    52     1 
   31    58     1 
   32    51     1 
   32    53     1 
   32    59     1 
   32    60     1 
   33    55     1 
   34    36     1 
   34    44     1 
   35    43     1 
   36    39     1 
   36    40     1 
   37    41     1 
   37    42     1 
   38    41     1 
   38    42     1 
   43    45     1 
   44    45     1 
   49    50     1 
   51    52     1 
   52    53     1 
   52    57     1 
   53    55     1 
   53    58     1 
   55    56     1 
   55    59     1 

[ angles ] 
; ai	aj	ak	funct	th0	cth	S0	Kub
   13     1    22     5
   19     2    28     5
   26     3    54     5
   28     4    32     5
   29     5    57     5
   30     6    58     5
   31     7    59     5
   33     8    60     5
   14    10    18     5
   14    10    24     5
   18    10    24     5
   12    11    13     5
   12    11    15     5
   12    11    16     5
   13    11    15     5
   13    11    16     5
   15    11    16     5
   11    12    14     5
   11    12    21     5
   11    12    34     5
   14    12    21     5
   14    12    34     5
   21    12    34     5
    1    13    11     5
    1    13    19     5
    1    13    35     5
   11    13    19     5
   11    13    35     5
   19    13    35     5
   10    14    12     5
   10    14    17     5
   10    14    36     5
   12    14    17     5
   12    14    36     5
   17    14    36     5
   11    15    18     5
   11    15    37     5
   11    15    38     5
   18    15    37     5
   18    15    38     5
   37    15    38     5
   11    16    20     5
   11    16    22     5
   20    16    22     5
   14    17    20     5
   14    17    39     5
   14    17    40     5
   20    17    39     5
   20    17    40     5
   39    17    40     5
   10    18    15     5
   10    18    41     5
   10    18    42     5
   15    18    41     5
   15    18    42     5
   41    18    42     5
    2    19    13     5
    2    19    23     5
    2    19    43     5
   13    19    23     5
   13    19    43     5
   23    19    43     5
   16    20    17     5
   16    20    25     5
   17    20    25     5
   12    21    23     5
   12    21    44     5
   23    21    44     5
    1    22    16     5
    1    22    26     5
   16    22    26     5
   19    23    21     5
   19    23    45     5
   21    23    45     5
   10    24    46     5
   10    24    47     5
   10    24    48     5
   46    24    47     5
   46    24    48     5
   47    24    48     5
   20    25    27     5
   20    25    49     5
   27    25    49     5
    3    26    22     5
    3    26    27     5
   22    26    27     5
   25    27    26     5
   25    27    50     5
   26    27    50     5
    2    28     4     5
    2    28    29     5
    2    28    51     5
    4    28    29     5
    4    28    51     5
   29    28    51     5
    5    29    28     5
    5    29    30     5
    5    29    52     5
   28    29    30     5
   28    29    52     5
   30    29    52     5
    6    30    29     5
    6    30    31     5
    6    30    53     5
   29    30    31     5
   29    30    53     5
   31    30    53     5
    7    31    30     5
    7    31    32     5
    7    31    55     5
   30    31    32     5
   30    31    55     5
   32    31    55     5
    4    32    31     5
    4    32    33     5
    4    32    56     5
   31    32    33     5
   31    32    56     5
   33    32    56     5
    8    33     9     5
    8    33    32     5
    9    33    32     5

[ dihedrals ]
; ai	aj	ak	al	funct	phi0	cp	mult
   22     1    13    35     9
   13     1    22    16     9
   13     1    22    26     9
   28     2    19    43     9
   19     2    28    29     9
   19     2    28    51     9
   32     4    28    51     9
   28     4    32    31     9
   28     4    32    33     9
   28     4    32    56     9
   18    10    14    36     9
   24    10    14    36     9
   14    10    18    15     9
   14    10    18    41     9
   14    10    18    42     9
   24    10    18    41     9
   24    10    18    42     9
   14    10    24    46     9
   14    10    24    47     9
   14    10    24    48     9
   18    10    24    46     9
   18    10    24    47     9
   18    10    24    48     9
   13    11    12    14     9
   13    11    12    21     9
   13    11    12    34     9
   15    11    12    21     9
   15    11    12    34     9
   16    11    12    21     9
   16    11    12    34     9
   12    11    13    19     9
   12    11    13    35     9
   15    11    13    19     9
   15    11    13    35     9
   16    11    13    19     9
   16    11    13    35     9
   12    11    15    18     9
   12    11    15    37     9
   12    11    15    38     9
   13    11    15    18     9
   13    11    15    37     9
   13    11    15    38     9
   16    11    15    18     9
   16    11    15    37     9
   16    11    15    38     9
   12    11    16    20     9
   12    11    16    22     9
   13    11    16    20     9
   13    11    16    22     9
   15    11    16    20     9
   15    11    16    22     9
   14    12    11    15     9
   14    12    11    16     9
   11    12    14    17     9
   11    12    14    36     9
   21    12    14    36     9
   34    12    14    36     9
   11    12    21    23     9
   11    12    21    44     9
   14    12    21    23     9
   14    12    21    44     9
   34    12    21    44     9
   11    13     1    22     9
   19    13     1    22     9
    1    13    11    12     9
    1    13    11    15     9
    1    13    11    16     9
    1    13    19     2     9
    1    13    19    23     9
    1    13    19    43     9
   11    13    19    23     9
   11    13    19    43     9
   35    13    19    43     9
   12    14    10    18     9
   12    14    10    24     9
   17    14    10    18     9
   17    14    10    24     9
   10    14    12    11     9
   10    14    12    21     9
   10    14    12    34     9
   17    14    12    21     9
   17    14    12    34     9
   10    14    17    20     9
   10    14    17    39     9
   10    14    17    40     9
   12    14    17    20     9
   12    14    17    39     9
   12    14    17    40     9
   36    14    17    39     9
   36    14    17    40     9
   11    15    18    41     9
   11    15    18    42     9
   37    15    18    41     9
   37    15    18    42     9
   38    15    18    41     9
   38    15    18    42     9
   11    16    20    17     9
   11    16    20    25     9
   22    16    20    25     9
   11    16    22    26     9
   20    16    22    26     9
   20    17    14    36     9
   14    17    20    16     9
   14    17    20    25     9
   15    18    10    24     9
   10    18    15    11     9
   10    18    15    37     9
   10    18    15    38     9
   13    19     2    28     9
   23    19     2    28     9
    2    19    13    11     9
    2    19    13    35     9
   23    19    13    35     9
    2    19    23    21     9
    2    19    23    45     9
   13    19    23    21     9
   13    19    23    45     9
   43    19    23    45     9
   17    20    16    22     9
   16    20    17    39     9
   16    20    17    40     9
   25    20    17    39     9
   25    20    17    40     9
   16    20    25    27     9
   16    20    25    49     9
   17    20    25    27     9
   17    20    25    49     9
   23    21    12    34     9
   12    21    23    19     9
   12    21    23    45     9
   44    21    23    45     9
    1    22    16    11     9
    1    22    16    20     9
    1    22    26     3     9
    1    22    26    27     9
   16    22    26    27     9
   21    23    19    43     9
   19    23    21    44     9
   20    25    27    26     9
   20    25    27    50     9
   49    25    27    50     9
   22    26     3    54     9
   27    26     3    54     9
    3    26    22    16     9
    3    26    27    25     9
    3    26    27    50     9
   22    26    27    25     9
   22    26    27    50     9
   26    27    25    49     9
    4    28     2    19     9
    2    28     4    32     9
   29    28     4    32     9
    2    28    29     5     9
    2    28    29    30     9
    2    28    29    52     9
    4    28    29     5     9
    4    28    29    30     9
    4    28    29    52     9
   51    28    29    52     9
   28    29     5    57     9
   30    29     5    57     9
   52    29     5    57     9
    5    29    28    51     9
   30    29    28    51     9
    5    29    30     6     9
    5    29    30    31     9
    5    29    30    53     9
   28    29    30    31     9
   28    29    30    53     9
   52    29    30    53     9
   29    30     6    58     9
   31    30     6    58     9
   53    30     6    58     9
    6    30    29    28     9
    6    30    29    52     9
   31    30    29    52     9
    6    30    31     7     9
    6    30    31    32     9
    6    30    31    55     9
   29    30    31    32     9
   29    30    31    55     9
   53    30    31    55     9
   30    31     7    59     9
   32    31     7    59     9
   55    31     7    59     9
    7    31    30    29     9
    7    31    30    53     9
   32    31    30    53     9
    7    31    32    33     9
    7    31    32    56     9
   30    31    32    33     9
   30    31    32    56     9
   55    31    32    56     9
    4    32    31     7     9
    4    32    31    30     9
    4    32    31    55     9
   33    32    31    55     9
    4    32    33     8     9
    4    32    33     9     9
    9    33     8    60     9
   32    33     8    60     9
    8    33    32    31     9
    8    33    32    56     9
    9    33    32    31     9
    9    33    32    56     9

[ dihedrals ]
; ai	aj	ak	al	funct	q0	cq
   33    32     9     8     2
